Title
82292
    1SAPS     N    1   5.181   1.395  10.986 -0.0876  0.0714 -0.1698
    1SAPS   HN1    2   5.239   1.450  11.052 -0.8374  1.4597 -0.6459
    1SAPS   HN2    3   5.206   1.295  11.004  0.1412  0.2088  0.3037
    1SAPS   HN3    4   5.202   1.418  10.887  0.5960 -1.9098 -0.5428
    1SAPS   C12    5   5.039   1.414  11.018  0.3290 -0.1579 -0.5247
    1SAPS  H12A    6   4.977   1.365  10.944 -2.1610 -2.7120  2.9204
    1SAPS   C13    7   4.997   1.337  11.146  0.3737  0.2540 -0.3167
    1SAPS  O13A    8   5.087   1.296  11.220  0.2953  0.3685  0.0880
    1SAPS  O13B    9   4.876   1.341  11.183 -0.1146 -0.5745  0.3193
    1SAPS   C11   10   5.012   1.565  11.024  0.1650 -0.1172  0.3774
    1SAPS  H11A   11   5.059   1.596  11.120 -0.2300  2.3788 -0.1707
    1SAPS  H11B   12   4.904   1.581  11.045 -0.1099 -2.1364  0.6416
    1SAPS     P   13   5.057   1.795  10.913  0.1458 -0.0818  0.5018
    1SAPS   O13   14   5.065   1.843  11.050 -0.1063 -0.6960 -0.3306
    1SAPS   O14   15   5.164   1.843  10.822 -0.2227  0.0708 -0.0304
    1SAPS   O12   16   5.066   1.639  10.912 -0.1873 -0.1555  0.2153
    1SAPS   O11   17   4.917   1.834  10.861  0.2761  0.0605 -0.1297
    1SAPS    C1   18   4.817   1.760  10.792 -0.8799  0.0273  0.0070
    1SAPS    HA   19   4.846   1.652  10.792  1.1105  0.5067  1.6265
    1SAPS    HB   20   4.726   1.767  10.855 -0.9954  1.0458 -0.2705
    1SAPS    C2   21   4.789   1.803  10.643  0.1949 -0.0193 -0.0708
    1SAPS    HS   22   4.701   1.743  10.613  0.7472 -1.1668  0.5479
    1SAPS   O21   23   4.917   1.780  10.576 -0.1441  0.2543 -0.2882
    1SAPS   C21   24   4.947   1.653  10.553 -0.5346 -0.6273 -0.0472
    1SAPS   O22   25   4.881   1.555  10.584  0.9575  0.1385 -0.2575
    1SAPS   C22   26   5.086   1.652  10.494 -0.6302 -0.8530  0.0704
    1SAPS   H2R   27   5.129   1.754  10.491 -1.0246 -0.7017 -1.1180
    1SAPS   H2S   28   5.153   1.592  10.558  0.1510 -0.1085 -0.0394
    1SAPS    C3   29   4.754   1.962  10.627  0.1602  0.1780  0.5364
    1SAPS    HX   30   4.843   2.016  10.666  1.7042 -1.5908 -0.3522
    1SAPS    HY   31   4.665   1.996  10.685  0.1381 -0.6334  1.0042
    1SAPS   O31   32   4.729   1.985  10.488 -0.4913 -0.4946  0.6260
    1SAPS   C31   33   4.773   2.095  10.439 -0.0193 -0.3396 -0.0694
    1SAPS   O32   34   4.844   2.180  10.491 -0.7170  0.4081  0.1390
    1SAPS   C32   35   4.723   2.111  10.296  0.0804  0.3715  0.4211
    1SAPS   H2X   36   4.614   2.087  10.289 -0.1241  1.4917 -0.5597
    1SAPS   H2Y   37   4.776   2.036  10.234 -3.3629 -1.4196 -0.6669
    1SAPS   C23   38   5.087   1.603  10.341  0.4381  0.6713  0.0940
    1SAPS   H3R   39   5.177   1.637  10.285  1.2839 -2.3342 -0.5474
    1SAPS   H3S   40   4.997   1.639  10.287  0.4619 -0.7670 -0.9704
    1SAPS   C24   41   5.098   1.447  10.327  0.0715  0.0770 -0.3149
    1SAPS   H4R   42   5.006   1.396  10.362  0.7841  1.2109  3.7805
    1SAPS   H4S   43   5.180   1.414  10.395 -1.2730 -3.1925 -0.1028
    1SAPS   C25   44   5.133   1.402  10.183  0.0481  0.0960 -0.3578
    1SAPS   H5R   45   5.214   1.327  10.176 -2.0383 -2.5206  1.5144
    1SAPS   C26   46   5.090   1.430  10.062  0.1721  0.0535 -0.0130
    1SAPS   H6R   47   5.137   1.379   9.977  1.4892 -0.1365  0.8041
    1SAPS   C27   48   4.993   1.533  10.020  0.4294  0.3616 -0.6806
    1SAPS   H7R   49   4.997   1.560   9.913  1.7185  4.4102  0.2361
    1SAPS   H7S   50   5.025   1.621  10.079  1.2644 -0.3653 -0.0020
    1SAPS   C28   51   4.855   1.489  10.065  0.6006  0.5153 -1.1147
    1SAPS   H8R   52   4.844   1.489  10.174 -1.2304  1.3859 -1.2743
    1SAPS   C29   53   4.746   1.459   9.991 -0.0719 -0.0810 -0.5323
    1SAPS   H9R   54   4.660   1.415  10.044  1.1788 -2.2350 -0.1488
    1SAPS  C210   55   4.742   1.453   9.839 -0.0728  0.8481 -0.7235
    1SAPS  H10R   56   4.686   1.361   9.810 -0.9975  0.8415  0.9424
    1SAPS  H10S   57   4.841   1.443   9.790 -0.5567 -1.4084 -1.3577
    1SAPS  C211   58   4.672   1.570   9.780  0.5186 -0.4564 -0.7109
    1SAPS  H11R   59   4.701   1.671   9.814  1.1526 -0.5742 -0.9022
    1SAPS  C212   60   4.585   1.574   9.681  0.1574  0.2431  0.5281
    1SAPS  H12R   61   4.541   1.673   9.663 -0.9113 -0.2845  0.1433
    1SAPS  C213   62   4.515   1.464   9.607 -0.2315 -0.0734 -0.1838
    1SAPS  H13R   63   4.413   1.496   9.577 -0.0964  0.3058 -0.2533
    1SAPS  H13S   64   4.494   1.386   9.683 -3.3015 -0.9414 -1.7617
    1SAPS  C214   65   4.591   1.415   9.492 -0.3097 -0.1380  0.0860
    1SAPS  H14R   66   4.668   1.349   9.533 -0.6462 -0.0715  0.8281
    1SAPS  C215   67   4.594   1.441   9.360  0.7501  0.2352  0.5933
    1SAPS  H15R   68   4.686   1.417   9.304  1.9993  1.7386  1.8890
    1SAPS  C216   69   4.500   1.528   9.285 -0.2503  0.4100 -0.6667
    1SAPS  H16R   70   4.549   1.599   9.215 -0.2404 -0.3990 -1.5018
    1SAPS  H16S   71   4.436   1.579   9.360 -1.2486  1.4332 -2.1499
    1SAPS  C217   72   4.414   1.433   9.196 -0.5196  0.1390 -0.4793
    1SAPS  H17R   73   4.319   1.485   9.171 -1.0681 -0.6372 -0.0396
    1SAPS  H17S   74   4.389   1.335   9.241  0.2862 -1.6402 -3.5741
    1SAPS  C218   75   4.491   1.401   9.069  0.0956  0.0011  0.7672
    1SAPS  H18R   76   4.585   1.345   9.089 -0.4395 -0.3163  2.5961
    1SAPS  H18S   77   4.525   1.495   9.021 -0.7768 -0.3676 -0.6179
    1SAPS  C219   78   4.406   1.325   8.964 -0.8710  0.1155  0.1532
    1SAPS  H19R   79   4.356   1.233   9.001  2.2886 -1.9932 -0.5229
    1SAPS  H19S   80   4.480   1.275   8.899 -1.7105 -1.5626  0.4296
    1SAPS  C220   81   4.306   1.409   8.875  0.1017  0.4305 -0.3821
    1SAPS  H20R   82   4.364   1.486   8.819 -0.7470 -0.3767 -2.4692
    1SAPS  H20S   83   4.218   1.447   8.931  0.3575  1.7787 -0.8390
    1SAPS  H20T   84   4.254   1.348   8.798  1.0302 -2.0403  0.8722
    1SAPS   C33   85   4.746   2.256  10.248  0.4813 -0.0435  0.6871
    1SAPS   H3X   86   4.853   2.287  10.245  0.7710 -0.9231  1.4557
    1SAPS   H3Y   87   4.694   2.322  10.321  0.4619 -1.4631  2.0174
    1SAPS   C34   88   4.692   2.277  10.103  0.5393 -0.5595 -0.0782
    1SAPS   H4X   89   4.581   2.281  10.101  0.4977  1.5700  2.0552
    1SAPS   H4Y   90   4.722   2.183  10.053  0.6408  0.6320 -2.3746
    1SAPS   C35   91   4.756   2.388  10.024 -0.0309  0.6437 -0.2115
    1SAPS   H5X   92   4.864   2.391  10.048 -0.0563  0.8612 -0.1204
    1SAPS   H5Y   93   4.727   2.492  10.050  3.2300  2.2673 -2.4149
    1SAPS   C36   94   4.756   2.364   9.870 -0.0263  0.1126  0.5301
    1SAPS   H6X   95   4.652   2.384   9.834  0.2497  0.8861  0.1422
    1SAPS   H6Y   96   4.780   2.256   9.862 -4.2428 -1.0362  0.8720
    1SAPS   C37   97   4.846   2.452   9.783  0.0678  0.6140  0.5852
    1SAPS   H7X   98   4.952   2.431   9.810  0.5473 -0.2999 -1.8151
    1SAPS   H7Y   99   4.822   2.559   9.797 -1.1404  0.2718  1.3391
    1SAPS   C38  100   4.822   2.424   9.636  0.5657 -0.0543  0.2514
    1SAPS   H8X  101   4.715   2.416   9.607  1.1920 -2.1565 -1.8776
    1SAPS   H8Y  102   4.865   2.321   9.627 -1.6235 -0.8508 -2.9846
    1SAPS   C39  103   4.909   2.516   9.552  0.3563  0.5773  0.8340
    1SAPS   H9X  104   5.016   2.496   9.573  0.6812  0.6394 -0.7066
    1SAPS   H9Y  105   4.878   2.622   9.567 -1.6162  0.7816 -3.2358
    1SAPS  C310  106   4.901   2.488   9.404  0.4820  0.1502 -0.0414
    1SAPS  H10X  107   4.803   2.505   9.355  0.7768 -1.5126 -1.2784
    1SAPS  H10Y  108   4.930   2.383   9.382  1.6006  0.5518 -0.5820
    1SAPS  C311  109   5.001   2.571   9.325  0.4830 -0.1465 -0.2088
    1SAPS  H11X  110   5.097   2.515   9.322 -0.7525 -2.4165  0.3538
    1SAPS  H11Y  111   5.011   2.667   9.380 -0.3476 -0.1401 -0.0530
    1SAPS  C312  112   4.978   2.602   9.184  0.0678  0.0021 -0.2968
    1SAPS  H12X  113   4.872   2.633   9.175  0.1879  0.4626 -0.1422
    1SAPS  H12Y  114   4.986   2.513   9.117 -1.3161  2.2346 -3.6764
    1SAPS  C313  115   5.062   2.708   9.133 -0.9472  0.3233 -0.1195
    1SAPS  H13X  116   5.170   2.694   9.156 -1.0475  1.7636  1.4981
    1SAPS  H13Y  117   5.042   2.802   9.189  0.5762 -0.0955  1.1947
    1SAPS  C314  118   5.031   2.733   8.983  0.0398  0.0145 -0.1939
    1SAPS  H14X  119   5.104   2.807   8.945 -0.6257  0.3975 -0.7622
    1SAPS  H14Y  120   4.927   2.771   8.973 -0.1177  0.2599  1.9338
    1SAPS  C315  121   5.058   2.618   8.879 -0.4891  0.7621 -0.0550
    1SAPS  H15X  122   4.993   2.529   8.896  0.2526  0.1340 -0.4233
    1SAPS  H15Y  123   5.158   2.571   8.891  0.7997  3.0950 -1.0213
    1SAPS  C316  124   5.043   2.680   8.736  0.4697 -0.6576  0.4079
    1SAPS  H16X  125   5.069   2.787   8.749 -0.0933 -0.1264 -2.1551
    1SAPS  H16Y  126   4.945   2.680   8.684  1.4530 -1.0087 -1.5867
    1SAPS  C317  127   5.138   2.602   8.634  0.4325  0.6078 -0.6697
    1SAPS  H17X  128   5.245   2.617   8.662  1.0172 -0.9887 -1.8889
    1SAPS  H17Y  129   5.124   2.649   8.534 -0.0835 -0.2212 -0.9940
    1SAPS  C318  130   5.113   2.450   8.622  1.3096  0.0743 -0.8332
    1SAPS  H18X  131   5.095   2.414   8.725 -1.9434 -1.5499 -1.8048
    1SAPS  H18Y  132   5.202   2.394   8.585  2.0098 -0.7208  1.8521
    1SAPS  H18Z  133   5.028   2.421   8.556  0.9067  0.3343 -0.4300
    2SAPS     N  134   2.243   4.347  10.974 -0.0425 -0.1683 -0.3746
    2SAPS   HN1  135   2.176   4.420  11.006  0.8462 -0.5357  2.5998
    2SAPS   HN2  136   2.310   4.384  10.905  2.0545 -2.7466  0.1173
    2SAPS   HN3  137   2.194   4.272  10.920  1.7551 -0.8528 -1.1394
    2SAPS   C12  138   2.324   4.289  11.085  0.1514 -0.2942  0.1316
    2SAPS  H12A  139   2.377   4.364  11.142 -1.3726  0.0418  1.1610
    2SAPS   C13  140   2.245   4.200  11.186 -0.3505 -0.0550  0.4036
    2SAPS  O13A  141   2.120   4.180  11.166  0.6720  0.1696  0.4389
    2SAPS  O13B  142   2.302   4.157  11.290  0.0048  0.1796  0.3880
    2SAPS   C11  143   2.432   4.203  11.028 -0.1533  0.2634 -0.0894
    2SAPS  H11A  144   2.379   4.112  10.992  1.6739 -0.6185 -0.6609
    2SAPS  H11B  145   2.506   4.172  11.106  0.2039  0.7614 -0.2281
    2SAPS     P  146   2.596   4.153  10.849 -0.0753  0.1695  0.4184
    2SAPS   O13  147   2.693   4.239  10.777  0.0263 -0.5246 -0.3839
    2SAPS   O14  148   2.639   4.048  10.949  0.6121 -0.4719  0.3665
    2SAPS   O12  149   2.504   4.258  10.919 -0.1089  0.2931  0.2212
    2SAPS   O11  150   2.513   4.079  10.749  0.1944  0.7406 -0.0096
    2SAPS    C1  151   2.380   4.110  10.723  0.0589  0.3951  0.4324
    2SAPS    HA  152   2.310   4.055  10.789  0.4797 -1.2149 -0.4210
    2SAPS    HB  153   2.346   4.216  10.733 -1.3018 -0.0399  0.6961
    2SAPS    C2  154   2.337   4.080  10.574 -0.2736 -0.2712 -0.0453
    2SAPS    HS  155   2.232   4.111  10.559 -0.9834 -1.9930  1.0347
    2SAPS   O21  156   2.357   3.946  10.540 -1.0129  0.2088 -0.5592
    2SAPS   C21  157   2.270   3.863  10.601 -0.0331  0.5211 -0.4895
    2SAPS   O22  158   2.194   3.892  10.694  0.0454 -0.4040 -0.0551
    2SAPS   C22  159   2.285   3.728  10.541  0.7141 -0.3309 -0.3839
    2SAPS   H2R  160   2.374   3.729  10.475  0.2824  1.7451 -0.9946
    2SAPS   H2S  161   2.304   3.660  10.627 -1.0672 -1.2633 -0.6837
    2SAPS    C3  162   2.425   4.151  10.466 -0.2187 -0.4616 -0.8050
    2SAPS    HX  163   2.531   4.122  10.478  0.0727  0.0488 -2.0053
    2SAPS    HY  164   2.424   4.263  10.467  0.4096 -0.4566 -0.5165
    2SAPS   O31  165   2.378   4.121  10.328  0.0427  0.6761 -0.2381
    2SAPS   C31  166   2.437   4.028  10.259 -0.4954 -0.2527 -0.5927
    2SAPS   O32  167   2.515   3.941  10.298 -0.0379  0.2788  0.5162
    2SAPS   C32  168   2.398   4.051  10.113  1.0780 -0.8247  0.4705
    2SAPS   H2X  169   2.458   4.141  10.089  0.3082  0.0325  1.6385
    2SAPS   H2Y  170   2.289   4.073  10.107  1.4607  0.9076 -0.8842
    2SAPS   C23  171   2.172   3.662  10.460  0.8667 -0.0674  0.1971
    2SAPS   H3R  172   2.072   3.666  10.508  0.5020 -1.9365 -0.3166
    2SAPS   H3S  173   2.200   3.554  10.456  0.3021 -0.1860 -1.5519
    2SAPS   C24  174   2.171   3.697  10.307 -1.0980 -0.1194  1.1945
    2SAPS   H4R  175   2.130   3.610  10.252 -0.6817 -0.9483  2.1779
    2SAPS   H4S  176   2.274   3.716  10.270 -1.6254 -0.0482 -0.2950
    2SAPS   C25  177   2.092   3.828  10.293 -0.4381  0.2223  0.0084
    2SAPS   H5R  178   2.124   3.907  10.362  3.2077  0.3542 -1.5699
    2SAPS   C26  179   1.987   3.842  10.216 -0.2930 -0.2459 -0.0054
    2SAPS   H6R  180   1.943   3.941  10.231 -0.0732 -0.4346  2.1829
    2SAPS   C27  181   1.922   3.750  10.114 -0.6510 -0.2855  0.2807
    2SAPS   H7R  182   1.817   3.734  10.145 -0.8263  2.6454  1.4292
    2SAPS   H7S  183   1.969   3.649  10.120  0.6089  0.2884  0.4180
    2SAPS   C28  184   1.941   3.793   9.967 -0.5451 -0.1011  0.0148
    2SAPS   H8R  185   1.920   3.898   9.943 -0.2856 -0.0154  0.1654
    2SAPS   C29  186   1.957   3.711   9.861  0.0721 -1.3175  0.6887
    2SAPS   H9R  187   1.966   3.755   9.760 -0.8910 -3.6997 -0.5296
    2SAPS  C210  188   1.974   3.564   9.860 -0.0590  0.4205 -1.0463
    2SAPS  H10R  189   1.873   3.518   9.866 -0.4024  1.0520 -1.9046
    2SAPS  H10S  190   2.016   3.537   9.959 -4.9012  0.4863  1.3017
    2SAPS  C211  191   2.039   3.490   9.740 -0.2199 -1.0597  0.1239
    2SAPS  H11R  192   2.144   3.516   9.718 -0.7448  0.9307 -0.2503
    2SAPS  C212  193   1.975   3.410   9.650 -0.3526  0.0096  0.1129
    2SAPS  H12R  194   2.041   3.366   9.574 -0.6094 -1.0930  0.5069
    2SAPS  C213  195   1.834   3.372   9.637  0.1811  0.2736 -0.2733
    2SAPS  H13R  196   1.781   3.442   9.568 -2.0852 -1.9730 -0.9789
    2SAPS  H13S  197   1.784   3.381   9.736  0.9850 -3.8763  0.7051
    2SAPS  C214  198   1.805   3.234   9.580  0.2141 -0.6608  0.2529
    2SAPS  H14R  199   1.776   3.159   9.655  1.1618 -1.9877 -0.6549
    2SAPS  C215  200   1.820   3.195   9.444 -0.3877  0.3944 -0.8736
    2SAPS  H15R  201   1.808   3.092   9.409 -0.5231 -0.0069  0.3184
    2SAPS  C216  202   1.872   3.288   9.340  0.4090  0.0898  1.3215
    2SAPS  H16R  203   1.931   3.368   9.390 -0.5485  0.7688  1.3837
    2SAPS  H16S  204   1.790   3.343   9.289 -0.0423 -0.2125  1.7105
    2SAPS  C217  205   1.940   3.200   9.233 -0.0033  0.0117 -0.3780
    2SAPS  H17R  206   1.988   3.281   9.174 -1.8600  1.5360  0.1191
    2SAPS  H17S  207   1.876   3.136   9.170 -0.6846 -1.6039  1.8123
    2SAPS  C218  208   2.055   3.113   9.292  0.1422 -0.2115  0.2723
    2SAPS  H18R  209   2.019   3.068   9.387  0.2445 -0.6756  0.0927
    2SAPS  H18S  210   2.137   3.186   9.307 -1.5568  1.8173  0.2246
    2SAPS  C219  211   2.098   2.996   9.202  0.1738 -0.9149  0.7330
    2SAPS  H19R  212   2.179   2.933   9.245  0.1621 -1.7230 -0.4163
    2SAPS  H19S  213   2.135   3.040   9.107 -1.2941 -1.9119 -0.3314
    2SAPS  C220  214   1.979   2.902   9.171 -0.4319 -0.2244 -0.2874
    2SAPS  H20R  215   2.018   2.811   9.119 -0.5447  0.6877 -2.0657
    2SAPS  H20S  216   1.890   2.937   9.114 -2.3780 -2.2313  1.3558
    2SAPS  H20T  217   1.937   2.876   9.270  2.6567 -1.1969  0.8801
    2SAPS   C33  218   2.430   3.934  10.022 -0.5168  0.1254  0.4107
    2SAPS   H3X  219   2.403   3.833  10.059  0.0445  0.2884  1.2935
    2SAPS   H3Y  220   2.541   3.934  10.021 -0.5210  0.0169  0.0789
    2SAPS   C34  221   2.386   3.944   9.874 -0.9356 -0.1219 -0.1769
    2SAPS   H4X  222   2.396   4.049   9.841 -0.9330 -0.4153 -1.1362
    2SAPS   H4Y  223   2.277   3.923   9.872 -0.9531 -0.2227  1.1890
    2SAPS   C35  224   2.462   3.845   9.782 -0.7180  0.4516  0.2172
    2SAPS   H5X  225   2.443   3.739   9.811  0.6250 -0.2860 -1.3858
    2SAPS   H5Y  226   2.572   3.861   9.784 -0.7023  0.3182  0.4962
    2SAPS   C36  227   2.412   3.860   9.639  0.7925 -0.3351  0.2814
    2SAPS   H6X  228   2.417   3.970   9.626 -1.4678 -0.0016  1.6989
    2SAPS   H6Y  229   2.304   3.834   9.635  0.2823  1.7623 -0.8726
    2SAPS   C37  230   2.472   3.778   9.531 -0.2008 -0.2221 -0.1876
    2SAPS   H7X  231   2.481   3.670   9.555  0.2379 -0.2690 -0.5456
    2SAPS   H7Y  232   2.580   3.803   9.544  0.8026 -1.4225 -4.5438
    2SAPS   C38  233   2.428   3.800   9.393  0.3755 -0.0752  1.9356
    2SAPS   H8X  234   2.495   3.762   9.313 -2.9830  0.6915 -1.5108
    2SAPS   H8Y  235   2.429   3.910   9.382  0.2753 -0.1703  0.8730
    2SAPS   C39  236   2.284   3.740   9.352  0.6347  0.4618 -0.6386
    2SAPS   H9X  237   2.242   3.782   9.258 -2.7882  0.9612  0.9363
    2SAPS   H9Y  238   2.217   3.772   9.436  1.1502 -1.3394  0.5181
    2SAPS  C310  239   2.285   3.589   9.337  0.1170  0.2879  0.3856
    2SAPS  H10X  240   2.308   3.556   9.441 -2.3602 -0.8531  0.6503
    2SAPS  H10Y  241   2.369   3.559   9.271  0.1471  0.2056  0.4616
    2SAPS  C311  242   2.143   3.534   9.297  0.0322 -0.1193 -0.5207
    2SAPS  H11X  243   2.056   3.578   9.349  0.3789 -0.2392  0.1657
    2SAPS  H11Y  244   2.128   3.426   9.319  1.8954 -0.3239 -0.1084
    2SAPS  C312  245   2.113   3.547   9.146 -0.7341  0.4243  0.4545
    2SAPS  H12X  246   2.095   3.654   9.122  0.6760  0.8692  1.2352
    2SAPS  H12Y  247   2.016   3.493   9.144 -0.2695 -0.4298 -1.4883
    2SAPS  C313  248   2.218   3.488   9.055  0.6895 -0.5748  0.3675
    2SAPS  H13X  249   2.269   3.416   9.122  0.5456  0.7584  1.9751
    2SAPS  H13Y  250   2.305   3.556   9.040  0.6044 -0.9022 -1.9516
    2SAPS  C314  251   2.161   3.435   8.919  0.4378 -0.1559 -0.4085
    2SAPS  H14X  252   2.128   3.518   8.853 -1.7980  1.0789  2.0419
    2SAPS  H14Y  253   2.061   3.395   8.946 -0.6347  2.7453  0.2938
    2SAPS  C315  254   2.247   3.339   8.856 -0.0023  0.2927 -0.4079
    2SAPS  H15X  255   2.315   3.292   8.930 -0.8227  0.4074  0.4359
    2SAPS  H15Y  256   2.302   3.387   8.773 -0.5907 -0.1876 -1.0870
    2SAPS  C316  257   2.164   3.229   8.782 -0.5576  0.4855  0.4053
    2SAPS  H16X  258   2.100   3.270   8.701  1.9154  1.0485 -1.3854
    2SAPS  H16Y  259   2.109   3.185   8.868  0.9391  1.1514  1.7790
    2SAPS  C317  260   2.264   3.125   8.721 -0.4504 -0.2596 -0.7077
    2SAPS  H17X  261   2.343   3.097   8.794  2.0009  2.3498 -2.1483
    2SAPS  H17Y  262   2.322   3.174   8.640 -1.0598  1.4566 -0.1682
    2SAPS  C318  263   2.199   2.997   8.675  0.8020 -0.2881 -0.0343
    2SAPS  H18X  264   2.135   2.955   8.756  2.5368 -1.6094  0.7298
    2SAPS  H18Y  265   2.279   2.923   8.655  1.6673  0.8449 -0.9235
    2SAPS  H18Z  266   2.138   3.012   8.583 -0.0554 -0.3968  0.5023
    3SAPS     N  267   5.367   5.781  10.367  0.1934  0.2171 -0.0423
    3SAPS   HN1  268   5.359   5.867  10.424  0.3959 -0.2846  0.7491
    3SAPS   HN2  269   5.459   5.784  10.318  0.2457 -0.8107 -0.0466
    3SAPS   HN3  270   5.295   5.773  10.292 -2.0178  3.1183  1.5837
    3SAPS   C12  271   5.374   5.661  10.453 -0.3816 -0.7675  0.4178
    3SAPS  H12A  272   5.407   5.579  10.390  2.4139  1.2388 -0.9358
    3SAPS   C13  273   5.462   5.678  10.580  0.4707  0.9518 -0.7283
    3SAPS  O13A  274   5.523   5.784  10.605 -0.3318  0.0235 -0.4802
    3SAPS  O13B  275   5.462   5.577  10.656 -0.1627  0.6914  0.5970
    3SAPS   C11  276   5.228   5.625  10.496 -0.1754  0.1368  0.5735
    3SAPS  H11A  277   5.221   5.531  10.555  0.8050  1.7771  3.5073
    3SAPS  H11B  278   5.168   5.611  10.403  1.9845  1.7660 -1.1789
    3SAPS     P  279   5.103   5.716  10.716  0.0160  0.1150  0.2836
    3SAPS   O13  280   5.104   5.574  10.758  0.2941  0.4314  0.5329
    3SAPS   O14  281   5.172   5.807  10.808  0.0144  0.3616 -0.5736
    3SAPS   O12  282   5.166   5.731  10.568 -0.1565 -0.2167 -0.0956
    3SAPS   O11  283   4.959   5.769  10.707  0.3129 -0.8524  0.2993
    3SAPS    C1  284   4.859   5.693  10.641 -0.1568 -0.0020 -0.3300
    3SAPS    HA  285   4.883   5.586  10.660  2.4205  1.0294  3.4296
    3SAPS    HB  286   4.773   5.721  10.705 -1.8205 -3.0417 -1.0340
    3SAPS    C2  287   4.830   5.725  10.496 -0.2188 -1.1436  0.0291
    3SAPS    HS  288   4.918   5.693  10.435 -0.7190  1.0214 -1.9799
    3SAPS   O21  289   4.815   5.868  10.484 -0.1202 -0.2230 -0.0203
    3SAPS   C21  290   4.867   5.930  10.378  0.2639 -0.0292  0.3056
    3SAPS   O22  291   4.914   5.881  10.278  0.5784  0.2913 -0.7434
    3SAPS   C22  292   4.857   6.076  10.396 -0.1057  0.3627 -0.4465
    3SAPS   H2R  293   4.911   6.107  10.488  0.6644 -1.8156 -0.1024
    3SAPS   H2S  294   4.914   6.109  10.307 -0.1185  1.5581 -0.0223
    3SAPS    C3  295   4.709   5.649  10.442  0.0642  0.1783  0.0614
    3SAPS    HX  296   4.618   5.674  10.500  0.8976 -1.5486  2.2344
    3SAPS    HY  297   4.729   5.540  10.450 -0.6817  0.1329  1.5427
    3SAPS   O31  298   4.687   5.687  10.302  0.1030 -0.6525  0.0460
    3SAPS   C31  299   4.758   5.612  10.215  0.1643  0.4269 -0.0558
    3SAPS   O32  300   4.823   5.513  10.247  0.5004 -0.0182 -0.0399
    3SAPS   C32  301   4.746   5.659  10.072 -0.3803  0.0353 -0.1155
    3SAPS   H2X  302   4.842   5.711  10.048 -0.2595  0.4358  1.1659
    3SAPS   H2Y  303   4.666   5.736  10.074 -0.0432  0.4493 -1.5227
    3SAPS   C23  304   4.712   6.129  10.375 -0.5289 -0.3419  0.2496
    3SAPS   H3R  305   4.722   6.239  10.372  0.2627 -0.3824  1.0153
    3SAPS   H3S  306   4.638   6.112  10.456 -2.8038  0.3400 -1.6036
    3SAPS   C24  307   4.658   6.082  10.236  0.0154 -0.3850 -0.2379
    3SAPS   H4R  308   4.638   5.972  10.234 -0.3441 -0.4018  1.7469
    3SAPS   H4S  309   4.742   6.109  10.169  0.9995 -1.8145  0.3610
    3SAPS   C25  310   4.527   6.151  10.192 -0.3858  0.0236 -0.4155
    3SAPS   H5R  311   4.480   6.215  10.267 -1.1177 -0.0513 -0.8036
    3SAPS   C26  312   4.497   6.177  10.068 -0.5680 -0.3024 -0.1635
    3SAPS   H6R  313   4.412   6.247  10.059 -1.0999 -0.9484 -0.2675
    3SAPS   C27  314   4.573   6.125   9.947 -0.1855 -0.4534 -0.0805
    3SAPS   H7R  315   4.617   6.024   9.959 -1.9875 -1.4392 -1.2638
    3SAPS   H7S  316   4.656   6.194   9.924  0.1818 -0.9715 -0.3263
    3SAPS   C28  317   4.474   6.111   9.834 -0.0707  0.1422  0.5736
    3SAPS   H8R  318   4.366   6.120   9.856 -0.4296 -1.0918 -0.5179
    3SAPS   C29  319   4.515   6.085   9.706  0.0254  0.2855 -0.1422
    3SAPS   H9R  320   4.445   6.066   9.623  0.5844  1.4205 -0.8950
    3SAPS  C210  321   4.657   6.091   9.661 -0.1948 -0.7262 -0.2189
    3SAPS  H10R  322   4.726   6.093   9.748  1.3735 -2.1205 -1.3693
    3SAPS  H10S  323   4.662   6.191   9.612  0.0059 -1.2203 -1.2367
    3SAPS  C211  324   4.694   5.972   9.572  0.0907 -0.1412  0.6976
    3SAPS  H11R  325   4.659   5.871   9.598 -1.4163  0.0961 -0.2810
    3SAPS  C212  326   4.776   5.965   9.466  0.0691  0.3583  0.0199
    3SAPS  H12R  327   4.809   5.866   9.432  1.0678  0.1404  1.5169
    3SAPS  C213  328   4.855   6.094   9.409 -0.0302  0.1988 -0.0286
    3SAPS  H13R  329   4.894   6.151   9.496 -1.3819  0.0480  0.6996
    3SAPS  H13S  330   4.794   6.159   9.343 -1.5527 -2.0835 -1.0227
    3SAPS  C214  331   4.974   6.050   9.324  0.1764 -0.0081 -0.4789
    3SAPS  H14R  332   5.060   6.021   9.386  0.3008 -0.7849 -0.9967
    3SAPS  C215  333   4.970   6.025   9.193  0.0948  0.8124  0.0635
    3SAPS  H15R  334   5.065   5.996   9.147  0.4156 -1.2944  1.8958
    3SAPS  C216  335   4.853   6.031   9.110 -0.0285  0.4451  0.2920
    3SAPS  H16R  336   4.753   6.019   9.158 -0.1725  0.3094 -0.0344
    3SAPS  H16S  337   4.866   5.949   9.036 -0.2269  1.4278 -0.8720
    3SAPS  C217  338   4.860   6.161   9.015  0.1733  0.2440 -0.1747
    3SAPS  H17R  339   4.852   6.252   9.077 -0.1990  0.6842 -0.8531
    3SAPS  H17S  340   4.771   6.168   8.948 -1.2278 -2.0958  1.2869
    3SAPS  C218  341   4.990   6.177   8.934 -0.6698 -0.1210  0.0293
    3SAPS  H18R  342   5.026   6.072   8.923 -0.7521 -0.3154  1.3812
    3SAPS  H18S  343   5.059   6.235   8.999 -2.4457  1.7530  0.3507
    3SAPS  C219  344   4.973   6.239   8.795 -0.0184 -0.1767  0.5230
    3SAPS  H19R  345   4.917   6.335   8.803  0.1041 -0.2483  3.1236
    3SAPS  H19S  346   4.906   6.179   8.731  0.3071  0.0740 -0.0573
    3SAPS  C220  347   5.108   6.260   8.718 -0.0472 -0.0298  0.7539
    3SAPS  H20R  348   5.172   6.319   8.786 -2.6520  1.6061  1.9262
    3SAPS  H20S  349   5.087   6.308   8.620 -0.3928 -2.0778 -0.2344
    3SAPS  H20T  350   5.163   6.168   8.687 -0.7736  0.1757 -1.2992
    3SAPS   C33  351   4.702   5.557   9.968 -0.1618  0.0611  0.0071
    3SAPS   H3X  352   4.594   5.535   9.980 -0.0594 -1.7915 -1.8462
    3SAPS   H3Y  353   4.754   5.460   9.981  0.0831  0.1741 -0.1287
    3SAPS   C34  354   4.715   5.601   9.824 -0.6478  0.1884 -0.0073
    3SAPS   H4X  355   4.818   5.631   9.796 -0.2700 -1.3752 -0.3920
    3SAPS   H4Y  356   4.648   5.685   9.797 -2.1500 -0.2472  2.0439
    3SAPS   C35  357   4.687   5.483   9.717 -0.0801  0.0273 -0.1374
    3SAPS   H5X  358   4.582   5.452   9.730  0.0177  0.6261  2.6801
    3SAPS   H5Y  359   4.742   5.389   9.736 -0.9847 -0.9196 -1.9524
    3SAPS   C36  360   4.728   5.510   9.571 -0.7795 -1.2878 -0.2700
    3SAPS   H6X  361   4.838   5.524   9.568 -1.1697  2.3803 -1.2090
    3SAPS   H6Y  362   4.678   5.603   9.537  2.1926  0.6549  0.3178
    3SAPS   C37  363   4.689   5.395   9.477  0.0209  0.5072 -0.2971
    3SAPS   H7X  364   4.578   5.397   9.476 -0.0157 -0.1963  0.7481
    3SAPS   H7Y  365   4.716   5.293   9.512  0.0128  0.3802 -0.6556
    3SAPS   C38  366   4.739   5.407   9.330 -0.7093 -0.1247  0.3084
    3SAPS   H8X  367   4.850   5.404   9.331 -0.7067 -0.6186 -0.2933
    3SAPS   H8Y  368   4.704   5.500   9.281 -1.9305 -1.7508 -2.1265
    3SAPS   C39  369   4.664   5.298   9.246 -0.2631  1.1202 -0.6013
    3SAPS   H9X  370   4.556   5.321   9.234 -0.6769 -0.1432  0.5135
    3SAPS   H9Y  371   4.670   5.201   9.298 -0.1910  1.9754  1.0514
    3SAPS  C310  372   4.715   5.280   9.093  0.4051 -0.8817 -0.1446
    3SAPS  H10X  373   4.731   5.380   9.047 -0.7048 -0.9729 -0.7578
    3SAPS  H10Y  374   4.629   5.234   9.041 -0.6453  0.4263  0.3767
    3SAPS  C311  375   4.834   5.185   9.085 -0.6537 -1.0782  0.2448
    3SAPS  H11X  376   4.898   5.211   9.172 -1.2641  0.3821  0.2860
    3SAPS  H11Y  377   4.885   5.220   8.993 -1.0806 -0.9451  0.0580
    3SAPS  C312  378   4.825   5.037   9.048  0.3435 -0.3196 -0.2305
    3SAPS  H12X  379   4.739   4.993   9.103 -1.6809  4.4503  0.9150
    3SAPS  H12Y  380   4.918   4.984   9.079 -0.6220 -0.7027  2.2637
    3SAPS  C313  381   4.794   5.013   8.905 -0.6647 -0.6213 -0.4849
    3SAPS  H13X  382   4.871   5.054   8.836 -1.6128  2.1035 -0.0515
    3SAPS  H13Y  383   4.697   5.062   8.883 -0.7126 -0.4250  0.1355
    3SAPS  C314  384   4.761   4.863   8.870 -0.5103 -0.0377 -0.7632
    3SAPS  H14X  385   4.714   4.859   8.770 -3.7919  3.8342  0.3677
    3SAPS  H14Y  386   4.682   4.827   8.940  0.4451  0.5270  0.6726
    3SAPS  C315  387   4.888   4.777   8.871 -0.1085  0.1190 -0.0377
    3SAPS  H15X  388   4.924   4.773   8.976 -0.8275 -0.1828  0.1995
    3SAPS  H15Y  389   4.964   4.831   8.810  1.7842 -4.3497 -2.0557
    3SAPS  C316  390   4.879   4.630   8.826 -0.3583 -0.1901  0.3066
    3SAPS  H16X  391   4.844   4.626   8.721 -1.8195  2.9763  0.5483
    3SAPS  H16Y  392   4.799   4.573   8.879 -0.7580 -0.2034 -0.3029
    3SAPS  C317  393   5.013   4.565   8.847 -0.9473 -0.7410  0.0124
    3SAPS  H17X  394   5.032   4.578   8.956 -1.1445  0.1850 -0.0612
    3SAPS  H17Y  395   5.090   4.619   8.790 -2.4568 -1.0180 -2.4305
    3SAPS  C318  396   5.021   4.416   8.820 -0.0579 -0.2621  0.0851
    3SAPS  H18X  397   4.942   4.355   8.869 -0.3887 -0.2027 -0.3708
    3SAPS  H18Y  398   5.115   4.381   8.867  0.0682  1.5953  1.3578
    3SAPS  H18Z  399   5.041   4.393   8.714 -0.9411 -0.8433  0.0312
    4SAPS     N  400   5.435   5.838  10.836 -1.3003  0.2637  0.0753
    4SAPS   HN1  401   5.472   5.759  10.894 -2.3840  0.8770  1.6863
    4SAPS   HN2  402   5.331   5.833  10.831 -1.4363  1.9667  0.7184
    4SAPS   HN3  403   5.473   5.836  10.739  1.3971  2.5970  0.9538
    4SAPS   C12  404   5.473   5.966  10.889  0.6818 -0.6756 -0.3804
    4SAPS  H12A  405   5.419   5.987  10.980 -1.7243 -0.4761 -1.7603
    4SAPS   C13  406   5.621   5.983  10.927 -0.1003 -0.1594 -0.7517
    4SAPS  O13A  407   5.696   5.881  10.907  0.9140 -0.0115 -0.3986
    4SAPS  O13B  408   5.670   6.085  10.981  0.2896 -0.4634  0.7855
    4SAPS   C11  409   5.447   6.084  10.791 -0.6008 -0.5356  0.1097
    4SAPS  H11A  410   5.527   6.088  10.714 -0.1572  0.3989  0.6051
    4SAPS  H11B  411   5.434   6.176  10.852 -2.3709 -1.2843  0.9308
    4SAPS     P  412   5.269   6.109  10.596 -0.2277  0.1830  0.0892
    4SAPS   O13  413   5.340   6.035  10.486  0.1093 -0.3577 -0.2974
    4SAPS   O14  414   5.122   6.106  10.604 -0.0567  0.1123 -0.2653
    4SAPS   O12  415   5.315   6.059  10.736  0.1079 -0.2148 -0.0293
    4SAPS   O11  416   5.331   6.254  10.596  0.0375 -0.3101 -0.4920
    4SAPS    C1  417   5.285   6.364  10.670  0.0974  0.2937 -0.2502
    4SAPS    HA  418   5.261   6.332  10.773 -0.6532 -1.0043 -0.8093
    4SAPS    HB  419   5.370   6.435  10.679  0.0771  0.4066 -0.8952
    4SAPS    C2  420   5.163   6.430  10.601  0.9084  0.3044  1.0412
    4SAPS    HS  421   5.077   6.366  10.628  0.2906  0.3898 -0.6290
    4SAPS   O21  422   5.186   6.439  10.458 -0.4677 -0.0706  0.2215
    4SAPS   C21  423   5.079   6.409  10.387 -0.3008 -0.1143 -0.4508
    4SAPS   O22  424   4.975   6.372  10.435  0.1769  0.1646  0.6600
    4SAPS   C22  425   5.115   6.410  10.239 -0.3892  0.4901  0.0174
    4SAPS   H2R  426   5.155   6.510  10.210 -1.2581  0.9116  0.2189
    4SAPS   H2S  427   5.197   6.339  10.217 -1.3769 -0.0905 -2.0957
    4SAPS    C3  428   5.135   6.568  10.658 -0.4203 -0.0083 -0.5710
    4SAPS    HX  429   5.225   6.630  10.639 -0.2922  0.2370  0.7200
    4SAPS    HY  430   5.125   6.560  10.769 -2.9965 -1.6932 -0.8272
    4SAPS   O31  431   5.021   6.634  10.602  0.7511  0.3770  0.3789
    4SAPS   C31  432   4.901   6.594  10.652  0.1434 -0.1677 -0.0066
    4SAPS   O32  433   4.886   6.499  10.724  0.5151 -0.0979  0.0920
    4SAPS   C32  434   4.797   6.668  10.565  0.1351 -0.0502 -0.1238
    4SAPS   H2X  435   4.828   6.639  10.462  1.2665 -1.1807  0.5103
    4SAPS   H2Y  436   4.805   6.777  10.586 -1.2829  0.1186 -0.3626
    4SAPS   C23  437   4.992   6.374  10.143 -0.1327  0.1458 -0.0772
    4SAPS   H3R  438   4.892   6.412  10.173 -1.6738  0.1806 -4.4326
    4SAPS   H3S  439   4.983   6.263  10.144 -0.8091  0.1777  2.0042
    4SAPS   C24  440   5.023   6.427   9.998  0.6767  0.3179  0.1719
    4SAPS   H4R  441   5.124   6.390   9.971 -0.4398 -1.4498 -1.9364
    4SAPS   H4S  442   5.028   6.538   9.999 -2.4640  0.5606  0.0054
    4SAPS   C25  443   4.920   6.393   9.895  0.0418 -0.0298 -0.4795
    4SAPS   H5R  444   4.816   6.412   9.926  0.5906 -0.1233  1.5571
    4SAPS   C26  445   4.954   6.334   9.779 -0.2287  0.6132  0.4266
    4SAPS   H6R  446   4.873   6.293   9.717 -0.1652 -2.5197  2.2319
    4SAPS   C27  447   5.086   6.290   9.724 -0.0178 -0.0499  0.5589
    4SAPS   H7R  448   5.161   6.361   9.767 -0.3199  0.8524 -0.3394
    4SAPS   H7S  449   5.099   6.317   9.616 -0.8272  0.6639  0.6297
    4SAPS   C28  450   5.143   6.159   9.770 -0.5021 -0.2377  0.4475
    4SAPS   H8R  451   5.129   6.133   9.876  2.0853 -0.8968  0.6990
    4SAPS   C29  452   5.231   6.087   9.705  0.3743  0.2088  0.6086
    4SAPS   H9R  453   5.276   5.995   9.744 -4.3415 -3.3076 -1.3245
    4SAPS  C210  454   5.288   6.118   9.566 -0.6351 -0.9144 -0.3848
    4SAPS  H10R  455   5.212   6.166   9.500 -1.3836  1.4701  2.0400
    4SAPS  H10S  456   5.323   6.027   9.513  2.2306 -0.7457  1.0459
    4SAPS  C211  457   5.411   6.202   9.557  0.2385  0.5967  0.1050
    4SAPS  H11R  458   5.426   6.262   9.648  3.0082 -2.8077  2.1336
    4SAPS  C212  459   5.509   6.213   9.464  0.1359  1.1381 -0.8870
    4SAPS  H12R  460   5.595   6.278   9.486  0.7658 -0.5072  1.9944
    4SAPS  C213  461   5.530   6.122   9.347  0.3148  0.3366  0.2287
    4SAPS  H13R  462   5.487   6.020   9.362  0.2631  0.4466  0.8741
    4SAPS  H13S  463   5.637   6.114   9.319  0.8246  0.9113  1.9055
    4SAPS  C214  464   5.453   6.179   9.235 -0.0018  0.2616  0.0825
    4SAPS  H14R  465   5.464   6.287   9.221 -0.2462  0.3212  0.3381
    4SAPS  C215  466   5.391   6.110   9.132  0.1761  0.0910 -0.5727
    4SAPS  H15R  467   5.345   6.165   9.049  0.9865 -0.1575 -1.1993
    4SAPS  C216  468   5.374   5.964   9.121  0.5001 -0.4277  0.2370
    4SAPS  H16R  469   5.265   5.941   9.126  0.2322  0.1506 -2.0643
    4SAPS  H16S  470   5.424   5.913   9.206  2.2994  2.7327  1.2305
    4SAPS  C217  471   5.434   5.908   8.991  0.7046 -0.5107  0.0038
    4SAPS  H17R  472   5.423   5.798   8.994  1.6111 -0.7223 -2.4524
    4SAPS  H17S  473   5.542   5.928   9.008  0.8356 -0.8057 -0.4735
    4SAPS  C218  474   5.378   5.964   8.864  0.4174 -0.9663 -0.3097
    4SAPS  H18R  475   5.357   6.073   8.868 -3.7502 -1.5740 -1.0761
    4SAPS  H18S  476   5.279   5.922   8.838 -0.4690  0.7090  0.2244
    4SAPS  C219  477   5.479   5.956   8.747 -0.2635  0.2667  0.3222
    4SAPS  H19R  478   5.500   5.851   8.720  1.6763  0.5512  0.5550
    4SAPS  H19S  479   5.576   6.001   8.778  0.2020  0.4608 -1.3222
    4SAPS  C220  480   5.426   6.039   8.622 -0.1107 -0.5693  0.2403
    4SAPS  H20R  481   5.332   5.996   8.580 -1.1063  2.8654 -1.3470
    4SAPS  H20S  482   5.501   6.023   8.541 -0.1699 -4.2952  0.7064
    4SAPS  H20T  483   5.407   6.147   8.636 -0.2475 -0.5297 -0.2190
    4SAPS   C33  484   4.651   6.615  10.601  0.3213  0.8830  1.4719
    4SAPS   H3X  485   4.624   6.623  10.709 -0.1254  1.6483  1.3131
    4SAPS   H3Y  486   4.636   6.510  10.567 -1.4818  1.2986  0.8781
    4SAPS   C34  487   4.541   6.705  10.528 -0.5996  0.5046 -0.1289
    4SAPS   H4X  488   4.548   6.807  10.573 -0.2288  0.9320 -1.1457
    4SAPS   H4Y  489   4.443   6.664  10.560 -0.1229  0.8094  1.8559
    4SAPS   C35  490   4.559   6.711  10.369  0.0222  0.1386 -0.7776
    4SAPS   H5X  491   4.659   6.750  10.341 -0.7393  5.1602  2.1651
    4SAPS   H5Y  492   4.488   6.791  10.339  1.0848  0.3385 -2.8918
    4SAPS   C36  493   4.535   6.572  10.309 -0.0722  0.0646  0.0781
    4SAPS   H6X  494   4.456   6.519  10.367  0.5112  0.8113  1.6179
    4SAPS   H6Y  495   4.623   6.505  10.319 -0.5117 -0.5094  0.1338
    4SAPS   C37  496   4.501   6.595  10.160  0.0128 -0.1118  0.1238
    4SAPS   H7X  497   4.422   6.672  10.153 -1.9888 -1.6298  3.5572
    4SAPS   H7Y  498   4.449   6.505  10.121  1.4312 -0.4203 -1.1484
    4SAPS   C38  499   4.620   6.623  10.067 -0.6940 -0.2454  0.1578
    4SAPS   H8X  500   4.695   6.541  10.072  0.9694  1.0831 -1.2746
    4SAPS   H8Y  501   4.674   6.709  10.113 -0.5799  0.9493 -2.0541
    4SAPS   C39  502   4.581   6.646   9.921  0.2372 -0.1499 -0.0365
    4SAPS   H9X  503   4.665   6.683   9.859  2.1276 -0.4644  2.1930
    4SAPS   H9Y  504   4.506   6.728   9.920 -0.7160 -0.8302  3.1864
    4SAPS  C310  505   4.529   6.520   9.860 -0.2913 -0.1137  0.2704
    4SAPS  H10X  506   4.424   6.498   9.890 -0.3577 -2.6488 -1.5052
    4SAPS  H10Y  507   4.593   6.437   9.897 -0.3955  0.1062  0.9594
    4SAPS  C311  508   4.518   6.524   9.700 -0.4098  0.4044 -0.0229
    4SAPS  H11X  509   4.468   6.615   9.661 -0.2470  1.1093  1.3502
    4SAPS  H11Y  510   4.442   6.456   9.655 -1.5699  1.0899  0.8453
    4SAPS  C312  511   4.662   6.498   9.643 -0.4896  1.0862  0.0266
    4SAPS  H12X  512   4.694   6.396   9.673 -1.8696  0.7992  0.5670
    4SAPS  H12Y  513   4.739   6.560   9.695  0.0277 -1.2268  2.1982
    4SAPS  C313  514   4.674   6.522   9.492 -0.1112 -0.3765 -0.4160
    4SAPS  H13X  515   4.676   6.633   9.486  0.4172 -0.2299  1.6944
    4SAPS  H13Y  516   4.587   6.481   9.436 -0.1758  3.1670 -3.3323
    4SAPS  C314  517   4.805   6.484   9.428  0.2344  0.4229  0.0573
    4SAPS  H14X  518   4.827   6.377   9.446  1.0376  0.7772  1.2895
    4SAPS  H14Y  519   4.887   6.548   9.465  2.3524 -0.2963 -2.9862
    4SAPS  C315  520   4.797   6.511   9.279  0.3733  0.3317 -0.2873
    4SAPS  H15X  521   4.768   6.617   9.265  1.6387  0.5554 -1.4848
    4SAPS  H15Y  522   4.730   6.443   9.223  1.3173 -1.4540  0.6597
    4SAPS  C316  523   4.938   6.497   9.213  0.4095 -0.1284  0.3332
    4SAPS  H16X  524   4.948   6.386   9.209  1.9940 -0.0335  0.9014
    4SAPS  H16Y  525   5.020   6.541   9.273 -0.4203 -0.2406  1.5949
    4SAPS  C317  526   4.942   6.550   9.068 -0.5563 -0.2561  0.7691
    4SAPS  H17X  527   4.938   6.661   9.065 -2.1777 -0.2708  1.1508
    4SAPS  H17Y  528   4.861   6.519   8.999  0.7243 -2.4244  0.1605
    4SAPS  C318  529   5.063   6.507   8.993  0.0075 -0.2658 -0.5171
    4SAPS  H18X  530   5.032   6.489   8.888 -1.2759  0.9774 -0.3786
    4SAPS  H18Y  531   5.107   6.413   9.033  0.5431  0.8010  1.5536
    4SAPS  H18Z  532   5.143   6.585   8.991  0.5893 -0.6342  2.9971
    5SAPS     N  533   2.901   6.503  11.061 -0.1326 -0.0569  0.6489
    5SAPS   HN1  534   2.837   6.460  11.130  0.8026 -0.7857  1.0816
    5SAPS   HN2  535   2.999   6.482  11.087  0.3751  0.3142 -0.8395
    5SAPS   HN3  536   2.887   6.606  11.048  3.7246  0.5185 -0.3089
    5SAPS   C12  537   2.897   6.439  10.931 -0.4893 -0.3457  0.2803
    5SAPS  H12A  538   2.971   6.480  10.864 -0.6093  1.2175  1.0564
    5SAPS   C13  539   2.923   6.295  10.939  0.9179  0.2425  0.0618
    5SAPS  O13A  540   2.984   6.233  11.035 -0.4759 -0.4256 -0.0331
    5SAPS  O13B  541   2.903   6.231  10.831  0.0770  0.2946 -0.2588
    5SAPS   C11  542   2.755   6.478  10.870  0.2094  0.1974  0.1734
    5SAPS  H11A  543   2.675   6.422  10.924  0.5189  0.0922  0.5316
    5SAPS  H11B  544   2.757   6.450  10.763  2.1811 -1.8446  0.6671
    5SAPS     P  545   2.595   6.688  10.819 -0.0299 -0.0653 -0.3375
    5SAPS   O13  546   2.476   6.656  10.899 -0.2848  0.3270  0.0081
    5SAPS   O14  547   2.631   6.833  10.814  0.0461  0.0390 -0.2262
    5SAPS   O12  548   2.724   6.621  10.877 -0.5656 -0.1467 -0.2228
    5SAPS   O11  549   2.581   6.622  10.674  0.4441  0.7441 -0.0575
    5SAPS    C1  550   2.672   6.661  10.577  0.3560 -0.5798  0.5656
    5SAPS    HA  551   2.700   6.768  10.569  2.4620 -1.0401  1.0241
    5SAPS    HB  552   2.773   6.617  10.596  0.2987 -1.6424 -1.3151
    5SAPS    C2  553   2.630   6.613  10.427  0.2707  0.3947 -0.1322
    5SAPS    HS  554   2.520   6.606  10.419  0.0244  0.6970  2.2367
    5SAPS   O21  555   2.703   6.495  10.401  0.5195 -0.0834  0.1014
    5SAPS   C21  556   2.654   6.385  10.454 -0.2100 -0.5824  0.1898
    5SAPS   O22  557   2.549   6.374  10.513  0.5969  0.9331 -0.3295
    5SAPS   C22  558   2.744   6.272  10.411 -0.6794 -0.2584  0.2117
    5SAPS   H2R  559   2.835   6.319  10.367  1.3030 -3.6770  0.2876
    5SAPS   H2S  560   2.783   6.211  10.495 -0.7010 -0.2627  0.2180
    5SAPS    C3  561   2.664   6.713  10.311  0.5451 -0.7974 -0.3450
    5SAPS    HX  562   2.773   6.728  10.327  0.2465 -1.3302  2.7946
    5SAPS    HY  563   2.613   6.809  10.331  0.6913 -0.9723  0.9221
    5SAPS   O31  564   2.619   6.671  10.180  0.5409 -0.4020  0.4040
    5SAPS   C31  565   2.711   6.596  10.121 -0.6048  0.2021  0.4738
    5SAPS   O32  566   2.826   6.592  10.145 -0.5868  0.1966  0.0250
    5SAPS   C32  567   2.642   6.495  10.024  0.0910  0.0459  0.0758
    5SAPS   H2X  568   2.576   6.553   9.956  1.4645  0.0865 -1.2834
    5SAPS   H2Y  569   2.580   6.420  10.078 -0.6995  1.5790  1.3866
    5SAPS   C23  570   2.679   6.196  10.298 -0.5205  0.6076 -0.2226
    5SAPS   H3R  571   2.654   6.265  10.215 -0.3480  2.3916  1.1327
    5SAPS   H3S  572   2.590   6.152  10.347 -0.0903  1.9127  1.8578
    5SAPS   C24  573   2.764   6.077  10.247 -0.2133  0.5496  0.5170
    5SAPS   H4R  574   2.692   6.013  10.193 -1.1202 -0.6964  3.0138
    5SAPS   H4S  575   2.801   6.014  10.331 -3.7846 -1.1072  1.0383
    5SAPS   C25  576   2.878   6.132  10.164 -0.0458 -0.0843  0.5683
    5SAPS   H5R  577   2.927   6.215  10.216  0.1704  1.2429 -1.6540
    5SAPS   C26  578   2.913   6.096  10.042 -1.1416  0.3983  0.0960
    5SAPS   H6R  579   3.011   6.123  10.000 -0.9135 -0.9016 -0.2395
    5SAPS   C27  580   2.848   5.980   9.963  0.1431 -1.2218  0.1622
    5SAPS   H7R  581   2.775   6.035   9.900 -0.3562  1.8144  3.1190
    5SAPS   H7S  582   2.803   5.907  10.034 -0.7555 -0.1751  0.6972
    5SAPS   C28  583   2.955   5.919   9.873  0.3210 -0.5571 -0.1113
    5SAPS   H8R  584   3.047   5.894   9.928  1.5259 -1.2037 -2.3186
    5SAPS   C29  585   2.941   5.889   9.743 -0.2237 -0.2559  0.1699
    5SAPS   H9R  586   3.030   5.846   9.696 -1.3855 -2.8619  0.1782
    5SAPS  C210  587   2.820   5.911   9.655  0.4929  0.1606 -0.3462
    5SAPS  H10R  588   2.734   5.863   9.707  1.1218 -0.7430 -0.1137
    5SAPS  H10S  589   2.835   5.856   9.560 -1.0074  1.3653 -1.3302
    5SAPS  C211  590   2.769   6.051   9.612 -0.2625  0.0571  0.0957
    5SAPS  H11R  591   2.759   6.120   9.696  3.1493 -0.9061  1.4586
    5SAPS  C212  592   2.723   6.089   9.490  1.0892 -0.2404 -0.3152
    5SAPS  H12R  593   2.693   6.195   9.491  1.3669 -0.1423  1.6541
    5SAPS  C213  594   2.710   6.000   9.363  0.2244 -0.2392 -0.0745
    5SAPS  H13R  595   2.603   6.002   9.331  0.8815  0.0002 -2.4530
    5SAPS  H13S  596   2.715   5.893   9.395 -0.1677 -0.3638 -0.4110
    5SAPS  C214  597   2.787   6.042   9.244  0.5244  0.4058  0.1339
    5SAPS  H14R  598   2.875   6.102   9.272  0.7312  0.4467 -0.5904
    5SAPS  C215  599   2.760   6.012   9.117  1.0913 -0.8436 -0.5718
    5SAPS  H15R  600   2.831   6.055   9.045  0.2630  1.5773 -0.0092
    5SAPS  C216  601   2.641   5.932   9.057  0.6395  0.3162 -0.1080
    5SAPS  H16R  602   2.567   5.915   9.138  0.6882  0.6383  0.0055
    5SAPS  H16S  603   2.661   5.835   9.008  0.6089 -0.1583  0.7996
    5SAPS  C217  604   2.559   6.024   8.957  0.5721 -0.1811  0.0075
    5SAPS  H17R  605   2.609   6.034   8.858  0.2387 -0.0083 -0.1473
    5SAPS  H17S  606   2.550   6.119   9.013  1.3820  0.8429 -1.5237
    5SAPS  C218  607   2.411   5.977   8.932  0.5007  0.7324  0.0655
    5SAPS  H18R  608   2.420   5.891   8.862 -1.8965  0.6021 -0.1554
    5SAPS  H18S  609   2.362   5.940   9.024 -0.0876  2.5138  0.5091
    5SAPS  C219  610   2.322   6.077   8.860  0.0069 -0.0948  0.5171
    5SAPS  H19R  611   2.387   6.128   8.786 -2.0806  0.2401 -1.1636
    5SAPS  H19S  612   2.290   6.157   8.930  3.0046  1.9388 -0.2409
    5SAPS  C220  613   2.217   5.999   8.782 -0.1122  0.1847 -0.3244
    5SAPS  H20R  614   2.260   5.925   8.712 -1.5615  2.6514 -4.1297
    5SAPS  H20S  615   2.174   6.085   8.727 -1.1336  0.1731  0.4269
    5SAPS  H20T  616   2.144   5.949   8.850  1.5855  0.1005  1.5343
    5SAPS   C33  617   2.752   6.422   9.944  0.1701 -0.0831 -0.0415
    5SAPS   H3X  618   2.809   6.352  10.009  2.6099 -0.4987 -2.4690
    5SAPS   H3Y  619   2.832   6.482   9.896  1.4166 -2.0210 -0.4653
    5SAPS   C34  620   2.681   6.346   9.828 -0.2282  0.6457  1.0910
    5SAPS   H4X  621   2.596   6.288   9.868 -0.9780  0.2205 -0.9774
    5SAPS   H4Y  622   2.756   6.271   9.795  0.0582  0.9890  0.9601
    5SAPS   C35  623   2.634   6.422   9.705  0.4837 -0.1525  0.1141
    5SAPS   H5X  624   2.558   6.488   9.753 -0.9272 -1.0242 -0.8218
    5SAPS   H5Y  625   2.576   6.366   9.629  0.2738 -2.6285  1.9754
    5SAPS   C36  626   2.742   6.503   9.632  0.0900 -0.2872 -0.3342
    5SAPS   H6X  627   2.839   6.451   9.617  1.2223  1.9364 -1.1200
    5SAPS   H6Y  628   2.764   6.588   9.700 -1.3021 -0.2907  0.1721
    5SAPS   C37  629   2.689   6.576   9.509  0.2857 -0.4396 -0.0558
    5SAPS   H7X  630   2.758   6.659   9.485  0.8944 -1.1036 -0.6698
    5SAPS   H7Y  631   2.584   6.603   9.535 -0.3864 -3.1575  0.3711
    5SAPS   C38  632   2.691   6.491   9.374 -0.4913  0.9133  0.1306
    5SAPS   H8X  633   2.620   6.406   9.375  0.0705  0.4441  0.7150
    5SAPS   H8Y  634   2.791   6.452   9.347 -0.4277  2.6135 -2.4503
    5SAPS   C39  635   2.651   6.571   9.250  0.7142 -0.3996  0.2306
    5SAPS   H9X  636   2.711   6.665   9.248  0.6355 -0.3258 -2.9659
    5SAPS   H9Y  637   2.543   6.597   9.262 -0.3080 -3.1528 -1.9060
    5SAPS  C310  638   2.664   6.498   9.120 -0.5094  0.4045 -1.1059
    5SAPS  H10X  639   2.611   6.401   9.129 -0.3944  0.5697  2.7147
    5SAPS  H10Y  640   2.774   6.483   9.108  0.2311  1.8728  2.5860
    5SAPS  C311  641   2.609   6.569   9.003 -0.0565 -0.0773  0.1286
    5SAPS  H11X  642   2.662   6.664   8.981  0.1330 -0.2699 -0.2609
    5SAPS  H11Y  643   2.504   6.604   9.017 -0.1884 -0.8811  1.3151
    5SAPS  C312  644   2.612   6.489   8.878 -0.2061  0.4306 -0.7598
    5SAPS  H12X  645   2.581   6.383   8.888 -2.0527  1.0322  0.2842
    5SAPS  H12Y  646   2.718   6.487   8.843 -0.3070 -1.4359 -1.0535
    5SAPS  C313  647   2.519   6.557   8.778  0.6599 -0.6173  0.1331
    5SAPS  H13X  648   2.542   6.665   8.789 -1.7826  0.1435 -1.5397
    5SAPS  H13Y  649   2.412   6.530   8.795  0.4139 -0.6969 -1.3860
    5SAPS  C314  650   2.559   6.513   8.637 -0.7980 -0.4640  0.2636
    5SAPS  H14X  651   2.487   6.541   8.557  2.4551 -0.5912 -3.0282
    5SAPS  H14Y  652   2.576   6.404   8.633  0.7201 -0.2205 -1.5598
    5SAPS  C315  653   2.698   6.561   8.596  0.2229 -0.4149 -0.2896
    5SAPS  H15X  654   2.776   6.523   8.666 -0.0447 -3.1357 -1.3293
    5SAPS  H15Y  655   2.703   6.672   8.590 -0.1888 -0.4592 -1.9972
    5SAPS  C316  656   2.726   6.521   8.452  0.6550 -0.1936 -0.0527
    5SAPS  H16X  657   2.646   6.547   8.379  1.6099  3.7522  0.0517
    5SAPS  H16Y  658   2.730   6.410   8.460  1.1600 -0.1020  1.2635
    5SAPS  C317  659   2.865   6.579   8.407  0.5693  0.6843 -0.1586
    5SAPS  H17X  660   2.941   6.570   8.487  0.9931  0.2236 -0.6105
    5SAPS  H17Y  661   2.854   6.689   8.392 -1.1007  0.4790 -0.6917
    5SAPS  C318  662   2.926   6.515   8.281  0.3257  0.0596 -0.7993
    5SAPS  H18X  663   3.024   6.465   8.291  1.0094  1.3963 -0.5920
    5SAPS  H18Y  664   2.933   6.592   8.201  0.4228 -0.1500 -0.9932
    5SAPS  H18Z  665   2.858   6.433   8.251  0.6547 -0.5359  0.0672
    6SAPS     N  666   2.311   5.792  11.004 -0.7362 -0.6132 -0.6625
    6SAPS   HN1  667   2.280   5.848  11.086  1.1793 -0.5477  0.0480
    6SAPS   HN2  668   2.415   5.795  11.004 -0.6727 -0.1213  2.0088
    6SAPS   HN3  669   2.271   5.830  10.916 -1.1686  0.0164 -0.1990
    6SAPS   C12  670   2.271   5.652  11.031 -0.0618  0.1747 -0.0382
    6SAPS  H12A  671   2.361   5.593  11.042  0.3998  0.8744 -0.0617
    6SAPS   C13  672   2.199   5.642  11.168  0.6775 -0.6213  0.7601
    6SAPS  O13A  673   2.191   5.743  11.242 -0.1041 -0.4313 -0.5857
    6SAPS  O13B  674   2.151   5.532  11.211 -0.0215  0.0639 -0.1820
    6SAPS   C11  675   2.195   5.602  10.906  0.8253  0.2612 -0.7841
    6SAPS  H11A  676   2.160   5.500  10.932  2.5462  0.4018  2.5413
    6SAPS  H11B  677   2.254   5.606  10.812  1.3221  0.6382 -0.4643
    6SAPS     P  678   1.936   5.622  10.823  0.1258 -0.4019 -0.0890
    6SAPS   O13  679   1.958   5.471  10.821  0.2039 -0.1201 -0.4469
    6SAPS   O14  680   1.830   5.674  10.913  0.1492 -1.0614 -0.2430
    6SAPS   O12  681   2.069   5.679  10.887  0.3799  0.2386 -0.2879
    6SAPS   O11  682   1.924   5.682  10.674  0.1183 -0.2571 -0.1842
    6SAPS    C1  683   2.023   5.645  10.582 -0.1892  0.2658  0.6637
    6SAPS    HA  684   2.096   5.726  10.561 -0.2624 -0.0675 -0.9975
    6SAPS    HB  685   2.071   5.548  10.609 -2.8237 -1.9148 -1.8408
    6SAPS    C2  686   1.956   5.624  10.446 -0.9914  0.3117  0.3885
    6SAPS    HS  687   2.035   5.568  10.392 -0.0527  0.8546  1.1623
    6SAPS   O21  688   1.927   5.753  10.401 -0.6659  0.6775  0.1196
    6SAPS   C21  689   1.995   5.792  10.289  0.0623  0.0476  0.3476
    6SAPS   O22  690   2.083   5.732  10.231  0.2373 -0.0527  0.0623
    6SAPS   C22  691   1.937   5.924  10.238  0.3645  0.0467  0.0876
    6SAPS   H2R  692   1.827   5.907  10.238  0.2989  0.4639  0.1849
    6SAPS   H2S  693   1.971   6.007  10.304  2.1950  2.3474 -3.4745
    6SAPS    C3  694   1.822   5.535  10.446  0.4308  0.2983  0.0688
    6SAPS    HX  695   1.745   5.575  10.515 -1.7855  0.7352 -2.4765
    6SAPS    HY  696   1.838   5.439  10.501 -1.5361  0.6339  1.3029
    6SAPS   O31  697   1.773   5.518  10.311  0.0652  0.5110  0.5099
    6SAPS   C31  698   1.660   5.440  10.303 -0.2698 -0.1131  0.3532
    6SAPS   O32  699   1.599   5.395  10.395 -0.3705 -0.0562 -1.1026
    6SAPS   C32  700   1.616   5.438  10.154  0.1853  0.4557 -0.1929
    6SAPS   H2X  701   1.701   5.416  10.086 -0.4734 -0.8744 -0.6208
    6SAPS   H2Y  702   1.581   5.539  10.122 -0.6559  0.4769  0.7444
    6SAPS   C23  703   1.985   5.974  10.104 -0.3213 -0.4523  0.4177
    6SAPS   H3R  704   2.094   5.990  10.118 -0.2732 -0.1678 -0.2551
    6SAPS   H3S  705   1.945   6.076  10.086 -1.7597 -0.7479  1.7384
    6SAPS   C24  706   1.975   5.888   9.978 -0.1836  0.6805  0.5415
    6SAPS   H4R  707   2.044   5.802   9.985  1.3929  1.7886 -0.6769
    6SAPS   H4S  708   2.019   5.944   9.893  0.8576  0.5288  0.9721
    6SAPS   C25  709   1.832   5.834   9.969 -0.7404 -0.2681  0.6525
    6SAPS   H5R  710   1.790   5.785  10.058 -1.8433 -0.2531  0.1577
    6SAPS   C26  711   1.745   5.836   9.864 -1.2123 -0.0368 -0.3519
    6SAPS   H6R  712   1.653   5.777   9.878 -0.4712 -1.4423 -1.0859
    6SAPS   C27  713   1.773   5.895   9.730  0.0968 -0.3228 -0.4148
    6SAPS   H7R  714   1.855   5.970   9.741 -0.3987  0.0927  0.5623
    6SAPS   H7S  715   1.686   5.957   9.698 -0.2051  0.0149  1.0043
    6SAPS   C28  716   1.804   5.794   9.625  0.2534  0.1650  0.4800
    6SAPS   H8R  717   1.793   5.686   9.644 -0.1075 -0.2376 -1.7709
    6SAPS   C29  718   1.867   5.817   9.507 -0.0386 -0.4452 -0.3941
    6SAPS   H9R  719   1.884   5.739   9.431 -0.4000 -1.7835  0.8703
    6SAPS  C210  720   1.906   5.960   9.472  0.5018  0.0377 -0.3325
    6SAPS  H10R  721   2.002   5.968   9.528  0.4640 -0.3105 -0.2161
    6SAPS  H10S  722   1.833   6.034   9.511 -0.7517 -1.4886  0.3136
    6SAPS  C211  723   1.932   5.991   9.326  0.0779  0.3999  0.2323
    6SAPS  H11R  724   1.849   6.050   9.285 -0.0843 -1.5515 -2.5866
    6SAPS  C212  725   2.044   5.958   9.254  0.2741 -0.0393 -0.6097
    6SAPS  H12R  726   2.064   6.005   9.157  0.7790 -0.2363 -0.6047
    6SAPS  C213  727   2.176   5.888   9.292 -0.3202 -0.2162 -0.3810
    6SAPS  H13R  728   2.218   5.846   9.198  2.3252 -1.4309  1.2256
    6SAPS  H13S  729   2.154   5.810   9.369  2.7629  1.4949  2.5145
    6SAPS  C214  730   2.271   5.987   9.362 -0.0811 -0.1304  0.7436
    6SAPS  H14R  731   2.271   6.091   9.326  4.6579 -1.0937 -3.0418
    6SAPS  C215  732   2.356   5.956   9.466  0.2274  0.0222 -0.1119
    6SAPS  H15R  733   2.418   6.037   9.507 -0.0740  0.9443 -1.4120
    6SAPS  C216  734   2.383   5.824   9.531 -0.8136  0.0821  0.3300
    6SAPS  H16R  735   2.490   5.803   9.552 -0.5789 -0.6702 -1.4610
    6SAPS  H16S  736   2.340   5.745   9.467 -0.0660  0.3946 -0.5786
    6SAPS  C217  737   2.320   5.820   9.678  0.2492  0.1879  0.1324
    6SAPS  H17R  738   2.336   5.715   9.712  0.8481  1.1749  3.2634
    6SAPS  H17S  739   2.211   5.842   9.672  0.2904 -0.0386 -2.2376
    6SAPS  C218  740   2.395   5.902   9.785 -0.0134  0.5384  0.1016
    6SAPS  H18R  741   2.377   6.004   9.745 -0.5942  0.5337  0.3378
    6SAPS  H18S  742   2.506   5.890   9.779  0.1712  1.2910  1.5374
    6SAPS  C219  743   2.348   5.874   9.929 -0.1224 -0.2300  0.6257
    6SAPS  H19R  744   2.357   5.764   9.945  1.5132 -0.2830 -0.3797
    6SAPS  H19S  745   2.240   5.896   9.934 -0.0331  0.3859  0.0904
    6SAPS  C220  746   2.427   5.956  10.034  0.1800 -0.7228 -0.3711
    6SAPS  H20R  747   2.525   5.917  10.069 -1.2720 -3.0261  1.4119
    6SAPS  H20S  748   2.370   5.951  10.129 -1.1742 -0.2143 -1.1284
    6SAPS  H20T  749   2.431   6.064  10.008 -0.8082 -0.4572  0.4712
    6SAPS   C33  750   1.504   5.331  10.131 -0.1458 -0.7719  0.2928
    6SAPS   H3X  751   1.411   5.352  10.189 -0.2562 -2.4152  0.7690
    6SAPS   H3Y  752   1.538   5.230  10.162 -0.5283 -1.5531 -1.6740
    6SAPS   C34  753   1.450   5.320   9.985 -0.0730  0.5501 -0.2849
    6SAPS   H4X  754   1.379   5.400   9.953  1.7740  1.8056 -1.4050
    6SAPS   H4Y  755   1.388   5.227   9.984 -0.9146  1.1032 -0.6415
    6SAPS   C35  756   1.560   5.315   9.890 -0.0016 -0.2880 -0.0232
    6SAPS   H5X  757   1.629   5.229   9.908 -0.6803 -1.0764 -1.0817
    6SAPS   H5Y  758   1.612   5.411   9.909 -1.6767  0.6651 -0.0966
    6SAPS   C36  759   1.509   5.328   9.743 -0.6299  0.4220 -0.7110
    6SAPS   H6X  760   1.448   5.421   9.742 -0.3478  0.6319  0.0578
    6SAPS   H6Y  761   1.445   5.243   9.714 -0.7024  0.0687  0.4367
    6SAPS   C37  762   1.631   5.334   9.649 -0.6007  0.1172 -0.7083
    6SAPS   H7X  763   1.693   5.243   9.659  2.4307  2.2031  1.6413
    6SAPS   H7Y  764   1.697   5.417   9.683  0.4245 -0.8782 -0.2316
    6SAPS   C38  765   1.577   5.339   9.505  0.2416  0.4285  0.0600
    6SAPS   H8X  766   1.494   5.412   9.491 -0.1992 -0.1029 -0.1079
    6SAPS   H8Y  767   1.540   5.237   9.484 -0.1217  0.3857  0.8718
    6SAPS   C39  768   1.681   5.383   9.397  0.1592 -0.1062 -0.7824
    6SAPS   H9X  769   1.772   5.325   9.419  0.2968 -0.8700 -3.1169
    6SAPS   H9Y  770   1.713   5.489   9.399  1.7545 -0.5736 -0.7182
    6SAPS  C310  771   1.645   5.335   9.257  0.6965 -0.0781 -0.3155
    6SAPS  H10X  772   1.547   5.377   9.223 -0.6608 -1.3576  1.8360
    6SAPS  H10Y  773   1.627   5.226   9.259  0.5737 -0.0988 -1.5684
    6SAPS  C311  774   1.751   5.362   9.156 -0.1085 -0.6033 -0.2653
    6SAPS  H11X  775   1.843   5.306   9.184 -0.1353 -1.0015 -0.9723
    6SAPS  H11Y  776   1.784   5.468   9.155 -1.2976 -0.2139 -0.0481
    6SAPS  C312  777   1.727   5.316   9.016 -0.1020 -0.0288  0.2011
    6SAPS  H12X  778   1.650   5.384   8.976 -0.7228 -2.1176 -2.4109
    6SAPS  H12Y  779   1.697   5.210   9.024  3.5121 -1.2457 -0.2371
    6SAPS  C313  780   1.842   5.342   8.916 -0.8457  0.1518 -0.3828
    6SAPS  H13X  781   1.925   5.270   8.930  0.7594  1.3306 -3.0202
    6SAPS  H13Y  782   1.881   5.444   8.934  0.5060 -0.5418  0.8386
    6SAPS  C314  783   1.803   5.348   8.771  0.2606 -0.6147  0.4849
    6SAPS  H14X  784   1.899   5.360   8.717 -0.1194  0.2950 -0.0123
    6SAPS  H14Y  785   1.737   5.436   8.756  0.7123 -0.0623  1.6332
    6SAPS  C315  786   1.735   5.220   8.731  0.8672 -0.1948 -0.2431
    6SAPS  H15X  787   1.637   5.213   8.783  0.6447  1.9799 -0.2673
    6SAPS  H15Y  788   1.796   5.132   8.758  1.9088 -0.6860 -3.6935
    6SAPS  C316  789   1.712   5.211   8.582 -0.1476 -0.4573 -0.4275
    6SAPS  H16X  790   1.653   5.303   8.559  0.4914 -0.5243 -2.4997
    6SAPS  H16Y  791   1.652   5.125   8.546  0.4475 -1.3613  0.6796
    6SAPS  C317  792   1.834   5.219   8.495  0.3584  0.3178  0.1351
    6SAPS  H17X  793   1.911   5.157   8.547 -0.3896  0.1391  1.0571
    6SAPS  H17Y  794   1.882   5.319   8.497  0.4758  0.2675 -0.1462
    6SAPS  C318  795   1.816   5.175   8.349  0.6749  0.4541  0.2944
    6SAPS  H18X  796   1.768   5.253   8.286 -0.1906 -0.2807  0.0125
    6SAPS  H18Y  797   1.759   5.079   8.341 -0.3921  1.1435 -0.7858
    6SAPS  H18Z  798   1.913   5.156   8.299  0.5834  0.6657  0.0369
    7SAPS     N  799   5.721   5.640  10.767 -0.2064 -0.7550  0.5399
    7SAPS   HN1  800   5.813   5.653  10.721 -0.3130  0.1089  0.5476
    7SAPS   HN2  801   5.650   5.630  10.692  0.6034 -1.4557 -0.1487
    7SAPS   HN3  802   5.702   5.728  10.820  1.0967 -1.1281  1.7039
    7SAPS   C12  803   5.724   5.540  10.877  0.2962 -1.1227  0.5223
    7SAPS  H12A  804   5.809   5.570  10.935  2.3201 -0.5274 -2.5334
    7SAPS   C13  805   5.606   5.534  10.971 -0.9092  0.4805 -0.8709
    7SAPS  O13A  806   5.500   5.601  10.960  0.7204 -0.0890 -0.4087
    7SAPS  O13B  807   5.629   5.466  11.074  0.5464  0.1866 -0.7325
    7SAPS   C11  808   5.727   5.401  10.817 -0.4196 -0.6146 -0.0869
    7SAPS  H11A  809   5.635   5.381  10.758 -0.9349  1.5286 -0.0934
    7SAPS  H11B  810   5.739   5.328  10.900  1.3682 -1.6395 -1.1891
    7SAPS     P  811   5.876   5.260  10.657  0.2596  0.1727 -0.2956
    7SAPS   O13  812   6.005   5.285  10.587  0.2363  0.1161  0.6344
    7SAPS   O14  813   5.872   5.150  10.754  0.3884  0.0564 -0.4356
    7SAPS   O12  814   5.847   5.388  10.737 -0.6379  0.1546 -0.0853
    7SAPS   O11  815   5.753   5.243  10.553 -0.3076 -0.0695  0.0177
    7SAPS    C1  816   5.716   5.368  10.492  0.6579  0.6549  0.0206
    7SAPS    HA  817   5.615   5.399  10.527  1.0919 -0.1017  2.0802
    7SAPS    HB  818   5.777   5.460  10.506 -0.2124  1.3013 -0.3499
    7SAPS    C2  819   5.696   5.353  10.338 -0.6209  0.4997 -0.6002
    7SAPS    HS  820   5.644   5.444  10.303  0.6456  1.3652 -0.2918
    7SAPS   O21  821   5.626   5.235  10.298  0.3763  0.0963  0.1041
    7SAPS   C21  822   5.501   5.234  10.324  0.2051  0.4636  0.2944
    7SAPS   O22  823   5.435   5.329  10.359 -0.5395  0.0996 -0.3303
    7SAPS   C22  824   5.449   5.101  10.265  0.0070 -0.9498  0.1371
    7SAPS   H2R  825   5.461   5.031  10.351  2.3279 -0.3295  0.3661
    7SAPS   H2S  826   5.339   5.104  10.250 -0.0274 -0.8864  0.3922
    7SAPS    C3  827   5.835   5.354  10.277 -0.3259  0.2377 -0.2632
    7SAPS    HX  828   5.896   5.274  10.324 -0.7342 -1.1093 -1.9046
    7SAPS    HY  829   5.899   5.437  10.313  0.4726 -0.7217  0.5619
    7SAPS   O31  830   5.829   5.348  10.136 -0.1476  0.0294 -0.2693
    7SAPS   C31  831   5.861   5.235  10.067  0.0071 -0.7220  0.0045
    7SAPS   O32  832   5.919   5.139  10.118 -0.5800 -0.6745  0.2129
    7SAPS   C32  833   5.851   5.258   9.907 -0.1638  0.5935 -0.3203
    7SAPS   H2X  834   5.926   5.339   9.894  1.7997 -1.4883 -3.3662
    7SAPS   H2Y  835   5.748   5.293   9.883 -0.8589 -0.6221  0.7681
    7SAPS   C23  836   5.512   5.045  10.136  0.1411 -0.6296  0.2481
    7SAPS   H3R  837   5.496   4.936  10.125 -0.5847 -0.6523  1.4102
    7SAPS   H3S  838   5.623   5.050  10.144  0.1370 -0.6156  0.2920
    7SAPS   C24  839   5.475   5.126  10.004 -0.2601 -0.7072  0.0319
    7SAPS   H4R  840   5.537   5.089   9.919 -1.2645 -2.3656 -0.0407
    7SAPS   H4S  841   5.507   5.230  10.026 -1.4823  0.2016 -2.1438
    7SAPS   C25  842   5.336   5.130   9.964 -0.9826  0.5612  0.4740
    7SAPS   H5R  843   5.267   5.144  10.048  0.0684  0.5828  1.3636
    7SAPS   C26  844   5.289   5.131   9.838  0.2841 -0.4377 -0.7677
    7SAPS   H6R  845   5.181   5.138   9.821  0.4767 -1.1361 -2.5893
    7SAPS   C27  846   5.372   5.127   9.720 -0.1197  0.2484  0.4879
    7SAPS   H7R  847   5.299   5.115   9.638  0.9800 -2.0355 -0.2490
    7SAPS   H7S  848   5.424   5.028   9.715  0.8821  0.8361 -2.8345
    7SAPS   C28  849   5.466   5.246   9.693  0.1318  0.2390  0.9709
    7SAPS   H8R  850   5.536   5.285   9.769  2.2742  1.3091 -1.4101
    7SAPS   C29  851   5.465   5.307   9.572  0.2280  0.3556  0.2009
    7SAPS   H9R  852   5.546   5.375   9.542  1.4321 -1.5922 -1.2101
    7SAPS  C210  853   5.381   5.271   9.453 -0.4421  0.8940 -0.5995
    7SAPS  H10R  854   5.369   5.354   9.380  1.7369  3.9613  2.2317
    7SAPS  H10S  855   5.277   5.249   9.486  0.5619  0.0578  2.2858
    7SAPS  C211  856   5.424   5.145   9.392  0.3227  0.5567  0.3333
    7SAPS  H11R  857   5.507   5.089   9.439  0.8817  0.5424 -0.6410
    7SAPS  C212  858   5.384   5.094   9.269  0.3564 -0.7028  0.0494
    7SAPS  H12R  859   5.427   4.998   9.239 -1.7861 -1.4913 -0.6973
    7SAPS  C213  860   5.296   5.167   9.169 -0.2323 -0.1271  0.2805
    7SAPS  H13R  861   5.255   5.261   9.212 -0.1179 -0.8330  1.9816
    7SAPS  H13S  862   5.203   5.109   9.151 -1.9564  2.5807 -0.1218
    7SAPS  C214  863   5.383   5.194   9.048 -0.4379 -0.6945 -0.4154
    7SAPS  H14R  864   5.471   5.256   9.068  1.8996 -3.6732 -0.7393
    7SAPS  C215  865   5.365   5.159   8.918 -0.1061  0.1637  0.1753
    7SAPS  H15R  866   5.447   5.189   8.851  0.3409  3.3858  1.9436
    7SAPS  C216  867   5.243   5.080   8.867 -0.3111 -0.0372  0.7688
    7SAPS  H16R  868   5.154   5.147   8.865  0.9436  1.6916  0.8966
    7SAPS  H16S  869   5.230   4.997   8.940  2.0701 -0.0353  1.2746
    7SAPS  C217  870   5.269   5.018   8.727 -0.0212  0.2550  0.9926
    7SAPS  H17R  871   5.180   4.954   8.708  0.3467  0.5957 -2.5063
    7SAPS  H17S  872   5.355   4.948   8.727  0.5670  0.9533 -0.3200
    7SAPS  C218  873   5.264   5.119   8.612 -0.1420 -0.0454 -0.6940
    7SAPS  H18R  874   5.308   5.060   8.528  1.3601 -3.1928  2.0656
    7SAPS  H18S  875   5.338   5.200   8.627 -1.0595  0.4034  1.8608
    7SAPS  C219  876   5.127   5.174   8.569 -0.2446 -0.9360 -0.1059
    7SAPS  H19R  877   5.138   5.245   8.484 -1.0644  0.5643  0.9917
    7SAPS  H19S  878   5.095   5.238   8.654  0.9705  2.8270 -2.2555
    7SAPS  C220  879   5.023   5.065   8.529 -0.2554 -0.8481 -0.1789
    7SAPS  H20R  880   5.067   4.994   8.456  1.8382  0.3646 -0.1859
    7SAPS  H20S  881   4.926   5.109   8.499  0.1845  1.5339  1.5494
    7SAPS  H20T  882   4.999   5.004   8.619  1.1448 -1.2624 -0.0569
    7SAPS   C33  883   5.887   5.135   9.828  0.0219  0.4119  0.5400
    7SAPS   H3X  884   5.799   5.067   9.836 -0.7095  1.4681  2.1448
    7SAPS   H3Y  885   5.982   5.086   9.859 -1.2842 -1.7405  1.3971
    7SAPS   C34  886   5.916   5.156   9.684  0.3118 -0.8811 -0.0089
    7SAPS   H4X  887   6.008   5.217   9.671 -0.8031  0.8755  0.0054
    7SAPS   H4Y  888   5.835   5.229   9.663 -1.3101 -2.7752 -0.6222
    7SAPS   C35  889   5.915   5.031   9.598  0.3586 -0.3234 -0.7639
    7SAPS   H5X  890   5.831   4.958   9.604 -1.0850  1.3692  0.8751
    7SAPS   H5Y  891   6.002   4.970   9.628  0.7436 -0.2656 -1.7343
    7SAPS   C36  892   5.933   5.060   9.452 -0.2214 -0.0503  0.2082
    7SAPS   H6X  893   5.953   4.965   9.398 -0.0332 -0.9064  1.7256
    7SAPS   H6Y  894   6.025   5.122   9.449  1.0600 -1.8987 -2.2387
    7SAPS   C37  895   5.813   5.134   9.383  0.0421  0.1858  0.2701
    7SAPS   H7X  896   5.819   5.239   9.418  2.2497  0.2489 -0.1668
    7SAPS   H7Y  897   5.721   5.084   9.420 -0.0382  0.3733  0.3279
    7SAPS   C38  898   5.815   5.116   9.227 -0.1620  0.3063 -0.8892
    7SAPS   H8X  899   5.917   5.138   9.191 -0.1193 -1.0668 -1.6724
    7SAPS   H8Y  900   5.750   5.196   9.184 -0.0155  0.5720 -0.6279
    7SAPS   C39  901   5.774   4.978   9.180 -0.0262 -0.2308 -0.9600
    7SAPS   H9X  902   5.663   4.969   9.185  0.0096 -0.2789 -0.1610
    7SAPS   H9Y  903   5.809   4.906   9.257 -1.6167  2.1978  2.2970
    7SAPS  C310  904   5.834   4.947   9.042  1.3677 -0.8758  0.6450
    7SAPS  H10X  905   5.846   4.836   9.037  1.2129 -0.8456 -1.1460
    7SAPS  H10Y  906   5.938   4.975   9.014  0.9811 -0.7260 -0.6950
    7SAPS  C311  907   5.744   5.005   8.933 -0.5992  0.9899 -0.1935
    7SAPS  H11X  908   5.759   5.115   8.929 -0.1027  0.9559  0.6254
    7SAPS  H11Y  909   5.637   4.984   8.956 -0.4893  1.7146  1.0382
    7SAPS  C312  910   5.769   4.958   8.788  0.2612  0.7402 -0.2784
    7SAPS  H12X  911   5.799   4.851   8.790 -0.0027  0.6726  0.8466
    7SAPS  H12Y  912   5.853   5.016   8.745 -0.4895  1.7042 -0.4625
    7SAPS  C313  913   5.651   4.971   8.692  0.2330  0.7190 -0.1658
    7SAPS  H13X  914   5.606   5.072   8.699 -0.1581  0.4884  0.6841
    7SAPS  H13Y  915   5.571   4.905   8.731 -0.3853  0.7830 -1.2922
    7SAPS  C314  916   5.689   4.921   8.547  0.0707  0.2112  0.0516
    7SAPS  H14X  917   5.730   4.818   8.548 -0.6453 -0.0947  1.9274
    7SAPS  H14Y  918   5.773   4.976   8.499  0.8409 -0.3907  0.6996
    7SAPS  C315  919   5.562   4.930   8.461  0.6659  0.4988 -0.3592
    7SAPS  H15X  920   5.513   5.029   8.473 -2.2924 -0.9624  0.6246
    7SAPS  H15Y  921   5.494   4.852   8.502  0.3231  1.7821  1.6225
    7SAPS  C316  922   5.600   4.907   8.308  0.7118 -0.2661  0.0125
    7SAPS  H16X  923   5.657   4.812   8.306 -0.1096 -0.7723  0.0333
    7SAPS  H16Y  924   5.658   4.996   8.276 -0.2014  0.0285 -0.8863
    7SAPS  C317  925   5.486   4.889   8.200  0.3008 -0.5596 -0.3445
    7SAPS  H17X  926   5.531   4.876   8.100 -2.4915 -1.4140 -1.5879
    7SAPS  H17Y  927   5.417   4.976   8.191  0.4882 -0.5953 -2.8838
    7SAPS  C318  928   5.399   4.771   8.238  0.2470  0.2898  0.5387
    7SAPS  H18X  929   5.345   4.725   8.152  1.8469 -1.3082  0.3243
    7SAPS  H18Y  930   5.328   4.809   8.315  1.7569  1.9763  1.1470
    7SAPS  H18Z  931   5.462   4.690   8.281 -0.7222 -0.1634  1.1633
    8SAPS     N  932   2.715   1.953  11.052 -0.2038  0.3328 -0.2545
    8SAPS   HN1  933   2.723   2.008  10.964 -0.5110 -1.7391 -1.6452
    8SAPS   HN2  934   2.731   1.857  11.013  0.6444  1.1285 -1.9899
    8SAPS   HN3  935   2.620   1.967  11.092  0.0389 -0.2782  0.5712
    8SAPS   C12  936   2.813   1.991  11.157  0.5775 -0.0740  0.5130
    8SAPS  H12A  937   2.775   2.090  11.175 -2.1008 -0.1859 -3.4552
    8SAPS   C13  938   2.809   1.914  11.294 -0.5480 -0.0793  0.7722
    8SAPS  O13A  939   2.729   1.822  11.318  0.3586  0.0168 -0.4458
    8SAPS  O13B  940   2.885   1.959  11.382  0.5641 -0.3283 -0.2241
    8SAPS   C11  941   2.961   1.986  11.094  0.7814 -0.3412 -0.2364
    8SAPS  H11A  942   2.991   1.879  11.084 -2.7662 -1.4920  0.0979
    8SAPS  H11B  943   3.026   2.044  11.163 -1.3406  2.2087 -0.2708
    8SAPS     P  944   2.942   2.195  10.941 -0.0992 -0.0947  0.4730
    8SAPS   O13  945   2.797   2.219  10.955  0.0981  0.1710 -0.5228
    8SAPS   O14  946   3.028   2.271  11.032 -0.3815  0.4151 -0.7019
    8SAPS   O12  947   2.972   2.039  10.962 -0.3208  0.2063  0.4899
    8SAPS   O11  948   2.989   2.224  10.789  0.5082  0.5721  0.0761
    8SAPS    C1  949   2.916   2.316  10.714 -0.2640  0.2630  0.0640
    8SAPS    HA  950   2.852   2.381  10.777 -2.3135  0.0010 -1.6420
    8SAPS    HB  951   2.989   2.384  10.665  1.3772  0.0169  2.0384
    8SAPS    C2  952   2.819   2.248  10.606  0.3665 -0.2063 -0.0055
    8SAPS    HS  953   2.758   2.168  10.653  2.4332 -2.4904 -0.9662
    8SAPS   O21  954   2.911   2.191  10.509 -0.4050 -0.1241 -0.5068
    8SAPS   C21  955   2.941   2.067  10.523 -0.0648  0.8670  0.1071
    8SAPS   O22  956   2.899   1.995  10.614  0.5873 -0.3479  0.1417
    8SAPS   C22  957   3.028   2.029  10.408  0.2364 -0.2575 -0.0063
    8SAPS   H2R  958   3.134   2.053  10.433  0.7318 -0.5480 -1.6625
    8SAPS   H2S  959   3.037   1.919  10.395 -1.9193 -0.3421 -1.1040
    8SAPS    C3  960   2.718   2.355  10.546 -0.1542  0.9695  0.0234
    8SAPS    HX  961   2.784   2.435  10.507  0.7589  1.3611  2.2499
    8SAPS    HY  962   2.670   2.397  10.637 -0.4731 -0.5564  0.5916
    8SAPS   O31  963   2.634   2.301  10.444 -0.0260 -0.3617  0.2424
    8SAPS   C31  964   2.535   2.233  10.483 -0.2117 -1.1131 -0.3076
    8SAPS   O32  965   2.525   2.196  10.598  0.7325 -0.0304 -0.1345
    8SAPS   C32  966   2.445   2.207  10.356  0.1977 -0.0444 -0.3880
    8SAPS   H2X  967   2.491   2.131  10.288 -0.4215  1.4393 -2.5626
    8SAPS   H2Y  968   2.434   2.302  10.299  0.7329  0.7501  0.7920
    8SAPS   C23  969   2.965   2.079  10.268 -0.0371  0.5235  0.8601
    8SAPS   H3R  970   2.992   2.186  10.253 -1.2857  0.6590 -0.6727
    8SAPS   H3S  971   2.855   2.065  10.278 -0.2086  1.4884  0.4743
    8SAPS   C24  972   3.019   2.008  10.148 -0.2820 -0.7926  0.2523
    8SAPS   H4R  973   2.945   2.044  10.074 -1.4573  0.5036  1.9631
    8SAPS   H4S  974   3.003   1.899  10.163  2.5180 -1.2449  0.4336
    8SAPS   C25  975   3.160   2.049  10.115  0.6298 -0.4673 -0.0224
    8SAPS   H5R  976   3.227   2.062  10.202 -1.0005 -0.7174  1.3353
    8SAPS   C26  977   3.203   2.083   9.990  0.6844  0.3409 -0.3174
    8SAPS   H6R  978   3.310   2.106   9.981  1.3818 -2.4959 -0.0974
    8SAPS   C27  979   3.139   2.078   9.853 -0.0976 -0.1790 -1.3382
    8SAPS   H7R  980   3.067   1.995   9.871  0.4685  0.0080  2.6305
    8SAPS   H7S  981   3.215   2.054   9.776  1.2071 -0.8792  0.0942
    8SAPS   C28  982   3.071   2.215   9.831  1.4715  0.5911 -0.0277
    8SAPS   H8R  983   3.039   2.271   9.921  0.0682 -0.5923  0.2488
    8SAPS   C29  984   3.043   2.262   9.710  0.3132 -0.2160  0.1132
    8SAPS   H9R  985   2.976   2.349   9.698  0.4185 -0.2050 -0.4254
    8SAPS  C210  986   3.071   2.202   9.574 -0.1397 -0.1997 -0.9465
    8SAPS  H10R  987   2.980   2.190   9.511 -2.2885  1.0507  1.6965
    8SAPS  H10S  988   3.106   2.097   9.582  0.6365 -0.1632 -3.2411
    8SAPS  C211  989   3.180   2.279   9.505  0.5317  0.2882 -0.1896
    8SAPS  H11R  990   3.265   2.307   9.568 -1.0751  0.5490  1.9683
    8SAPS  C212  991   3.170   2.328   9.383  0.2988  0.8436  0.2757
    8SAPS  H12R  992   3.255   2.379   9.336  0.2552  2.3276  1.7265
    8SAPS  C213  993   3.050   2.313   9.298  0.0755 -0.7784  0.5011
    8SAPS  H13R  994   2.954   2.336   9.349 -1.1302 -1.5085 -1.3127
    8SAPS  H13S  995   3.024   2.205   9.287  0.2162 -0.8053  0.4235
    8SAPS  C214  996   3.050   2.388   9.161 -0.7424  0.1494 -0.5240
    8SAPS  H14R  997   2.996   2.483   9.153  2.2016  1.9939  0.0823
    8SAPS  C215  998   3.113   2.351   9.049 -0.5614  0.5194 -0.0343
    8SAPS  H15R  999   3.094   2.411   8.959 -0.1720  0.7450  0.0282
    8SAPS  C216 1000   3.194   2.230   9.017 -0.3837 -0.2194  0.0358
    8SAPS  H16R 1001   3.233   2.172   9.104  1.7122 -2.9952 -2.5417
    8SAPS  H16S 1002   3.286   2.270   8.970  0.4362 -0.2682  1.5379
    8SAPS  C217 1003   3.116   2.126   8.925 -0.3901 -0.3128  0.3322
    8SAPS  H17R 1004   3.182   2.039   8.902 -0.3719 -0.7105  1.8014
    8SAPS  H17S 1005   3.091   2.189   8.837  0.0576 -0.4980  0.0670
    8SAPS  C218 1006   2.979   2.080   8.984 -0.0318 -0.2481  0.4366
    8SAPS  H18R 1007   2.912   2.167   9.000  0.6124  0.0917  1.3576
    8SAPS  H18S 1008   3.008   2.053   9.087  0.9574  1.4763  0.6580
    8SAPS  C219 1009   2.914   1.963   8.911 -0.0682 -0.1427 -0.0751
    8SAPS  H19R 1010   2.990   1.886   8.883  0.2213  1.0261 -2.8903
    8SAPS  H19S 1011   2.895   2.000   8.808 -0.4553 -1.6848 -0.5936
    8SAPS  C220 1012   2.788   1.901   8.983 -0.7691 -0.0264  0.9782
    8SAPS  H20R 1013   2.828   1.825   9.054 -1.3007 -1.4612 -0.2055
    8SAPS  H20S 1014   2.719   1.846   8.915  0.3410 -0.5881  0.2769
    8SAPS  H20T 1015   2.745   1.986   9.041  0.3595 -1.4281  4.1209
    8SAPS   C33 1016   2.303   2.142  10.376 -0.0583 -0.0214 -0.3676
    8SAPS   H3X 1017   2.249   2.199  10.455  1.4296 -1.6162  1.9356
    8SAPS   H3Y 1018   2.315   2.039  10.417  2.1840  1.3107  2.7422
    8SAPS   C34 1019   2.230   2.133  10.242  0.4080 -1.0208  0.5135
    8SAPS   H4X 1020   2.129   2.095  10.267 -0.1195  0.6896  1.1531
    8SAPS   H4Y 1021   2.284   2.066  10.172  0.4023  0.6233 -1.1634
    8SAPS   C35 1022   2.195   2.270  10.168 -0.3458 -0.7904  0.1060
    8SAPS   H5X 1023   2.288   2.317  10.130 -1.5128 -0.6622 -2.8762
    8SAPS   H5Y 1024   2.160   2.344  10.243 -0.2068 -0.8327  0.2117
    8SAPS   C36 1025   2.086   2.251  10.060 -0.3145 -0.1848 -0.2890
    8SAPS   H6X 1026   2.063   2.346  10.009 -2.7480 -0.4331  0.2350
    8SAPS   H6Y 1027   2.007   2.220  10.132 -0.4564 -0.3555 -0.5195
    8SAPS   C37 1028   2.108   2.142   9.952 -0.3496 -0.5586  0.8462
    8SAPS   H7X 1029   2.009   2.114   9.910 -1.0278  0.5746  1.6286
    8SAPS   H7Y 1030   2.148   2.049   9.998  0.6763  0.7660  2.7557
    8SAPS   C38 1031   2.202   2.181   9.838  0.1797  0.7952  0.1104
    8SAPS   H8X 1032   2.307   2.169   9.871 -0.9332 -1.4829  3.3061
    8SAPS   H8Y 1033   2.176   2.281   9.796  1.0429  0.3770 -1.4748
    8SAPS   C39 1034   2.170   2.084   9.723  0.5555 -0.6757  0.3700
    8SAPS   H9X 1035   2.062   2.090   9.700  0.8574  1.1759 -0.7862
    8SAPS   H9Y 1036   2.213   1.986   9.752  0.6143 -0.9635 -0.6746
    8SAPS  C310 1037   2.245   2.123   9.587  0.1127 -0.1708 -0.4848
    8SAPS  H10X 1038   2.344   2.157   9.624 -0.2355 -1.0386  1.3494
    8SAPS  H10Y 1039   2.173   2.198   9.546 -2.6472 -2.0482  0.6285
    8SAPS  C311 1040   2.266   2.005   9.498 -0.8451 -0.1494  0.2730
    8SAPS  H11X 1041   2.169   1.950   9.489 -0.2835 -0.9651 -1.0240
    8SAPS  H11Y 1042   2.348   1.941   9.538 -0.3153  1.0729  1.2025
    8SAPS  C312 1043   2.314   2.043   9.358  0.6865  0.0896 -0.0927
    8SAPS  H12X 1044   2.375   2.135   9.374 -2.7513  2.2409  2.1391
    8SAPS  H12Y 1045   2.231   2.067   9.287 -1.0640  1.1169  2.1657
    8SAPS  C313 1046   2.416   1.949   9.294 -0.3279  0.2528 -0.4718
    8SAPS  H13X 1047   2.380   1.844   9.284 -1.0003  0.4429 -0.0746
    8SAPS  H13Y 1048   2.503   1.947   9.362 -0.3202 -1.8102 -0.4749
    8SAPS  C314 1049   2.462   2.002   9.160  0.1343  0.6223  0.4767
    8SAPS  H14X 1050   2.552   1.937   9.149 -0.3042 -0.0709  0.8810
    8SAPS  H14Y 1051   2.494   2.108   9.160 -0.1155  0.6992  1.1104
    8SAPS  C315 1052   2.359   1.970   9.048  0.4234 -0.2819  0.5748
    8SAPS  H15X 1053   2.267   2.029   9.067 -0.8932 -1.0843 -2.6150
    8SAPS  H15Y 1054   2.327   1.864   9.043 -2.2128  0.4062  1.1414
    8SAPS  C316 1055   2.410   2.028   8.910 -0.0969 -0.0308  0.8961
    8SAPS  H16X 1056   2.498   1.970   8.876  0.0456  1.5094 -1.6508
    8SAPS  H16Y 1057   2.431   2.137   8.911 -0.4751  0.1633 -2.0501
    8SAPS  C317 1058   2.318   1.995   8.790  0.7262 -0.2401  0.1799
    8SAPS  H17X 1059   2.241   2.075   8.799 -0.7692 -1.2150 -2.7318
    8SAPS  H17Y 1060   2.286   1.891   8.815  2.7558 -1.0660 -0.5006
    8SAPS  C318 1061   2.385   1.975   8.657 -0.0106  0.1690 -0.0332
    8SAPS  H18X 1062   2.435   2.067   8.620 -0.7756  0.6432  0.1093
    8SAPS  H18Y 1063   2.301   1.943   8.592 -2.3355  0.5693  2.5762
    8SAPS  H18Z 1064   2.457   1.890   8.669 -1.8988 -1.4747  0.2460
    9SAPS     N 1065   6.553   1.555   5.946 -0.6221 -0.1378  0.1301
    9SAPS   HN1 1066   6.537   1.498   5.861  1.2492 -0.0252 -0.3512
    9SAPS   HN2 1067   6.466   1.567   6.001 -1.4415  0.8547 -1.3195
    9SAPS   HN3 1068   6.577   1.653   5.923  0.3764  0.0372  1.7143
    9SAPS   C12 1069   6.667   1.494   6.028  0.7707 -0.6826  0.1589
    9SAPS  H12A 1070   6.648   1.390   6.049  3.1960 -0.8714  1.8661
    9SAPS   C13 1071   6.805   1.492   5.951  1.3553  0.2561  0.4966
    9SAPS  O13A 1072   6.817   1.556   5.847 -0.0515 -0.6563 -0.4528
    9SAPS  O13B 1073   6.905   1.423   5.996  0.5462  0.0202 -0.1493
    9SAPS   C11 1074   6.668   1.581   6.159  0.2657  0.1372  0.0480
    9SAPS  H11A 1075   6.749   1.547   6.226  2.7331  1.8459 -1.8930
    9SAPS  H11B 1076   6.569   1.565   6.209 -0.6331  0.9236 -1.4059
    9SAPS     P 1077   6.709   1.832   6.229  0.1550  0.1621  0.0727
    9SAPS   O13 1078   6.828   1.917   6.191 -0.5574  0.4793  0.4953
    9SAPS   O14 1079   6.582   1.896   6.252  0.0685 -1.2196  0.6456
    9SAPS   O12 1080   6.682   1.719   6.120 -0.1665 -0.1470 -0.4928
    9SAPS   O11 1081   6.743   1.745   6.358 -0.2181  0.0287  0.2148
    9SAPS    C1 1082   6.875   1.732   6.400  0.5548 -0.3683  0.1607
    9SAPS    HA 1083   6.939   1.699   6.315 -0.0176 -0.8404 -0.0886
    9SAPS    HB 1084   6.918   1.833   6.418  2.5775 -1.3827  1.4370
    9SAPS    C2 1085   6.892   1.636   6.518 -0.2288  0.1114 -0.0688
    9SAPS    HS 1086   6.845   1.540   6.487  0.6915  0.0686 -1.4132
    9SAPS   O21 1087   6.833   1.687   6.634 -0.3436  0.3675 -0.6076
    9SAPS   C21 1088   6.808   1.592   6.728 -0.3780  1.0599  0.2075
    9SAPS   O22 1089   6.842   1.476   6.713  0.0218  0.2048  0.3703
    9SAPS   C22 1090   6.725   1.644   6.848 -0.2168  0.2691 -0.2262
    9SAPS   H2R 1091   6.754   1.750   6.864 -0.0747  0.0766  0.8521
    9SAPS   H2S 1092   6.617   1.654   6.821 -0.6174 -1.6429  0.5267
    9SAPS    C3 1093   7.036   1.599   6.554  0.3132  0.3203 -0.0711
    9SAPS    HX 1094   7.074   1.564   6.455 -0.3550 -0.1997 -0.1547
    9SAPS    HY 1095   7.036   1.510   6.621 -1.5269  1.3193  1.3158
    9SAPS   O31 1096   7.106   1.709   6.619 -0.0564 -0.6858 -0.4599
    9SAPS   C31 1097   7.214   1.759   6.547  0.3712  0.2446  0.6760
    9SAPS   O32 1098   7.237   1.730   6.430  0.1726  0.0932  0.1875
    9SAPS   C32 1099   7.279   1.874   6.620 -1.0255 -0.6552 -0.5867
    9SAPS   H2X 1100   7.205   1.955   6.635  0.1823  0.2979  0.5732
    9SAPS   H2Y 1101   7.349   1.926   6.551  0.1238 -1.0831  0.2197
    9SAPS   C23 1102   6.739   1.557   6.980 -0.3238  0.0506  0.0819
    9SAPS   H3R 1103   6.731   1.449   6.956 -0.5661  0.6563 -3.0141
    9SAPS   H3S 1104   6.653   1.597   7.038  1.0581  1.4174  1.2480
    9SAPS   C24 1105   6.863   1.588   7.068 -0.1498  0.9846 -0.2482
    9SAPS   H4R 1106   6.947   1.546   7.010 -1.7637 -1.2301 -1.0977
    9SAPS   H4S 1107   6.861   1.532   7.164  1.6942  1.1759 -0.0602
    9SAPS   C25 1108   6.881   1.730   7.104 -0.8473 -0.6728 -0.3353
    9SAPS   H5R 1109   6.934   1.788   7.027 -3.0015  0.9978 -0.6713
    9SAPS   C26 1110   6.799   1.800   7.193  0.3369 -0.1396 -0.4691
    9SAPS   H6R 1111   6.820   1.907   7.210 -1.2880 -0.2506  3.2034
    9SAPS   C27 1112   6.691   1.745   7.280 -0.2316  0.5193 -0.1343
    9SAPS   H7R 1113   6.731   1.647   7.316  0.7867  1.1796  0.5569
    9SAPS   H7S 1114   6.595   1.726   7.226 -0.0745  2.0060 -0.9865
    9SAPS   C28 1115   6.659   1.837   7.394  0.0817 -0.4805 -0.1919
    9SAPS   H8R 1116   6.574   1.902   7.369 -0.7814 -1.9087 -1.1483
    9SAPS   C29 1117   6.701   1.837   7.526 -0.1661 -0.5834  0.5984
    9SAPS   H9R 1118   6.665   1.913   7.597 -0.1533  1.9771 -1.9323
    9SAPS  C210 1119   6.797   1.735   7.581  0.3956 -0.5164  0.2345
    9SAPS  H10R 1120   6.884   1.795   7.616  1.7033  0.1413 -3.6172
    9SAPS  H10S 1121   6.838   1.680   7.494  0.8449  2.2643 -1.4348
    9SAPS  C211 1122   6.746   1.633   7.680 -0.6462 -0.0422  0.2706
    9SAPS  H11R 1123   6.675   1.558   7.641  0.0495  0.4618 -2.1678
    9SAPS  C212 1124   6.772   1.630   7.813  0.1650  0.2279 -0.4124
    9SAPS  H12R 1125   6.719   1.550   7.868  1.4518 -1.9942 -2.2235
    9SAPS  C213 1126   6.855   1.731   7.885  0.4746  0.0340 -0.1364
    9SAPS  H13R 1127   6.786   1.780   7.957  0.4265 -2.9901  2.0983
    9SAPS  H13S 1128   6.891   1.808   7.814 -0.2947  1.8797  1.3814
    9SAPS  C214 1129   6.971   1.663   7.949 -0.0513  0.1330  0.0812
    9SAPS  H14R 1130   7.059   1.633   7.891 -0.1877  0.9105 -0.5436
    9SAPS  C215 1131   6.985   1.646   8.082 -0.1049  0.0599 -0.4612
    9SAPS  H15R 1132   7.079   1.599   8.114 -1.1717 -0.5054  2.0388
    9SAPS  C216 1133   6.889   1.706   8.184 -0.3453  0.0419 -0.0284
    9SAPS  H16R 1134   6.861   1.627   8.257 -1.7922  0.0860 -0.5115
    9SAPS  H16S 1135   6.791   1.742   8.147 -1.4827 -0.6930  2.0614
    9SAPS  C217 1136   6.968   1.823   8.253  0.1043  0.3373  0.3751
    9SAPS  H17R 1137   6.992   1.901   8.177  0.6589 -2.3266 -2.3670
    9SAPS  H17S 1138   7.058   1.778   8.301 -1.0301 -2.0403  0.3860
    9SAPS  C218 1139   6.875   1.888   8.352 -0.4098 -0.3210 -0.5348
    9SAPS  H18R 1140   6.870   1.812   8.433 -1.4974 -0.2226 -0.4854
    9SAPS  H18S 1141   6.777   1.902   8.300 -0.2124 -2.4769 -1.5862
    9SAPS  C219 1142   6.928   2.017   8.418  0.5052  0.1979  0.2686
    9SAPS  H19R 1143   6.886   2.045   8.517  2.7540  0.8806  1.1074
    9SAPS  H19S 1144   6.903   2.093   8.341  1.3916 -0.2837 -0.5108
    9SAPS  C220 1145   7.075   2.018   8.428 -0.5074 -0.5569 -0.0020
    9SAPS  H20R 1146   7.102   2.115   8.476 -0.8088 -1.5671  2.3316
    9SAPS  H20S 1147   7.133   2.020   8.333  4.6846  0.6144  2.8451
    9SAPS  H20T 1148   7.103   1.930   8.489 -0.5080 -1.4926 -1.3255
    9SAPS   C33 1149   7.344   1.844   6.758  0.0990  0.8091  0.0749
    9SAPS   H3X 1150   7.410   1.755   6.766 -0.3750  0.4853  0.4770
    9SAPS   H3Y 1151   7.264   1.836   6.835 -1.5036  0.2959 -1.5871
    9SAPS   C34 1152   7.434   1.964   6.801  0.4767  0.3553 -0.1261
    9SAPS   H4X 1153   7.357   2.040   6.826  0.7448  0.5411  0.1438
    9SAPS   H4Y 1154   7.500   2.001   6.720  1.4501  0.0326  0.5032
    9SAPS   C35 1155   7.500   1.941   6.931 -0.4849 -0.6131 -0.3021
    9SAPS   H5X 1156   7.610   1.933   6.915 -0.3621  0.5844 -0.2149
    9SAPS   H5Y 1157   7.466   1.851   6.986  2.7480 -2.9068 -1.7356
    9SAPS   C36 1158   7.484   2.049   7.031 -0.0453  0.2808  0.4518
    9SAPS   H6X 1159   7.375   2.042   7.055 -0.5609  1.6916 -1.2348
    9SAPS   H6Y 1160   7.512   2.149   6.991 -0.0110  0.2158  0.3150
    9SAPS   C37 1161   7.564   2.022   7.159 -0.5754  0.0474 -0.0614
    9SAPS   H7X 1162   7.671   2.052   7.154  0.1422 -1.8692  2.1135
    9SAPS   H7Y 1163   7.555   1.913   7.177  1.5820  0.0272  1.2004
    9SAPS   C38 1164   7.509   2.084   7.290  0.1390  0.3399  0.2116
    9SAPS   H8X 1165   7.547   2.039   7.385 -0.5066  0.7597  0.6782
    9SAPS   H8Y 1166   7.398   2.078   7.297 -0.0313 -0.1992 -2.1983
    9SAPS   C39 1167   7.558   2.229   7.304  0.0557  0.5560  0.1856
    9SAPS   H9X 1168   7.547   2.282   7.207  1.8714 -1.1065 -1.0282
    9SAPS   H9Y 1169   7.667   2.224   7.326  0.0418 -1.4326 -0.0422
    9SAPS  C310 1170   7.494   2.304   7.420  0.8785 -0.4767 -0.4128
    9SAPS  H10X 1171   7.402   2.348   7.376 -0.7492 -0.6969  2.5079
    9SAPS  H10Y 1172   7.571   2.382   7.434  0.4728  0.0240 -0.9170
    9SAPS  C311 1173   7.476   2.226   7.550  0.2471 -0.5231 -0.7095
    9SAPS  H11X 1174   7.566   2.168   7.579  0.3670 -1.0316 -2.0128
    9SAPS  H11Y 1175   7.399   2.149   7.528 -0.3592  0.1595 -1.0157
    9SAPS  C312 1176   7.452   2.320   7.670  0.2098  0.9426 -0.0242
    9SAPS  H12X 1177   7.352   2.366   7.657 -0.0919  0.0720 -1.0031
    9SAPS  H12Y 1178   7.533   2.395   7.677 -0.8550  2.3438 -1.8470
    9SAPS  C313 1179   7.430   2.238   7.793 -0.3499  0.3921 -0.2180
    9SAPS  H13X 1180   7.524   2.188   7.826  1.6204  1.9792 -3.0539
    9SAPS  H13Y 1181   7.347   2.163   7.792  0.5211 -0.5920 -1.0229
    9SAPS  C314 1182   7.404   2.328   7.915  0.4479  0.0675  0.9457
    9SAPS  H14X 1183   7.306   2.378   7.909 -0.0217 -0.9773 -1.7733
    9SAPS  H14Y 1184   7.479   2.410   7.919  0.4122  0.1000  0.9473
    9SAPS  C315 1185   7.422   2.261   8.049 -0.0067  0.1045 -0.5246
    9SAPS  H15X 1186   7.530   2.244   8.065 -0.1857 -3.4764 -2.1457
    9SAPS  H15Y 1187   7.385   2.156   8.049 -0.4188  0.2454 -0.3368
    9SAPS  C316 1188   7.361   2.334   8.173 -0.7215  0.2237  0.2272
    9SAPS  H16X 1189   7.393   2.441   8.175  0.0935 -0.0085  2.2990
    9SAPS  H16Y 1190   7.408   2.300   8.268 -1.5123  0.4764  0.7147
    9SAPS  C317 1191   7.206   2.324   8.182 -0.1597 -1.0566  0.1113
    9SAPS  H17X 1192   7.186   2.215   8.175  0.2427 -1.0727 -1.1683
    9SAPS  H17Y 1193   7.159   2.373   8.094  1.0698 -1.3505 -0.7355
    9SAPS  C318 1194   7.151   2.395   8.311 -0.0509 -0.7901  0.4372
    9SAPS  H18X 1195   7.040   2.386   8.315 -0.4145 -0.4926 -3.7182
    9SAPS  H18Y 1196   7.184   2.501   8.315  0.8193 -1.1026  1.7405
    9SAPS  H18Z 1197   7.191   2.367   8.410  0.9404 -1.0150 -0.0221
   10SAPS     N 1198   5.951   0.866   6.248  0.6292  0.0864 -0.6485
   10SAPS   HN1 1199   5.861   0.917   6.257  0.8559  0.7124 -1.7857
   10SAPS   HN2 1200   5.995   0.841   6.339 -0.0613  0.0777 -0.3078
   10SAPS   HN3 1201   6.016   0.936   6.209 -1.5186  3.3288  1.1455
   10SAPS   C12 1202   5.915   0.740   6.168  0.1937  0.3456 -0.1723
   10SAPS  H12A 1203   5.840   0.680   6.220 -3.2298  1.9939 -2.8132
   10SAPS   C13 1204   5.842   0.767   6.031 -0.3516 -0.7183  0.9044
   10SAPS  O13A 1205   5.832   0.891   5.994  0.1538  0.5315  0.3960
   10SAPS  O13B 1206   5.775   0.680   5.980 -0.2366  0.4251 -0.5283
   10SAPS   C11 1207   6.040   0.648   6.145  0.3277  0.0327  0.2646
   10SAPS  H11A 1208   6.114   0.702   6.081 -0.7874 -0.2863 -1.3539
   10SAPS  H11B 1209   6.014   0.568   6.073  1.5375  0.3815 -0.5919
   10SAPS     P 1210   6.032   0.460   6.330 -0.0689 -0.2796  0.1720
   10SAPS   O13 1211   5.899   0.490   6.379 -0.4163 -0.3130 -0.1551
   10SAPS   O14 1212   6.050   0.351   6.232  0.0546  0.3439  0.3773
   10SAPS   O12 1213   6.094   0.592   6.265  0.2535  0.4202 -0.4794
   10SAPS   O11 1214   6.128   0.425   6.446 -0.3705  0.0767  0.1007
   10SAPS    C1 1215   6.179   0.514   6.549  0.8237  0.4717 -0.2119
   10SAPS    HA 1216   6.288   0.495   6.545  1.1078  2.0307 -0.4065
   10SAPS    HB 1217   6.152   0.619   6.526 -1.2268  0.5386  2.0946
   10SAPS    C2 1218   6.118   0.472   6.681 -0.0562 -0.1771 -0.6423
   10SAPS    HS 1219   6.147   0.368   6.706  0.8494  0.8350  3.3311
   10SAPS   O21 1220   5.973   0.490   6.668 -0.3800 -0.2055  0.2993
   10SAPS   C21 1221   5.905   0.399   6.732 -0.1926  0.3591 -0.4243
   10SAPS   O22 1222   5.953   0.293   6.768 -0.0298  0.0953  0.5435
   10SAPS   C22 1223   5.765   0.435   6.721  0.2086 -0.0674  0.7679
   10SAPS   H2R 1224   5.745   0.542   6.744 -3.1895 -0.1819 -1.0001
   10SAPS   H2S 1225   5.727   0.412   6.620 -1.4850  2.9484  0.6170
   10SAPS    C3 1226   6.176   0.554   6.800  0.1305  0.1065  0.7516
   10SAPS    HX 1227   6.148   0.660   6.781  1.8579  0.4988  0.2236
   10SAPS    HY 1228   6.287   0.549   6.794  0.1748  1.3721  0.0281
   10SAPS   O31 1229   6.114   0.513   6.928  0.2147  0.0065  0.2478
   10SAPS   C31 1230   6.178   0.536   7.039  0.6339 -0.4746 -0.1972
   10SAPS   O32 1231   6.291   0.582   7.048  0.2679 -0.1343  0.6881
   10SAPS   C32 1232   6.085   0.495   7.159 -0.2866 -0.7507  0.2288
   10SAPS   H2X 1233   6.065   0.386   7.171  2.1443 -1.1002  2.0519
   10SAPS   H2Y 1234   5.990   0.546   7.133  0.2912 -0.6029 -1.7463
   10SAPS   C23 1235   5.680   0.347   6.821  0.2762 -0.0296 -0.1120
   10SAPS   H3R 1236   5.697   0.246   6.777 -2.9529  0.3547 -2.6133
   10SAPS   H3S 1237   5.572   0.368   6.804  0.2443 -0.1861 -0.1072
   10SAPS   C24 1238   5.711   0.364   6.965  0.0791 -1.3336 -0.4111
   10SAPS   H4R 1239   5.807   0.320   7.000 -0.3551 -1.6328  0.4344
   10SAPS   H4S 1240   5.636   0.306   7.024  1.7669 -0.7557  2.4999
   10SAPS   C25 1241   5.716   0.505   7.009 -0.1717 -0.1549  0.0035
   10SAPS   H5R 1242   5.766   0.576   6.942 -0.5718 -0.3348 -0.5018
   10SAPS   C26 1243   5.679   0.551   7.127 -0.3662 -0.2959  0.6310
   10SAPS   H6R 1244   5.697   0.658   7.143 -0.3175 -0.4338  1.5461
   10SAPS   C27 1245   5.620   0.472   7.241 -0.0573 -0.1266 -0.5687
   10SAPS   H7R 1246   5.517   0.436   7.219 -0.7938  0.5427  1.5518
   10SAPS   H7S 1247   5.610   0.542   7.327 -1.4956 -0.5596 -0.3482
   10SAPS   C28 1248   5.682   0.346   7.306 -0.7504  0.3078 -0.5635
   10SAPS   H8R 1249   5.764   0.299   7.248  0.6623  1.4166  0.4671
   10SAPS   C29 1250   5.649   0.298   7.427  0.0846 -0.4999  0.1410
   10SAPS   H9R 1251   5.711   0.218   7.471  0.5535 -0.8242 -1.0877
   10SAPS  C210 1252   5.540   0.359   7.509  0.4066  0.1762  0.6025
   10SAPS  H10R 1253   5.530   0.468   7.493  1.0114  0.6137  2.8148
   10SAPS  H10S 1254   5.569   0.338   7.614  0.8242 -4.1819 -0.1890
   10SAPS  C211 1255   5.403   0.285   7.490  0.8367 -0.4237 -0.0070
   10SAPS  H11R 1256   5.345   0.330   7.408  2.1048  0.3870 -0.4861
   10SAPS  C212 1257   5.360   0.176   7.560 -0.7259  0.3009 -0.0758
   10SAPS  H12R 1258   5.258   0.142   7.537  0.2101 -2.1917 -0.9086
   10SAPS  C213 1259   5.428   0.084   7.661 -0.4727 -0.3457 -0.6405
   10SAPS  H13R 1260   5.538   0.090   7.672 -0.4898 -0.9337 -0.0670
   10SAPS  H13S 1261   5.404  -0.022   7.634 -1.6921 -1.5084  4.0884
   10SAPS  C214 1262   5.376   0.121   7.799 -0.5124 -0.0149  0.4219
   10SAPS  H14R 1263   5.331   0.220   7.816 -2.2909 -0.5251 -1.0744
   10SAPS  C215 1264   5.384   0.038   7.907 -0.2020 -0.3738  0.2576
   10SAPS  H15R 1265   5.335   0.054   8.004  1.2976  0.2040  0.9594
   10SAPS  C216 1266   5.431  -0.108   7.904  0.3374  0.2330 -0.8107
   10SAPS  H16R 1267   5.541  -0.111   7.916  0.2665 -1.5727 -0.3978
   10SAPS  H16S 1268   5.401  -0.150   7.806 -2.5467 -0.1892  0.1661
   10SAPS  C217 1269   5.379  -0.196   8.020  0.2662 -0.8845 -0.1584
   10SAPS  H17R 1270   5.388  -0.303   7.992  0.2029 -0.7560 -0.7003
   10SAPS  H17S 1271   5.272  -0.174   8.041 -0.2604  0.4528 -3.5377
   10SAPS  C218 1272   5.450  -0.182   8.154  0.6014 -0.6110  0.7817
   10SAPS  H18R 1273   5.447  -0.075   8.183  1.5985 -0.8750  1.9817
   10SAPS  H18S 1274   5.558  -0.206   8.145  1.3816  2.3356  1.1968
   10SAPS  C219 1275   5.392  -0.265   8.276  0.0352 -0.3814 -0.3251
   10SAPS  H19R 1276   5.421  -0.372   8.271  0.5754 -0.3112  0.8928
   10SAPS  H19S 1277   5.281  -0.258   8.273  0.1090  0.7499 -1.7224
   10SAPS  C220 1278   5.430  -0.215   8.412 -0.2144 -0.0072  0.7376
   10SAPS  H20R 1279   5.540  -0.205   8.424 -0.3190  1.6840  0.5411
   10SAPS  H20S 1280   5.402  -0.290   8.489  1.6738  0.2788  1.7729
   10SAPS  H20T 1281   5.377  -0.124   8.447  0.4088 -0.4190  2.9482
   10SAPS   C33 1282   6.143   0.526   7.305  0.4249  0.3207 -0.9501
   10SAPS   H3X 1283   6.179   0.631   7.316 -0.2656  0.4582  0.1957
   10SAPS   H3Y 1284   6.232   0.465   7.329  2.2391  3.0508 -0.2296
   10SAPS   C34 1285   6.042   0.510   7.420 -0.1441 -0.0803  0.4852
   10SAPS   H4X 1286   6.000   0.408   7.409 -0.0112  0.0833 -2.2975
   10SAPS   H4Y 1287   5.951   0.573   7.414 -2.0767 -1.9686  5.4652
   10SAPS   C35 1288   6.104   0.524   7.565  0.0463 -0.4568 -0.6450
   10SAPS   H5X 1289   6.137   0.629   7.578 -4.2294  0.7577  2.7585
   10SAPS   H5Y 1290   6.204   0.474   7.570  0.6009  0.6390 -0.4367
   10SAPS   C36 1291   6.002   0.484   7.669 -0.2088 -0.3427 -0.4167
   10SAPS   H6X 1292   5.910   0.547   7.660  0.5312  0.6291 -1.4542
   10SAPS   H6Y 1293   6.051   0.508   7.765  0.1540  0.1021 -0.7088
   10SAPS   C37 1294   5.964   0.331   7.683 -0.2020 -1.0031  0.6165
   10SAPS   H7X 1295   6.058   0.272   7.680 -0.4610 -1.4696  1.3388
   10SAPS   H7Y 1296   5.912   0.290   7.594  0.6550 -0.5336 -0.1173
   10SAPS   C38 1297   5.885   0.284   7.809  0.5521 -0.1573  0.1355
   10SAPS   H8X 1298   5.836   0.185   7.799  0.2773 -0.6343  4.2306
   10SAPS   H8Y 1299   5.805   0.360   7.822  2.2079  1.5664  0.8846
   10SAPS   C39 1300   5.974   0.287   7.932 -0.1001 -0.3997 -0.3381
   10SAPS   H9X 1301   5.995   0.391   7.964 -1.5149 -0.6002  1.3743
   10SAPS   H9Y 1302   6.068   0.238   7.899  1.8735  2.2636  1.0223
   10SAPS  C310 1303   5.914   0.224   8.056 -0.0564 -0.4557  0.4817
   10SAPS  H10X 1304   5.826   0.285   8.088 -0.2069  0.0062 -0.7687
   10SAPS  H10Y 1305   5.997   0.218   8.130  3.3830 -0.6618 -3.0793
   10SAPS  C311 1306   5.866   0.073   8.036 -0.7845 -0.5931  0.2227
   10SAPS  H11X 1307   5.951   0.022   7.987  0.0912 -0.7448  1.8463
   10SAPS  H11Y 1308   5.784   0.077   7.960 -2.2715  0.8445  1.8038
   10SAPS  C312 1309   5.798   0.003   8.147  0.2956 -0.7418  0.2879
   10SAPS  H12X 1310   5.750  -0.095   8.127  0.3691 -0.3793 -1.9059
   10SAPS  H12Y 1311   5.711   0.068   8.170  0.5561  0.8233 -2.6991
   10SAPS  C313 1312   5.883  -0.002   8.278  0.0403  0.0399  0.9084
   10SAPS  H13X 1313   5.925   0.100   8.290 -2.1376  0.9188  1.5713
   10SAPS  H13Y 1314   5.970  -0.069   8.257  1.3496  1.5976  1.1498
   10SAPS  C314 1315   5.803  -0.056   8.400 -0.2198  0.2011 -0.2704
   10SAPS  H14X 1316   5.755  -0.152   8.371 -0.8799  0.8964 -1.5792
   10SAPS  H14Y 1317   5.717   0.010   8.423 -0.6444 -0.3642 -0.2053
   10SAPS  C315 1318   5.892  -0.082   8.519  0.0919 -0.3901  0.0931
   10SAPS  H15X 1319   5.917   0.012   8.572 -3.0940 -0.3597  1.8127
   10SAPS  H15Y 1320   5.985  -0.126   8.478  0.9703  0.4093  1.1372
   10SAPS  C316 1321   5.832  -0.169   8.633 -0.3464 -0.1071 -0.2066
   10SAPS  H16X 1322   5.809  -0.263   8.580 -0.8619  0.2616 -0.6515
   10SAPS  H16Y 1323   5.739  -0.127   8.678  0.4242  1.0800  0.3478
   10SAPS  C317 1324   5.932  -0.216   8.743  0.0877 -0.5002 -0.4050
   10SAPS  H17X 1325   5.873  -0.274   8.818 -0.3260 -1.9764 -1.8235
   10SAPS  H17Y 1326   5.987  -0.126   8.777 -0.8537  0.9019 -2.4594
   10SAPS  C318 1327   6.065  -0.299   8.707  0.7606 -0.1850 -1.0809
   10SAPS  H18X 1328   6.135  -0.251   8.635  0.4938 -0.7159 -1.7127
   10SAPS  H18Y 1329   6.032  -0.397   8.664 -0.5372 -0.5307  0.5858
   10SAPS  H18Z 1330   6.111  -0.323   8.805 -1.0511  3.8708  1.0285
   11SAPS     N 1331   6.176   3.695   5.447  0.2021  0.0331  0.0433
   11SAPS   HN1 1332   6.115   3.646   5.514 -0.8614 -1.5184 -1.9544
   11SAPS   HN2 1333   6.133   3.787   5.422 -0.2988 -0.0940  0.4349
   11SAPS   HN3 1334   6.183   3.635   5.362  1.1871 -2.6695  1.8991
   11SAPS   C12 1335   6.308   3.702   5.523 -0.1242 -0.4735  0.0695
   11SAPS  H12A 1336   6.369   3.617   5.498  2.2654  0.4506  2.2010
   11SAPS   C13 1337   6.397   3.823   5.488  0.0945 -0.3767 -0.6946
   11SAPS  O13A 1338   6.372   3.897   5.393 -0.3110  0.2322  0.4711
   11SAPS  O13B 1339   6.507   3.832   5.547 -0.2705 -0.0903  0.7636
   11SAPS   C11 1340   6.280   3.697   5.685 -0.2184 -0.5119 -0.8171
   11SAPS  H11A 1341   6.220   3.784   5.719  0.1961 -0.3606 -0.4491
   11SAPS  H11B 1342   6.384   3.703   5.724 -0.5217  1.8371 -0.2198
   11SAPS     P 1343   6.080   3.547   5.757 -0.1986 -0.2196  0.1543
   11SAPS   O13 1344   6.004   3.601   5.643  0.0984  0.2399  0.1962
   11SAPS   O14 1345   6.053   3.402   5.787 -0.3780 -0.1717 -0.2054
   11SAPS   O12 1346   6.232   3.571   5.729  0.8365 -0.2538 -0.0155
   11SAPS   O11 1347   6.068   3.638   5.891 -0.0935  0.6173 -0.0391
   11SAPS    C1 1348   6.113   3.578   6.011 -0.4096 -0.5170 -0.6188
   11SAPS    HA 1349   6.208   3.523   5.995  0.4481 -0.8291  4.1139
   11SAPS    HB 1350   6.146   3.661   6.078  0.0057 -0.6345 -0.6733
   11SAPS    C2 1351   6.012   3.491   6.088 -0.7320  0.5394  0.1608
   11SAPS    HS 1352   5.981   3.420   6.009  1.5865 -0.6741  0.2331
   11SAPS   O21 1353   5.906   3.579   6.128 -0.7608  0.6673  0.1987
   11SAPS   C21 1354   5.790   3.514   6.148 -0.1331 -0.6788 -0.7128
   11SAPS   O22 1355   5.765   3.399   6.128  0.6651  0.5160  0.2070
   11SAPS   C22 1356   5.686   3.629   6.190 -0.1206 -0.0956  0.6014
   11SAPS   H2R 1357   5.735   3.695   6.265 -1.0373 -1.0000  2.0502
   11SAPS   H2S 1358   5.679   3.688   6.097  0.8792  0.7578  1.0496
   11SAPS    C3 1359   6.073   3.413   6.205 -0.4239 -0.2629 -0.4897
   11SAPS    HX 1360   6.150   3.340   6.171  0.2452  0.1100  0.1914
   11SAPS    HY 1361   5.985   3.361   6.249  0.3604 -0.4588  0.9195
   11SAPS   O31 1362   6.135   3.506   6.298  0.0886 -0.8562 -0.0164
   11SAPS   C31 1363   6.191   3.453   6.399 -0.6356  0.9211  0.3002
   11SAPS   O32 1364   6.194   3.331   6.421  0.3464  0.2059  0.2481
   11SAPS   C32 1365   6.273   3.560   6.483  0.0358 -0.4155 -0.6064
   11SAPS   H2X 1366   6.201   3.622   6.540  1.7674  1.5047 -0.3881
   11SAPS   H2Y 1367   6.339   3.613   6.412  0.7735 -2.5247 -1.5720
   11SAPS   C23 1368   5.542   3.586   6.229 -0.1615 -0.3066  0.3448
   11SAPS   H3R 1369   5.510   3.523   6.143  1.8557 -2.5948  1.1516
   11SAPS   H3S 1370   5.470   3.671   6.231 -1.0213 -1.0212  0.5990
   11SAPS   C24 1371   5.534   3.514   6.364 -0.0456  0.1193  0.3767
   11SAPS   H4R 1372   5.576   3.413   6.349 -2.3799 -0.9105  0.3455
   11SAPS   H4S 1373   5.425   3.498   6.382 -0.7486  1.5620 -2.0931
   11SAPS   C25 1374   5.605   3.577   6.482  0.4086  0.4447 -0.3675
   11SAPS   H5R 1375   5.709   3.545   6.498 -0.3472 -2.0676 -0.0281
   11SAPS   C26 1376   5.553   3.654   6.578 -0.5947 -0.1730  0.4866
   11SAPS   H6R 1377   5.619   3.684   6.660  1.1587 -2.1522 -0.1060
   11SAPS   C27 1378   5.407   3.702   6.586 -0.2246  0.6778  0.3851
   11SAPS   H7R 1379   5.376   3.694   6.692 -0.8879  0.7663  0.2076
   11SAPS   H7S 1380   5.333   3.634   6.537  1.6736 -0.9650 -0.3505
   11SAPS   C28 1381   5.382   3.845   6.552 -0.4202  0.2341 -0.1003
   11SAPS   H8R 1382   5.371   3.857   6.443 -0.4131 -3.1362 -0.5712
   11SAPS   C29 1383   5.394   3.954   6.627  0.4417 -0.2340  0.7887
   11SAPS   H9R 1384   5.388   4.059   6.594  1.6085  0.5981  3.0158
   11SAPS  C210 1385   5.435   3.930   6.773  0.7565 -0.3429  0.0543
   11SAPS  H10R 1386   5.514   3.851   6.776  0.6249 -0.5915 -1.7801
   11SAPS  H10S 1387   5.342   3.909   6.830  0.9623 -0.1095  0.4787
   11SAPS  C211 1388   5.506   4.047   6.824  0.7261 -0.2686 -0.0415
   11SAPS  H11R 1389   5.553   4.112   6.749 -0.9469  1.0551  0.0048
   11SAPS  C212 1390   5.530   4.093   6.951  0.7015  0.1392 -0.4667
   11SAPS  H12R 1391   5.594   4.181   6.965 -1.2701  1.3319  1.6228
   11SAPS  C213 1392   5.476   4.036   7.080 -0.2629  0.4461  0.4541
   11SAPS  H13R 1393   5.397   3.962   7.051  2.2826 -1.1106 -3.3231
   11SAPS  H13S 1394   5.421   4.105   7.148 -2.0476 -2.0566  1.7299
   11SAPS  C214 1395   5.582   3.960   7.158  0.1002 -0.4263  0.1597
   11SAPS  H14R 1396   5.675   4.018   7.169 -0.5777  0.4496  1.5654
   11SAPS  C215 1397   5.554   3.840   7.222 -0.0198  0.3192  0.5726
   11SAPS  H15R 1398   5.632   3.786   7.277  0.1157  0.2758  0.3396
   11SAPS  C216 1399   5.412   3.776   7.227 -0.1327  0.6835  0.1999
   11SAPS  H16R 1400   5.334   3.843   7.186 -1.1879 -1.1961 -0.9966
   11SAPS  H16S 1401   5.393   3.770   7.337  2.9103 -0.0446  0.7844
   11SAPS  C217 1402   5.411   3.635   7.161 -0.1988  0.4586 -0.0538
   11SAPS  H17R 1403   5.310   3.591   7.170 -0.5713  1.3478  0.1660
   11SAPS  H17S 1404   5.472   3.563   7.220 -0.0441 -1.0250 -1.9202
   11SAPS  C218 1405   5.455   3.637   7.013 -0.0383  0.3380 -0.1818
   11SAPS  H18R 1406   5.559   3.671   6.996  0.8338 -1.0795  1.9231
   11SAPS  H18S 1407   5.390   3.710   6.960 -1.3437 -0.9397 -0.4136
   11SAPS  C219 1408   5.451   3.498   6.954  0.1907  0.2961  0.8192
   11SAPS  H19R 1409   5.516   3.425   7.008 -1.1862 -1.0423  0.7333
   11SAPS  H19S 1410   5.482   3.511   6.848  0.2652  1.1446  0.9379
   11SAPS  C220 1411   5.307   3.429   6.945 -0.1705  0.0895 -0.6043
   11SAPS  H20R 1412   5.235   3.490   6.887  2.6116  1.0745 -3.2175
   11SAPS  H20S 1413   5.273   3.410   7.050 -1.9205  2.4529 -0.6583
   11SAPS  H20T 1414   5.307   3.334   6.886  1.5599 -0.1538 -0.2488
   11SAPS   C33 1415   6.356   3.478   6.593  0.2711 -0.0043 -0.4869
   11SAPS   H3X 1416   6.405   3.396   6.536  1.5754 -0.2566  0.9476
   11SAPS   H3Y 1417   6.292   3.429   6.670 -0.2903 -1.0272 -1.5646
   11SAPS   C34 1418   6.468   3.562   6.648  0.0560  0.2018 -0.6555
   11SAPS   H4X 1419   6.461   3.668   6.614 -1.0190  0.5168  0.4572
   11SAPS   H4Y 1420   6.567   3.524   6.613  1.2076  1.7534  0.7541
   11SAPS   C35 1421   6.464   3.584   6.802 -0.1695 -0.4883 -0.0996
   11SAPS   H5X 1422   6.363   3.613   6.841 -0.5713 -2.1259  0.1603
   11SAPS   H5Y 1423   6.539   3.662   6.826  0.4765 -1.1902  0.2068
   11SAPS   C36 1424   6.512   3.458   6.883  0.5714  0.3979  0.2632
   11SAPS   H6X 1425   6.609   3.437   6.832  0.0862 -1.4712  0.0193
   11SAPS   H6Y 1426   6.455   3.364   6.866  1.4002  0.0739 -0.8218
   11SAPS   C37 1427   6.526   3.483   7.033 -0.2978  0.5432 -0.1994
   11SAPS   H7X 1428   6.424   3.472   7.075 -1.6479  1.5478 -2.9771
   11SAPS   H7Y 1429   6.549   3.591   7.048  0.4884  0.2627  0.7232
   11SAPS   C38 1430   6.630   3.382   7.097  0.0655 -0.4861  0.9824
   11SAPS   H8X 1431   6.604   3.287   7.044  0.8868  0.9063 -2.1663
   11SAPS   H8Y 1432   6.607   3.364   7.204  0.5476  0.5444  1.2687
   11SAPS   C39 1433   6.778   3.428   7.069 -0.0777 -0.0138 -0.1415
   11SAPS   H9X 1434   6.780   3.539   7.077 -1.1506 -0.0239  0.4169
   11SAPS   H9Y 1435   6.800   3.406   6.963 -0.3752  0.8039 -0.3825
   11SAPS  C310 1436   6.881   3.373   7.169  0.1870  0.2039 -0.0504
   11SAPS  H10X 1437   6.859   3.401   7.274 -1.7450 -3.5943  0.7364
   11SAPS  H10Y 1438   6.974   3.423   7.136 -0.6010  1.5041 -0.3733
   11SAPS  C311 1439   6.902   3.220   7.170 -0.2682  0.4660  0.1381
   11SAPS  H11X 1440   6.949   3.190   7.074  4.3946 -0.1604  2.3566
   11SAPS  H11Y 1441   6.806   3.169   7.191  1.5237 -1.6504  4.1876
   11SAPS  C312 1442   7.005   3.178   7.274  0.3589  0.7480  0.1187
   11SAPS  H12X 1443   7.097   3.241   7.275  1.6587 -1.0438  0.5042
   11SAPS  H12Y 1444   7.033   3.071   7.259 -1.4694 -0.2308  2.9484
   11SAPS  C313 1445   6.950   3.173   7.420 -0.1274 -0.0830 -0.3184
   11SAPS  H13X 1446   6.858   3.112   7.430 -0.4184 -0.4728 -4.0334
   11SAPS  H13Y 1447   6.921   3.277   7.446 -0.3625 -0.3896  0.7009
   11SAPS  C314 1448   7.058   3.143   7.528 -0.4434  0.5218 -0.3410
   11SAPS  H14X 1449   7.146   3.211   7.534  1.2379 -1.6397  2.3472
   11SAPS  H14Y 1450   7.096   3.039   7.520 -2.5544 -0.3645  0.3597
   11SAPS  C315 1451   7.001   3.155   7.669  0.2583 -0.8470  0.0414
   11SAPS  H15X 1452   6.924   3.079   7.695  0.8729 -0.8207  2.0438
   11SAPS  H15Y 1453   6.940   3.248   7.665 -0.4101 -1.1896  1.6374
   11SAPS  C316 1454   7.108   3.180   7.776  0.0687  0.2879 -0.5616
   11SAPS  H16X 1455   7.152   3.278   7.747  4.3598 -1.2629 -0.0166
   11SAPS  H16Y 1456   7.188   3.103   7.774  0.0379  0.1971  0.8278
   11SAPS  C317 1457   7.063   3.201   7.925  0.4574 -0.7575  0.1235
   11SAPS  H17X 1458   6.976   3.270   7.924 -0.5904 -2.0317 -1.1528
   11SAPS  H17Y 1459   7.145   3.244   7.986 -0.5081  0.2915  0.7230
   11SAPS  C318 1460   7.009   3.070   7.975  0.3365 -0.4857 -0.2008
   11SAPS  H18X 1461   6.930   3.025   7.911 -1.0715  0.1713  1.0350
   11SAPS  H18Y 1462   6.950   3.084   8.067 -1.4373 -2.4025 -0.9531
   11SAPS  H18Z 1463   7.098   3.004   7.988  1.1980  0.6941  0.0514
   12SAPS     N 1464   0.314   4.523   5.748  0.7107  0.0870  0.2384
   12SAPS   HN1 1465   0.406   4.570   5.760 -0.6432  2.4423  2.6357
   12SAPS   HN2 1466   0.308   4.443   5.815  0.8664 -1.2327 -1.2828
   12SAPS   HN3 1467   0.309   4.469   5.660 -0.6580 -1.6912  1.3377
   12SAPS   C12 1468   0.203   4.627   5.782  0.1346 -0.6431 -0.6296
   12SAPS  H12A 1469   0.236   4.678   5.872 -1.8593  1.9883 -1.2505
   12SAPS   C13 1470   0.175   4.739   5.686 -0.2073  0.1746  0.2041
   12SAPS  O13A 1471   0.250   4.743   5.581 -0.0710  0.7904 -0.3801
   12SAPS  O13B 1472   0.073   4.813   5.703  0.3227 -0.0624  0.3969
   12SAPS   C11 1473   0.083   4.543   5.826  0.6177 -0.8293 -0.2438
   12SAPS  H11A 1474   0.038   4.489   5.740 -3.1681 -0.0001  1.0417
   12SAPS  H11B 1475   0.011   4.616   5.868  2.2871  0.5153  0.3832
   12SAPS     P 1476   0.022   4.390   6.030  0.0632 -0.0095  0.2290
   12SAPS   O13 1477  -0.099   4.350   5.955 -0.1203  0.2262 -0.3732
   12SAPS   O14 1478   0.083   4.283   6.109 -0.3771  0.5374 -0.8488
   12SAPS   O12 1479   0.123   4.445   5.922 -0.4930 -0.5291 -0.2120
   12SAPS   O11 1480  -0.028   4.521   6.112 -0.4810 -0.2533  0.2460
   12SAPS    C1 1481  -0.153   4.505   6.177  0.2497  0.7318 -0.7282
   12SAPS    HA 1482  -0.235   4.549   6.116 -0.3201 -0.2424 -0.6836
   12SAPS    HB 1483  -0.180   4.400   6.201 -0.4107  0.9992 -0.2380
   12SAPS    C2 1484  -0.159   4.579   6.320 -0.4755 -0.0558 -0.6253
   12SAPS    HS 1485  -0.125   4.683   6.300  0.6510  0.4460  3.0562
   12SAPS   O21 1486  -0.051   4.521   6.399  0.3389 -0.5621  0.5369
   12SAPS   C21 1487  -0.021   4.605   6.503  0.4429 -0.4052  0.0556
   12SAPS   O22 1488  -0.067   4.716   6.515 -0.1415 -0.1528 -0.9243
   12SAPS   C22 1489   0.096   4.548   6.589 -0.5349 -0.6568 -0.7831
   12SAPS   H2R 1490   0.146   4.630   6.645  0.7232 -1.2859 -0.9349
   12SAPS   H2S 1491   0.060   4.482   6.671  1.1902 -1.2852 -0.4807
   12SAPS    C3 1492  -0.302   4.574   6.382  0.2542 -0.6282 -0.5516
   12SAPS    HX 1493  -0.366   4.628   6.309 -0.3295 -2.5546 -1.5343
   12SAPS    HY 1494  -0.307   4.620   6.483  1.9105  0.5439 -0.9634
   12SAPS   O31 1495  -0.355   4.439   6.386  0.1025 -0.5984 -0.0536
   12SAPS   C31 1496  -0.302   4.351   6.478 -0.9539 -0.2840  0.0381
   12SAPS   O32 1497  -0.217   4.386   6.558  0.3786  0.2570  0.1104
   12SAPS   C32 1498  -0.365   4.208   6.470 -0.2072 -0.2653 -0.0804
   12SAPS   H2X 1499  -0.294   4.133   6.429  1.2155  0.3588  1.1823
   12SAPS   H2Y 1500  -0.450   4.212   6.398  1.6200 -2.9956 -2.6669
   12SAPS   C23 1501   0.201   4.481   6.507 -0.2169  0.5333  0.4842
   12SAPS   H3R 1502   0.211   4.539   6.413 -0.7420  0.7420  0.5514
   12SAPS   H3S 1503   0.170   4.377   6.481  3.4589 -0.8173  0.8935
   12SAPS   C24 1504   0.335   4.462   6.584  0.3507  0.4852 -0.3829
   12SAPS   H4R 1505   0.374   4.561   6.613  1.3402  0.9069 -2.9069
   12SAPS   H4S 1506   0.410   4.414   6.517  2.8302  1.6896  1.3406
   12SAPS   C25 1507   0.323   4.371   6.706  0.3311 -0.4001  0.6034
   12SAPS   H5R 1508   0.262   4.281   6.689 -0.8161 -0.0986  2.7823
   12SAPS   C26 1509   0.355   4.404   6.835 -0.3235 -0.4298 -0.2492
   12SAPS   H6R 1510   0.333   4.331   6.915  0.2358 -0.8902 -0.5107
   12SAPS   C27 1511   0.412   4.528   6.897 -0.1081 -0.3917  0.2939
   12SAPS   H7R 1512   0.477   4.569   6.817 -0.0146 -1.9042 -0.4325
   12SAPS   H7S 1513   0.489   4.504   6.973 -1.3066 -0.5330  1.4979
   12SAPS   C28 1514   0.317   4.637   6.929 -0.2517 -0.6033  0.4022
   12SAPS   H8R 1515   0.241   4.667   6.856 -1.6118  2.3046  2.8252
   12SAPS   C29 1516   0.327   4.714   7.037 -0.2147  0.2135  0.1655
   12SAPS   H9R 1517   0.244   4.779   7.070 -0.4164 -0.8018  1.8098
   12SAPS  C210 1518   0.429   4.705   7.142 -0.2815 -0.1112 -0.0554
   12SAPS  H10R 1519   0.422   4.801   7.198 -0.0762  0.6552 -1.3257
   12SAPS  H10S 1520   0.532   4.714   7.102 -0.2821  3.1092  0.4160
   12SAPS  C211 1521   0.413   4.580   7.225  0.3981  0.6041  0.4934
   12SAPS  H11R 1522   0.395   4.487   7.168 -0.0932  1.9430 -1.6311
   12SAPS  C212 1523   0.417   4.557   7.357 -0.1182  0.7881  0.3048
   12SAPS  H12R 1524   0.395   4.456   7.395 -0.9618  1.2790  1.1645
   12SAPS  C213 1525   0.459   4.666   7.456 -0.1257 -0.2328  0.6992
   12SAPS  H13R 1526   0.467   4.764   7.404 -0.8176  0.0908  1.1828
   12SAPS  H13S 1527   0.563   4.659   7.495  0.6609  3.9146 -0.1937
   12SAPS  C214 1528   0.371   4.690   7.565  0.0919 -0.4373 -0.3213
   12SAPS  H14R 1529   0.314   4.784   7.563  1.7030  0.5747 -1.2291
   12SAPS  C215 1530   0.382   4.618   7.676 -0.2255 -0.6882 -0.3612
   12SAPS  H15R 1531   0.320   4.636   7.765  0.5349 -0.2746  0.0948
   12SAPS  C216 1532   0.478   4.497   7.707 -0.1625 -0.1279  0.5178
   12SAPS  H16R 1533   0.545   4.480   7.620 -1.7913  0.3636 -0.8950
   12SAPS  H16S 1534   0.414   4.407   7.721 -0.7162  0.3852  1.3101
   12SAPS  C217 1535   0.555   4.526   7.834  0.2991  0.1397  0.9003
   12SAPS  H17R 1536   0.585   4.633   7.833  0.1225  0.1871  0.4326
   12SAPS  H17S 1537   0.642   4.456   7.841  0.1211 -0.7653 -3.3155
   12SAPS  C218 1538   0.469   4.517   7.970  0.2631  0.5086  0.3018
   12SAPS  H18R 1539   0.462   4.411   8.002  1.2197  0.0402 -0.9520
   12SAPS  H18S 1540   0.362   4.546   7.965 -0.2507 -1.0664  1.2805
   12SAPS  C219 1541   0.524   4.600   8.081 -0.0163 -0.0091 -0.0283
   12SAPS  H19R 1542   0.461   4.588   8.172  2.8118 -0.3841  2.0261
   12SAPS  H19S 1543   0.527   4.708   8.056  1.9090 -0.6010 -2.8468
   12SAPS  C220 1544   0.663   4.551   8.117 -0.4367 -0.3567 -1.2117
   12SAPS  H20R 1545   0.742   4.565   8.041 -0.4119  3.8730 -0.6428
   12SAPS  H20S 1546   0.666   4.443   8.143  1.4060  0.2286  1.4665
   12SAPS  H20T 1547   0.701   4.609   8.204 -1.0069  2.8156 -2.9189
   12SAPS   C33 1548  -0.410   4.158   6.607  0.3681 -0.3083 -0.2091
   12SAPS   H3X 1549  -0.499   4.208   6.653  0.6969  0.3302 -0.2591
   12SAPS   H3Y 1550  -0.322   4.171   6.674 -0.1934  2.8765  0.0785
   12SAPS   C34 1551  -0.453   4.008   6.609  0.7908  0.4464 -0.2702
   12SAPS   H4X 1552  -0.369   3.940   6.584  0.0668 -0.5449 -0.0362
   12SAPS   H4Y 1553  -0.518   3.992   6.520  2.7047 -0.1926 -1.6418
   12SAPS   C35 1554  -0.517   3.956   6.739  0.1540 -0.8091 -0.0656
   12SAPS   H5X 1555  -0.572   3.861   6.719  1.1499 -1.1021 -1.5464
   12SAPS   H5Y 1556  -0.584   4.029   6.789 -1.4750 -3.2295  1.4708
   12SAPS   C36 1557  -0.402   3.940   6.841  0.0553 -0.1509  0.5556
   12SAPS   H6X 1558  -0.352   4.038   6.857 -0.8426  0.8796 -2.3387
   12SAPS   H6Y 1559  -0.328   3.871   6.795  0.0366 -0.5720  1.1473
   12SAPS   C37 1560  -0.455   3.888   6.984  0.2835 -0.1618  0.0731
   12SAPS   H7X 1561  -0.490   3.784   6.974  2.6973 -1.1907  1.3850
   12SAPS   H7Y 1562  -0.552   3.942   6.990 -1.3151 -2.5383 -2.2939
   12SAPS   C38 1563  -0.352   3.901   7.089  0.4240 -0.5248  0.3375
   12SAPS   H8X 1564  -0.298   3.995   7.064 -1.1236 -0.1231 -1.7270
   12SAPS   H8Y 1565  -0.280   3.817   7.075 -1.2011 -1.8378 -0.5501
   12SAPS   C39 1566  -0.424   3.903   7.221 -0.7171  0.8825 -0.7680
   12SAPS   H9X 1567  -0.474   3.805   7.236  1.8401 -0.1765  1.4275
   12SAPS   H9Y 1568  -0.497   3.987   7.220 -2.0185 -0.2002  0.0416
   12SAPS  C310 1569  -0.333   3.920   7.343  0.0305  0.9553 -0.6620
   12SAPS  H10X 1570  -0.404   3.934   7.426 -0.1884  1.2739 -0.9016
   12SAPS  H10Y 1571  -0.269   4.010   7.353  0.6885  0.4977 -0.6525
   12SAPS  C311 1572  -0.252   3.795   7.397  0.0692  0.4238 -0.1315
   12SAPS  H11X 1573  -0.178   3.768   7.318 -1.1852  0.6915 -1.4439
   12SAPS  H11Y 1574  -0.323   3.711   7.412 -0.5291  0.7476 -1.0331
   12SAPS  C312 1575  -0.177   3.827   7.527 -0.8181 -0.1000 -0.1757
   12SAPS  H12X 1576  -0.103   3.910   7.522  0.7434 -1.5147 -2.1359
   12SAPS  H12Y 1577  -0.122   3.735   7.557 -1.0566  0.0369  0.7238
   12SAPS  C313 1578  -0.269   3.859   7.647  0.8110  0.6883  0.9013
   12SAPS  H13X 1579  -0.330   3.948   7.619 -0.9629 -0.6738  0.2295
   12SAPS  H13Y 1580  -0.206   3.885   7.735  3.7496  1.0685 -1.1972
   12SAPS  C314 1581  -0.377   3.760   7.690 -1.0517 -0.2333  0.2720
   12SAPS  H14X 1582  -0.341   3.660   7.724 -0.7622  0.0297  0.7357
   12SAPS  H14Y 1583  -0.445   3.747   7.603  0.7449  2.3743 -1.7001
   12SAPS  C315 1584  -0.468   3.815   7.798  0.3115  0.0955  0.3066
   12SAPS  H15X 1585  -0.561   3.754   7.788  1.8041 -1.9981 -2.1002
   12SAPS  H15Y 1586  -0.497   3.920   7.774 -3.2130 -0.4870  1.4503
   12SAPS  C316 1587  -0.415   3.822   7.942  0.0680  0.2063  0.2676
   12SAPS  H16X 1588  -0.352   3.914   7.949  1.1578 -0.4990 -0.0389
   12SAPS  H16Y 1589  -0.344   3.742   7.973  1.8320  2.6393  3.0888
   12SAPS  C317 1590  -0.528   3.834   8.044 -1.3598 -0.4045 -0.1421
   12SAPS  H17X 1591  -0.574   3.733   8.039  2.8103 -2.4418 -1.5344
   12SAPS  H17Y 1592  -0.606   3.908   8.015 -2.4787 -1.0180  1.1374
   12SAPS  C318 1593  -0.481   3.872   8.184 -0.0333  0.3195  0.2457
   12SAPS  H18X 1594  -0.466   3.982   8.186  2.2515  0.0405  1.7240
   12SAPS  H18Y 1595  -0.386   3.825   8.214 -0.4886  0.1137  1.4082
   12SAPS  H18Z 1596  -0.558   3.842   8.258  0.4613  1.9503  1.4678
   13SAPS     N 1597   1.128   2.378   6.162 -0.1193 -0.3655  0.4816
   13SAPS   HN1 1598   1.170   2.461   6.209 -0.0524 -0.2452  0.2122
   13SAPS   HN2 1599   1.053   2.347   6.227 -2.1808  1.5559 -0.8403
   13SAPS   HN3 1600   1.196   2.300   6.154 -2.0824 -1.9849 -1.4853
   13SAPS   C12 1601   1.068   2.411   6.029 -0.0622 -0.1151  0.9285
   13SAPS  H12A 1602   0.999   2.492   6.048  0.3517  0.5794 -0.4020
   13SAPS   C13 1603   1.179   2.457   5.925  0.4710 -0.0547  0.1453
   13SAPS  O13A 1604   1.303   2.467   5.952 -0.4144 -0.6169  0.6633
   13SAPS  O13B 1605   1.129   2.484   5.813  0.5009 -0.0476  0.1491
   13SAPS   C11 1606   0.984   2.280   5.976 -0.0522 -0.4996 -0.2324
   13SAPS  H11A 1607   1.063   2.203   5.967 -1.3102 -1.9561  0.7837
   13SAPS  H11B 1608   0.944   2.305   5.876  0.2700  0.3393 -0.1661
   13SAPS     P 1609   0.793   2.116   6.056 -0.2361  0.2410  0.1466
   13SAPS   O13 1610   0.674   2.137   5.966  0.3221 -0.8120 -0.0717
   13SAPS   O14 1611   0.884   2.002   6.029  0.5123 -0.1430 -0.2082
   13SAPS   O12 1612   0.883   2.248   6.062  0.0596 -0.6583 -0.4200
   13SAPS   O11 1613   0.732   2.099   6.199  0.6340  0.3766 -0.3661
   13SAPS    C1 1614   0.668   2.210   6.274 -0.2446 -0.8846 -0.0623
   13SAPS    HA 1615   0.604   2.268   6.205 -0.1861 -1.8382 -0.9400
   13SAPS    HB 1616   0.599   2.166   6.349 -1.6589  2.1008  0.5254
   13SAPS    C2 1617   0.765   2.292   6.360  0.3132  0.4767  0.5750
   13SAPS    HS 1618   0.844   2.327   6.290  1.2481 -2.0859  0.2401
   13SAPS   O21 1619   0.822   2.203   6.460  0.0499  0.6784  0.0521
   13SAPS   C21 1620   0.948   2.225   6.476 -0.1635  0.3939 -0.1680
   13SAPS   O22 1621   1.024   2.293   6.412  0.2986 -0.1560  0.2205
   13SAPS   C22 1622   0.983   2.167   6.613 -0.0212  0.2607  0.4394
   13SAPS   H2R 1623   0.915   2.081   6.634  1.0820 -0.9589 -0.7055
   13SAPS   H2S 1624   1.084   2.123   6.601 -1.0164 -2.9275  2.3502
   13SAPS    C3 1625   0.696   2.416   6.424  0.2385 -0.1390 -0.7214
   13SAPS    HX 1626   0.618   2.375   6.492  1.6778 -0.3166  0.8863
   13SAPS    HY 1627   0.671   2.479   6.335 -2.2258 -0.2671 -0.1981
   13SAPS   O31 1628   0.793   2.487   6.500 -0.7137 -0.0718  0.2327
   13SAPS   C31 1629   0.812   2.620   6.468 -0.0389  0.1219 -0.5225
   13SAPS   O32 1630   0.760   2.684   6.377 -0.5274  0.2185 -0.0736
   13SAPS   C32 1631   0.908   2.669   6.575 -0.2990  0.1482 -0.3948
   13SAPS   H2X 1632   0.873   2.641   6.676  1.4133 -1.5123 -0.2147
   13SAPS   H2Y 1633   0.923   2.779   6.571  2.3464 -0.1827 -1.6066
   13SAPS   C23 1634   0.963   2.270   6.720 -0.5091 -0.2270  0.2019
   13SAPS   H3R 1635   0.859   2.310   6.722 -0.3466  0.2864 -0.8875
   13SAPS   H3S 1636   1.028   2.359   6.707 -0.6699 -0.0923  0.3069
   13SAPS   C24 1637   0.988   2.207   6.864 -0.5448  0.6508 -0.1828
   13SAPS   H4R 1638   0.919   2.120   6.874 -0.1653  0.1726 -1.4319
   13SAPS   H4S 1639   0.965   2.289   6.935 -0.2406  1.3006 -0.8307
   13SAPS   C25 1640   1.123   2.160   6.886 -0.1322 -0.7451 -0.8387
   13SAPS   H5R 1641   1.161   2.106   6.798 -0.0833 -0.7562 -0.8106
   13SAPS   C26 1642   1.194   2.172   7.003  0.8214  0.6481  1.1735
   13SAPS   H6R 1643   1.295   2.130   6.998  1.0879  1.2250  1.5685
   13SAPS   C27 1644   1.135   2.220   7.135 -0.4702 -0.3961 -0.0168
   13SAPS   H7R 1645   1.025   2.208   7.143 -0.4288  0.0008  1.3379
   13SAPS   H7S 1646   1.168   2.326   7.142  1.0696 -0.6725 -2.0886
   13SAPS   C28 1647   1.180   2.143   7.259 -0.0823 -0.1746 -0.0498
   13SAPS   H8R 1648   1.235   2.049   7.242  1.1016  0.7413 -1.4082
   13SAPS   C29 1649   1.163   2.168   7.393 -0.6854 -0.3287  0.5396
   13SAPS   H9R 1650   1.205   2.107   7.474  1.3638  2.0139  1.3556
   13SAPS  C210 1651   1.088   2.292   7.436 -1.5276 -0.1739  0.0719
   13SAPS  H10R 1652   0.995   2.275   7.495 -3.9432  1.5054 -2.9943
   13SAPS  H10S 1653   1.046   2.366   7.365 -0.4709  0.1155 -0.2766
   13SAPS  C211 1654   1.199   2.380   7.503  0.2667  0.2090 -0.3812
   13SAPS  H11R 1655   1.275   2.419   7.434 -1.0679 -0.2756 -2.2033
   13SAPS  C212 1656   1.197   2.420   7.633 -0.6556  0.4578 -0.4062
   13SAPS  H12R 1657   1.287   2.479   7.655 -1.7723  1.2823  2.5113
   13SAPS  C213 1658   1.104   2.392   7.746 -0.4603 -0.0537 -0.0809
   13SAPS  H13R 1659   1.160   2.367   7.839 -2.7441 -2.6288  0.7472
   13SAPS  H13S 1660   1.038   2.306   7.720 -1.8036  0.6016  1.0719
   13SAPS  C214 1661   1.002   2.512   7.752 -0.7489  0.0112  0.3257
   13SAPS  H14R 1662   0.925   2.515   7.674  1.7583  2.8098 -2.3033
   13SAPS  C215 1663   0.996   2.608   7.845 -0.0925  0.0648  0.4222
   13SAPS  H15R 1664   0.916   2.683   7.845  0.0807  0.2646 -0.5304
   13SAPS  C216 1665   1.099   2.625   7.955  0.5257 -0.0796 -0.8470
   13SAPS  H16R 1666   1.084   2.731   7.985 -0.3331 -0.4380  0.0437
   13SAPS  H16S 1667   1.202   2.589   7.936 -0.3816 -2.1419 -2.3119
   13SAPS  C217 1668   1.060   2.542   8.083  0.3914  0.7795  0.1971
   13SAPS  H17R 1669   1.131   2.560   8.167  1.2909  0.9179 -0.5731
   13SAPS  H17S 1670   1.077   2.437   8.050  1.2071  0.6808  0.8918
   13SAPS  C218 1671   0.918   2.572   8.141  0.2828 -0.1807  0.3703
   13SAPS  H18R 1672   0.841   2.567   8.062  0.5670  1.5005 -0.0576
   13SAPS  H18S 1673   0.914   2.678   8.177 -2.1561  0.4421 -1.5198
   13SAPS  C219 1674   0.881   2.464   8.240  0.8208 -0.2227 -1.1041
   13SAPS  H19R 1675   0.891   2.363   8.193 -1.8323 -0.6924 -0.8065
   13SAPS  H19S 1676   0.773   2.484   8.253  1.2596  0.7909  1.5523
   13SAPS  C220 1677   0.949   2.476   8.378 -0.5568  0.3664 -0.1981
   13SAPS  H20R 1678   0.917   2.392   8.444 -1.5226  3.3993  3.4974
   13SAPS  H20S 1679   0.906   2.559   8.438 -0.7496  1.3240 -1.6142
   13SAPS  H20T 1680   1.058   2.491   8.365 -0.5594  0.3130 -0.2814
   13SAPS   C33 1681   1.058   2.621   6.553 -0.1272  0.7397 -0.4107
   13SAPS   H3X 1682   1.079   2.648   6.448 -2.0502 -2.4030 -1.7391
   13SAPS   H3Y 1683   1.072   2.512   6.568  3.0651  1.1001  0.0593
   13SAPS   C34 1684   1.152   2.707   6.637 -0.4834 -0.4295  0.5112
   13SAPS   H4X 1685   1.120   2.813   6.649  0.3085  0.0250 -1.1024
   13SAPS   H4Y 1686   1.245   2.709   6.576 -0.2610 -0.4594  0.8478
   13SAPS   C35 1687   1.198   2.634   6.762  0.0198  0.0821  0.1677
   13SAPS   H5X 1688   1.299   2.669   6.794 -0.1183  0.5926  0.0457
   13SAPS   H5Y 1689   1.212   2.525   6.746  0.6137 -0.3214  2.9551
   13SAPS   C36 1690   1.102   2.643   6.875 -0.1095  0.0572 -0.0942
   13SAPS   H6X 1691   1.021   2.572   6.848  0.2811  0.0006 -1.1700
   13SAPS   H6Y 1692   1.057   2.742   6.896 -0.3515 -0.2017  0.6769
   13SAPS   C37 1693   1.152   2.583   7.011  0.3436  0.5381 -0.1630
   13SAPS   H7X 1694   1.172   2.474   7.007  0.2510  0.2653  3.4317
   13SAPS   H7Y 1695   1.087   2.618   7.094 -2.0870  3.7656 -3.1542
   13SAPS   C38 1696   1.285   2.642   7.054 -0.0058 -0.0421 -0.7398
   13SAPS   H8X 1697   1.275   2.752   7.057 -0.5811 -0.1091  1.1079
   13SAPS   H8Y 1698   1.370   2.627   6.985 -0.6323 -0.3561 -1.4583
   13SAPS   C39 1699   1.338   2.584   7.191  0.3789 -0.4628 -0.0554
   13SAPS   H9X 1700   1.416   2.508   7.169  1.1137  0.4059 -0.5656
   13SAPS   H9Y 1701   1.258   2.533   7.249 -0.0038  0.7125  0.4848
   13SAPS  C310 1702   1.404   2.685   7.279 -0.6132 -0.1523 -0.7040
   13SAPS  H10X 1703   1.321   2.752   7.311  0.9007  1.4476  0.0494
   13SAPS  H10Y 1704   1.495   2.733   7.237 -0.1220  1.2769  1.7504
   13SAPS  C311 1705   1.447   2.640   7.423  0.3686  0.2030  0.4235
   13SAPS  H11X 1706   1.511   2.549   7.421 -0.0270 -0.1144  1.2787
   13SAPS  H11Y 1707   1.358   2.624   7.488 -1.0817 -1.4264 -1.8204
   13SAPS  C312 1708   1.526   2.757   7.490 -0.0182 -0.1444  0.2009
   13SAPS  H12X 1709   1.455   2.839   7.513  0.4633 -0.1091  1.6908
   13SAPS  H12Y 1710   1.610   2.794   7.428 -0.2357  0.0253  0.0055
   13SAPS  C313 1711   1.582   2.706   7.628 -0.3631 -0.0047  0.5433
   13SAPS  H13X 1712   1.649   2.788   7.662 -2.2872  0.9935  2.1517
   13SAPS  H13Y 1713   1.633   2.608   7.615 -1.6716 -0.7566  0.8079
   13SAPS  C314 1714   1.474   2.689   7.735  0.5238 -0.2250 -0.7925
   13SAPS  H14X 1715   1.389   2.633   7.690 -0.1836  1.7410 -2.0438
   13SAPS  H14Y 1716   1.428   2.786   7.760 -1.1993 -1.0974 -0.4526
   13SAPS  C315 1717   1.515   2.606   7.858  0.8270 -0.3214 -0.1216
   13SAPS  H15X 1718   1.559   2.511   7.822  0.0988 -0.6327 -0.1948
   13SAPS  H15Y 1719   1.426   2.582   7.920  0.5622  1.8191  0.4265
   13SAPS  C316 1720   1.617   2.680   7.945 -1.2810 -0.0130 -0.6598
   13SAPS  H16X 1721   1.703   2.701   7.878  0.2203 -0.8680  0.9215
   13SAPS  H16Y 1722   1.669   2.601   8.004  2.3980  0.7971 -2.5067
   13SAPS  C317 1723   1.571   2.794   8.037 -0.5924  0.1198 -0.1367
   13SAPS  H17X 1724   1.485   2.755   8.095  0.7965 -0.5160  1.5908
   13SAPS  H17Y 1725   1.538   2.877   7.971  1.6824  1.4827  0.3418
   13SAPS  C318 1726   1.678   2.861   8.128 -0.7562  0.1206 -0.0012
   13SAPS  H18X 1727   1.652   2.955   8.181  1.4855  0.3837  0.7665
   13SAPS  H18Y 1728   1.761   2.892   8.061 -0.1532 -1.2207  0.0930
   13SAPS  H18Z 1729   1.719   2.786   8.199  0.6397  1.0243  0.1886
   14SAPS     N 1730   0.793   4.572   5.345 -0.6811  0.1990  0.5024
   14SAPS   HN1 1731   0.787   4.668   5.384 -3.2315  0.4928 -0.4401
   14SAPS   HN2 1732   0.880   4.528   5.381 -0.5478  1.4693  1.7867
   14SAPS   HN3 1733   0.786   4.571   5.241 -2.6958  1.5358  0.5775
   14SAPS   C12 1734   0.676   4.492   5.399 -0.3513  0.0217  0.7100
   14SAPS  H12A 1735   0.589   4.549   5.371 -0.1678 -1.2460 -3.1300
   14SAPS   C13 1736   0.659   4.351   5.335 -0.0787 -0.0955  0.1826
   14SAPS  O13A 1737   0.754   4.297   5.277  0.2614  0.4777 -0.1687
   14SAPS  O13B 1738   0.566   4.274   5.373  0.8298  0.6984 -0.0712
   14SAPS   C11 1739   0.704   4.466   5.548 -0.6137 -0.8701 -0.6147
   14SAPS  H11A 1740   0.788   4.396   5.566  1.0709  1.1498 -0.2166
   14SAPS  H11B 1741   0.620   4.408   5.593  0.6567 -2.7181 -0.4957
   14SAPS     P 1742   0.697   4.618   5.769 -0.7136 -0.2824 -0.0812
   14SAPS   O13 1743   0.793   4.713   5.823  0.3445  0.0172 -0.3914
   14SAPS   O14 1744   0.553   4.652   5.788  0.2290 -0.0057  0.2070
   14SAPS   O12 1745   0.720   4.593   5.617  0.3408  0.1360  0.4465
   14SAPS   O11 1746   0.728   4.483   5.843 -0.4426 -0.4879 -0.0550
   14SAPS    C1 1747   0.643   4.403   5.920  0.0237  0.4498 -0.2993
   14SAPS    HA 1748   0.535   4.419   5.900  0.0234  0.9705  0.0898
   14SAPS    HB 1749   0.673   4.296   5.905  0.6589  0.8641 -2.3117
   14SAPS    C2 1750   0.649   4.435   6.074  0.1900  1.0757  0.0038
   14SAPS    HS 1751   0.583   4.364   6.128  0.3328  0.6220 -0.4156
   14SAPS   O21 1752   0.625   4.563   6.115  0.4796 -0.2647 -0.0587
   14SAPS   C21 1753   0.494   4.592   6.140 -0.4745 -0.5879  0.4183
   14SAPS   O22 1754   0.399   4.526   6.122  0.5254  0.1602  0.3978
   14SAPS   C22 1755   0.491   4.749   6.161  0.6066  0.4842 -0.9322
   14SAPS   H2R 1756   0.553   4.798   6.083 -1.6272  0.8317 -2.5639
   14SAPS   H2S 1757   0.388   4.784   6.140 -0.1202 -1.2047 -0.4074
   14SAPS    C3 1758   0.797   4.397   6.115  0.1281  0.2228  0.2835
   14SAPS    HX 1759   0.860   4.470   6.061 -0.9562 -0.4229 -1.9690
   14SAPS    HY 1760   0.837   4.298   6.082  2.0401  0.3176  2.0517
   14SAPS   O31 1761   0.816   4.399   6.257  0.2189 -0.1462 -0.6196
   14SAPS   C31 1762   0.804   4.281   6.323 -0.5115 -0.2838  0.1362
   14SAPS   O32 1763   0.746   4.190   6.273 -0.0922 -0.2492 -0.3796
   14SAPS   C32 1764   0.872   4.290   6.458  0.4754  1.2058 -0.2218
   14SAPS   H2X 1765   0.968   4.346   6.455  0.5045  1.1692 -0.0178
   14SAPS   H2Y 1766   0.893   4.186   6.491 -0.4046  0.6110 -1.4605
   14SAPS   C23 1767   0.548   4.789   6.301  0.0124  0.2198  0.0119
   14SAPS   H3R 1768   0.552   4.899   6.314 -0.2674  0.4256 -1.5257
   14SAPS   H3S 1769   0.652   4.756   6.319  0.7503  1.5611 -1.5961
   14SAPS   C24 1770   0.459   4.728   6.408  0.5723 -0.9745 -0.0638
   14SAPS   H4R 1771   0.519   4.747   6.500  1.6977  1.2412 -1.1955
   14SAPS   H4S 1772   0.441   4.618   6.403 -1.0002 -0.7574  0.1096
   14SAPS   C25 1773   0.329   4.807   6.418 -0.8239 -0.2225  0.7265
   14SAPS   H5R 1774   0.264   4.795   6.330 -0.2747  1.6760 -0.0137
   14SAPS   C26 1775   0.299   4.905   6.505  0.5650 -0.0798 -0.1541
   14SAPS   H6R 1776   0.199   4.951   6.496  0.8930  0.2975 -2.2695
   14SAPS   C27 1777   0.372   4.945   6.625 -0.0714 -0.0308 -0.2949
   14SAPS   H7R 1778   0.479   4.915   6.619 -0.9196 -3.6649  0.5742
   14SAPS   H7S 1779   0.336   4.879   6.706  0.7974 -1.0694 -0.7311
   14SAPS   C28 1780   0.349   5.097   6.660 -0.1349  0.2040 -1.0029
   14SAPS   H8R 1781   0.265   5.143   6.607 -1.4684 -0.9877 -0.0092
   14SAPS   C29 1782   0.414   5.161   6.759 -0.6373 -0.4867  0.0861
   14SAPS   H9R 1783   0.375   5.261   6.784 -1.1788 -1.4466  3.5572
   14SAPS  C210 1784   0.532   5.110   6.834 -0.1256  0.3432 -0.0631
   14SAPS  H10R 1785   0.596   5.198   6.855 -0.6387  0.6691  0.1361
   14SAPS  H10S 1786   0.593   5.044   6.768  0.8734  1.9117 -0.7746
   14SAPS  C211 1787   0.487   5.045   6.959  0.1864  0.3096 -0.0359
   14SAPS  H11R 1788   0.459   4.940   6.939  1.2333 -0.0277  0.1917
   14SAPS  C212 1789   0.455   5.098   7.074  0.4563  0.4051 -0.4662
   14SAPS  H12R 1790   0.424   5.029   7.153  0.6755 -1.5286 -1.9903
   14SAPS  C213 1791   0.456   5.242   7.107 -0.1435 -0.0284 -0.7334
   14SAPS  H13R 1792   0.528   5.296   7.042  0.6209 -0.2838 -0.1094
   14SAPS  H13S 1793   0.489   5.253   7.212 -2.2575  0.1385 -0.0255
   14SAPS  C214 1794   0.319   5.309   7.093 -0.5440  0.5679  0.6820
   14SAPS  H14R 1795   0.279   5.314   6.991 -0.7092 -3.0502  0.4352
   14SAPS  C215 1796   0.239   5.355   7.193  0.0631  0.1419  0.7690
   14SAPS  H15R 1797   0.135   5.385   7.174 -0.9836 -2.6081  1.6514
   14SAPS  C216 1798   0.279   5.341   7.340 -0.0799 -0.1041 -0.5078
   14SAPS  H16R 1799   0.388   5.331   7.356 -0.6245 -2.9625  2.6248
   14SAPS  H16S 1800   0.229   5.257   7.393  1.1676 -1.2051 -1.0323
   14SAPS  C217 1801   0.241   5.469   7.416  0.0018 -0.1997 -0.0943
   14SAPS  H17R 1802   0.132   5.488   7.409  0.0375 -0.6492 -3.4096
   14SAPS  H17S 1803   0.277   5.557   7.359  0.6342 -0.9630 -0.9058
   14SAPS  C218 1804   0.274   5.465   7.570 -0.3600  1.0091  0.6733
   14SAPS  H18R 1805   0.233   5.556   7.617 -2.1364  0.1647  0.8222
   14SAPS  H18S 1806   0.384   5.469   7.591  0.0697  1.0754 -1.4275
   14SAPS  C219 1807   0.208   5.350   7.648 -0.1028  0.0872 -0.4334
   14SAPS  H19R 1808   0.261   5.339   7.746 -0.3473  0.3898 -0.2661
   14SAPS  H19S 1809   0.238   5.253   7.604 -0.0439  0.8273 -2.0698
   14SAPS  C220 1810   0.058   5.373   7.656 -1.0452  0.0359  0.5771
   14SAPS  H20R 1811   0.013   5.338   7.561  1.6992 -0.4090 -0.6691
   14SAPS  H20S 1812   0.036   5.481   7.670  0.4798  0.4975 -0.2604
   14SAPS  H20T 1813   0.018   5.320   7.744 -0.2364  2.1932  2.3304
   14SAPS   C33 1814   0.784   4.344   6.575  0.3021  0.1180  0.3977
   14SAPS   H3X 1815   0.750   4.446   6.547 -0.3979  0.1860  1.4460
   14SAPS   H3Y 1816   0.852   4.351   6.662  0.8491  1.1273 -0.0999
   14SAPS   C34 1817   0.653   4.268   6.607  0.1688  0.8097  0.0118
   14SAPS   H4X 1818   0.611   4.230   6.511  1.0305  0.0609 -0.0834
   14SAPS   H4Y 1819   0.579   4.333   6.659  1.0601  2.2885 -0.5090
   14SAPS   C35 1820   0.683   4.146   6.692  0.4965  0.4232 -0.2643
   14SAPS   H5X 1821   0.760   4.082   6.644  0.8081  0.8400 -0.3295
   14SAPS   H5Y 1822   0.592   4.084   6.682  0.3973  0.4891  0.1862
   14SAPS   C36 1823   0.718   4.179   6.835  0.0791  0.8357  0.2599
   14SAPS   H6X 1824   0.643   4.242   6.887  0.1763  0.9927  0.2093
   14SAPS   H6Y 1825   0.814   4.236   6.834 -0.3660  1.5804 -0.2383
   14SAPS   C37 1826   0.726   4.056   6.919 -0.4576 -0.1892  0.5936
   14SAPS   H7X 1827   0.814   3.997   6.885  0.8083  0.1622  3.0086
   14SAPS   H7Y 1828   0.633   3.997   6.914 -0.1566 -0.5573 -1.1107
   14SAPS   C38 1829   0.741   4.094   7.063  0.4384  0.1830 -1.0763
   14SAPS   H8X 1830   0.655   4.158   7.092  1.5507  2.0640 -1.6999
   14SAPS   H8Y 1831   0.834   4.155   7.073 -0.4311  1.2430  1.3946
   14SAPS   C39 1832   0.739   3.975   7.148 -0.9257  0.7016 -0.9921
   14SAPS   H9X 1833   0.829   3.913   7.125 -1.6032 -0.9061  0.4905
   14SAPS   H9Y 1834   0.650   3.913   7.128  1.3053 -2.3944 -2.2102
   14SAPS  C310 1835   0.728   4.015   7.299 -0.1780  0.0516  0.0968
   14SAPS  H10X 1836   0.651   4.089   7.330  0.1144 -0.6762  2.8180
   14SAPS  H10Y 1837   0.829   4.061   7.308  0.0917 -0.0015 -2.0928
   14SAPS  C311 1838   0.716   3.897   7.403  0.4508 -0.4493  0.4287
   14SAPS  H11X 1839   0.696   3.803   7.346  1.3070 -1.5460  1.8927
   14SAPS  H11Y 1840   0.632   3.913   7.473  1.6020 -1.6926  2.1802
   14SAPS  C312 1841   0.852   3.887   7.480  0.7393 -0.2045  0.0690
   14SAPS  H12X 1842   0.875   3.987   7.521  0.5056  0.0201 -0.3395
   14SAPS  H12Y 1843   0.934   3.870   7.406  1.8418  3.3971  0.3000
   14SAPS  C313 1844   0.853   3.780   7.587 -0.2937  0.2357 -0.1834
   14SAPS  H13X 1845   0.947   3.791   7.646 -1.3814  0.3248  1.5905
   14SAPS  H13Y 1846   0.853   3.676   7.548  1.0776 -0.2102  0.9404
   14SAPS  C314 1847   0.740   3.791   7.689  0.1615  0.0344 -1.0422
   14SAPS  H14X 1848   0.746   3.719   7.773  0.1096 -0.3133 -1.3291
   14SAPS  H14Y 1849   0.643   3.759   7.645 -1.2196 -0.7491  2.2879
   14SAPS  C315 1850   0.739   3.930   7.761 -0.1747  0.1626  1.2520
   14SAPS  H15X 1851   0.699   3.996   7.681 -1.7700 -3.0035 -0.7568
   14SAPS  H15Y 1852   0.846   3.958   7.776  0.9742 -1.7818 -2.2408
   14SAPS  C316 1853   0.647   3.944   7.878  0.7882  0.3838 -0.0763
   14SAPS  H16X 1854   0.705   3.912   7.968 -0.7372  3.0766  2.0106
   14SAPS  H16Y 1855   0.552   3.887   7.867 -0.7186  2.6678  0.3877
   14SAPS  C317 1856   0.592   4.088   7.905  0.2123  0.2427 -0.3102
   14SAPS  H17X 1857   0.677   4.160   7.903  1.6554 -1.2761  1.5608
   14SAPS  H17Y 1858   0.547   4.089   8.007  0.2274  1.3466 -0.3040
   14SAPS  C318 1859   0.483   4.145   7.821 -0.2118 -0.6354 -0.0185
   14SAPS  H18X 1860   0.533   4.182   7.729  3.3393 -2.2708  1.0887
   14SAPS  H18Y 1861   0.441   4.234   7.874 -0.9191 -0.7474 -0.3769
   14SAPS  H18Z 1862   0.401   4.072   7.804 -0.0872 -0.3670 -1.9553
   15SAPS     N 1863   2.076   5.223   5.577  0.1848 -0.0590 -0.2655
   15SAPS   HN1 1864   2.091   5.123   5.549  0.3532  0.1593 -0.9870
   15SAPS   HN2 1865   1.993   5.252   5.521 -0.6500  1.1767  1.5439
   15SAPS   HN3 1866   2.156   5.284   5.550  1.2464 -1.4098 -0.3509
   15SAPS   C12 1867   2.037   5.243   5.723 -0.2852 -0.5612 -0.2987
   15SAPS  H12A 1868   2.125   5.216   5.781  0.2175  1.4057 -0.0504
   15SAPS   C13 1869   2.004   5.391   5.757  0.2819 -0.2121 -0.4158
   15SAPS  O13A 1870   2.016   5.483   5.677  1.0114  0.1467  0.2047
   15SAPS  O13B 1871   1.985   5.415   5.883  0.3214  0.4113 -0.0245
   15SAPS   C11 1872   1.912   5.155   5.761 -0.6611 -0.6716 -0.0472
   15SAPS  H11A 1873   1.818   5.188   5.712  0.2622  1.4711 -0.4752
   15SAPS  H11B 1874   1.888   5.180   5.866 -0.8715  2.4253 -0.7419
   15SAPS     P 1875   2.039   4.926   5.812  0.2789  0.1199  0.8282
   15SAPS   O13 1876   2.110   4.834   5.722 -0.5997 -0.6141 -0.0928
   15SAPS   O14 1877   2.126   5.014   5.896  0.0294  0.3284 -0.0337
   15SAPS   O12 1878   1.933   5.018   5.736  0.0575  0.2603  0.2392
   15SAPS   O11 1879   1.943   4.837   5.902  0.1624 -0.2718  0.0830
   15SAPS    C1 1880   1.819   4.892   5.955  0.1647  0.1373 -0.1335
   15SAPS    HA 1881   1.823   4.995   5.996 -1.9904  1.2270 -2.4024
   15SAPS    HB 1882   1.752   4.911   5.869  0.6167  0.9719 -0.3093
   15SAPS    C2 1883   1.742   4.808   6.061 -0.6098  0.1220  0.5948
   15SAPS    HS 1884   1.640   4.849   6.078 -0.7776  0.8559 -1.7233
   15SAPS   O21 1885   1.817   4.802   6.182  0.1337  0.4118  0.2952
   15SAPS   C21 1886   1.816   4.917   6.249  0.4425  0.8713  0.5040
   15SAPS   O22 1887   1.745   5.012   6.224 -0.7445 -0.3354  0.3652
   15SAPS   C22 1888   1.914   4.902   6.370 -0.6022  0.5562  0.0485
   15SAPS   H2R 1889   1.949   4.796   6.365 -1.4220  0.2213  1.0204
   15SAPS   H2S 1890   1.997   4.973   6.349  0.1389 -0.2854  0.0664
   15SAPS    C3 1891   1.729   4.661   6.009  0.1242  0.0463  0.4533
   15SAPS    HX 1892   1.821   4.622   5.961 -0.1544  0.5242 -0.5018
   15SAPS    HY 1893   1.653   4.675   5.929  0.7735 -2.2155 -0.6285
   15SAPS   O31 1894   1.673   4.574   6.100  0.1814  0.3936  0.0059
   15SAPS   C31 1895   1.759   4.501   6.170 -0.4591 -0.1784  0.4145
   15SAPS   O32 1896   1.879   4.489   6.139 -0.0514 -0.3656  0.3161
   15SAPS   C32 1897   1.691   4.435   6.289 -0.4860 -1.1305  0.2918
   15SAPS   H2X 1898   1.685   4.325   6.271  0.7661 -0.9425 -1.5588
   15SAPS   H2Y 1899   1.588   4.476   6.294  0.0181  0.0112  2.7834
   15SAPS   C23 1900   1.846   4.930   6.509  0.1454  0.7030  0.2486
   15SAPS   H3R 1901   1.801   5.032   6.505  1.1120  1.1114 -0.6524
   15SAPS   H3S 1902   1.914   4.926   6.597  1.6240  0.4708 -0.8646
   15SAPS   C24 1903   1.741   4.823   6.541  0.3132 -0.0743 -0.1665
   15SAPS   H4R 1904   1.797   4.732   6.573 -0.6811 -1.1423 -1.3553
   15SAPS   H4S 1905   1.683   4.788   6.453 -2.2914  1.9356  0.6277
   15SAPS   C25 1906   1.642   4.860   6.653 -0.1004  0.1573  0.1150
   15SAPS   H5R 1907   1.539   4.885   6.625  0.5138  0.3951 -2.0675
   15SAPS   C26 1908   1.673   4.860   6.781  0.0296  0.4772 -0.3251
   15SAPS   H6R 1909   1.597   4.881   6.858  0.9004 -1.1017  1.0336
   15SAPS   C27 1910   1.802   4.831   6.845 -1.1241  0.3466  0.3698
   15SAPS   H7R 1911   1.881   4.824   6.767 -2.4649 -0.4904 -0.9669
   15SAPS   H7S 1912   1.805   4.729   6.890  2.5767  0.3005  0.3708
   15SAPS   C28 1913   1.843   4.935   6.947  0.1011 -0.2832  0.0958
   15SAPS   H8R 1914   1.903   5.018   6.906 -2.6628  2.1294  0.6231
   15SAPS   C29 1915   1.801   4.937   7.076  0.5090  0.3832  0.4022
   15SAPS   H9R 1916   1.841   5.016   7.141 -1.3974  2.8571 -1.2587
   15SAPS  C210 1917   1.714   4.834   7.143 -0.3422 -0.2309  0.2095
   15SAPS  H10R 1918   1.772   4.764   7.207 -0.0156 -0.7381 -0.6301
   15SAPS  H10S 1919   1.662   4.767   7.072  2.1194 -1.0571 -0.9457
   15SAPS  C211 1920   1.613   4.882   7.242  0.1954  0.4406  0.4483
   15SAPS  H11R 1921   1.509   4.875   7.207 -0.1954 -0.6176  1.7062
   15SAPS  C212 1922   1.630   4.895   7.378  0.3005  0.6882 -0.1656
   15SAPS  H12R 1923   1.542   4.924   7.438  0.0591 -1.2675  0.5158
   15SAPS  C213 1924   1.760   4.865   7.452  0.0761  0.2620 -0.5115
   15SAPS  H13R 1925   1.814   4.775   7.415  1.8244  0.4818  1.3201
   15SAPS  H13S 1926   1.735   4.818   7.549  2.1391  0.2469  0.0604
   15SAPS  C214 1927   1.855   4.984   7.459 -0.5414 -1.1873  0.5112
   15SAPS  H14R 1928   1.868   5.028   7.359 -0.0484 -0.7931  0.7431
   15SAPS  C215 1929   1.921   5.036   7.569  0.2732 -0.2227  0.3054
   15SAPS  H15R 1930   1.981   5.128   7.558 -1.5743  0.9345 -0.4919
   15SAPS  C216 1931   1.906   4.986   7.712  0.6300  0.3107 -0.3688
   15SAPS  H16R 1932   1.979   4.903   7.723  3.1665  2.5473  0.9411
   15SAPS  H16S 1933   1.800   4.954   7.719  0.2815  0.7272 -2.7722
   15SAPS  C217 1934   1.930   5.099   7.819 -0.3280  0.1891  0.4285
   15SAPS  H17R 1935   1.964   5.195   7.775  0.7833 -0.4327 -0.0921
   15SAPS  H17S 1936   2.020   5.066   7.875 -1.5933  1.4484  3.4399
   15SAPS  C218 1937   1.818   5.124   7.921 -1.3771 -0.0932 -1.2819
   15SAPS  H18R 1938   1.743   5.187   7.869 -1.1228 -0.4919 -2.1505
   15SAPS  H18S 1939   1.853   5.177   8.012 -0.0443 -1.8831 -0.6950
   15SAPS  C219 1940   1.752   5.000   7.978 -0.0562  0.1193  0.1777
   15SAPS  H19R 1941   1.695   4.949   7.897 -0.5579  1.4752 -0.3482
   15SAPS  H19S 1942   1.677   5.035   8.052  1.4387  2.3669  0.7067
   15SAPS  C220 1943   1.841   4.908   8.065 -0.0572 -0.6966 -0.4637
   15SAPS  H20R 1944   1.776   4.826   8.101 -0.8237  0.1706  0.1901
   15SAPS  H20S 1945   1.883   4.962   8.154  0.7027  0.3575 -1.4317
   15SAPS  H20T 1946   1.924   4.862   8.008  0.4486  0.3526 -0.6005
   15SAPS   C33 1947   1.767   4.441   6.427 -0.1463 -1.1377  0.4087
   15SAPS   H3X 1948   1.786   4.546   6.459  0.3432 -0.5829 -1.5678
   15SAPS   H3Y 1949   1.859   4.378   6.428  1.4853  1.0611 -0.8207
   15SAPS   C34 1950   1.677   4.405   6.542  0.4918 -0.0286  0.6888
   15SAPS   H4X 1951   1.666   4.295   6.540  1.2884 -0.1035 -0.0604
   15SAPS   H4Y 1952   1.577   4.450   6.523 -0.1941 -0.4001  3.0107
   15SAPS   C35 1953   1.725   4.443   6.680  0.1817 -0.1982 -0.7205
   15SAPS   H5X 1954   1.733   4.553   6.691  0.9151 -0.4246  1.6304
   15SAPS   H5Y 1955   1.830   4.408   6.685  0.5782  1.0469 -0.1330
   15SAPS   C36 1956   1.653   4.387   6.800 -0.3625  0.2810 -0.7425
   15SAPS   H6X 1957   1.688   4.282   6.803 -0.6168  0.1956 -0.6745
   15SAPS   H6Y 1958   1.542   4.390   6.789 -0.3864  1.3921 -0.3297
   15SAPS   C37 1959   1.695   4.462   6.926 -0.1214  0.2247 -0.0262
   15SAPS   H7X 1960   1.653   4.565   6.929  1.1969  0.8044 -0.5626
   15SAPS   H7Y 1961   1.802   4.493   6.926 -0.4239  1.3074 -0.9569
   15SAPS   C38 1962   1.676   4.383   7.051 -0.3172  0.7912 -0.4254
   15SAPS   H8X 1963   1.743   4.295   7.043  1.4143  2.2233 -2.9756
   15SAPS   H8Y 1964   1.570   4.350   7.057 -0.3730  1.1886  2.5888
   15SAPS   C39 1965   1.698   4.472   7.169  0.0574 -0.8722 -0.5352
   15SAPS   H9X 1966   1.629   4.559   7.161  1.2355  0.1567  0.1488
   15SAPS   H9Y 1967   1.798   4.521   7.167 -0.6311  0.9723  2.3887
   15SAPS  C310 1968   1.674   4.392   7.296  0.1200  0.2023 -0.4561
   15SAPS  H10X 1969   1.742   4.303   7.299  0.8385  0.5793 -3.0183
   15SAPS  H10Y 1970   1.567   4.363   7.299  0.4882 -1.1579  1.1251
   15SAPS  C311 1971   1.701   4.481   7.421 -0.1098  0.4763 -0.3716
   15SAPS  H11X 1972   1.636   4.568   7.399  0.1475  0.8921  0.4640
   15SAPS  H11Y 1973   1.808   4.512   7.420  0.1913 -0.5375 -0.9496
   15SAPS  C312 1974   1.666   4.427   7.562 -0.1075  0.0647  0.6792
   15SAPS  H12X 1975   1.741   4.352   7.593 -0.2164 -0.4662 -0.3014
   15SAPS  H12Y 1976   1.566   4.378   7.555  0.0583 -0.1624 -0.1495
   15SAPS  C313 1977   1.664   4.538   7.668 -0.6333  0.0333  0.4426
   15SAPS  H13X 1978   1.607   4.621   7.621 -2.9787 -0.8377  1.5914
   15SAPS  H13Y 1979   1.769   4.569   7.686 -0.5967 -0.6431  1.4926
   15SAPS  C314 1980   1.596   4.492   7.794  0.1600  0.1893 -0.0473
   15SAPS  H14X 1981   1.603   4.381   7.802  1.4602  0.2992  0.5383
   15SAPS  H14Y 1982   1.487   4.498   7.773  0.2577 -0.7484 -0.9359
   15SAPS  C315 1983   1.644   4.546   7.932  0.2794  0.5894  0.8206
   15SAPS  H15X 1984   1.603   4.646   7.956 -0.8200  0.2462  0.4356
   15SAPS  H15Y 1985   1.755   4.551   7.940  0.1377  0.9986  3.0772
   15SAPS  C316 1986   1.599   4.467   8.049  0.1548 -0.0852 -0.6685
   15SAPS  H16X 1987   1.655   4.371   8.049 -0.0975 -0.3760  2.8478
   15SAPS  H16Y 1988   1.492   4.440   8.044  0.5358 -1.5685 -1.1874
   15SAPS  C317 1989   1.644   4.533   8.179  0.2211  0.0116  0.2274
   15SAPS  H17X 1990   1.613   4.640   8.177  0.8201  0.1902 -1.5775
   15SAPS  H17Y 1991   1.754   4.536   8.187  0.2818 -1.2400  0.0185
   15SAPS  C318 1992   1.585   4.458   8.291  1.5757  0.0146 -1.2084
   15SAPS  H18X 1993   1.478   4.483   8.301  1.8010  0.6268 -0.1217
   15SAPS  H18Y 1994   1.627   4.480   8.392 -0.9721  0.9920 -0.2994
   15SAPS  H18Z 1995   1.599   4.350   8.268  1.4779  0.2138 -2.2484
   16SAPS     N 1996   3.610   5.585   6.405 -0.3618 -0.0910 -0.3341
   16SAPS   HN1 1997   3.668   5.552   6.485 -2.9460 -2.7974  0.5963
   16SAPS   HN2 1998   3.517   5.582   6.451  0.8092  0.8189  2.3075
   16SAPS   HN3 1999   3.613   5.529   6.317 -0.7137 -1.0130  0.2292
   16SAPS   C12 2000   3.631   5.733   6.359  0.2355  0.5894  0.2013
   16SAPS  H12A 2001   3.735   5.760   6.346  1.0465 -2.5156 -0.7229
   16SAPS   C13 2002   3.564   5.759   6.224  0.1575  0.2277  0.4029
   16SAPS  O13A 2003   3.475   5.681   6.182 -0.2363 -0.2679  0.0395
   16SAPS  O13B 2004   3.582   5.871   6.175 -0.2383  0.2971 -0.8653
   16SAPS   C11 2005   3.563   5.829   6.473 -0.8429 -0.3682 -0.5093
   16SAPS  H11A 2006   3.456   5.802   6.480 -1.0274  0.3823 -0.3108
   16SAPS  H11B 2007   3.571   5.934   6.437  1.2351 -0.9494 -1.9392
   16SAPS     P 2008   3.769   5.874   6.623 -0.1952 -0.0085 -0.2821
   16SAPS   O13 2009   3.873   5.798   6.551  0.8819  0.4460 -0.2832
   16SAPS   O14 2010   3.765   6.019   6.590 -0.7545 -0.0802  0.2042
   16SAPS   O12 2011   3.627   5.810   6.600  0.3747  0.1638  0.1774
   16SAPS   O11 2012   3.785   5.844   6.778  0.2549  0.0437  0.1711
   16SAPS    C1 2013   3.706   5.760   6.852  0.0592  0.0029 -0.5162
   16SAPS    HA 2014   3.678   5.670   6.795  1.4115 -1.8946  1.6268
   16SAPS    HB 2015   3.757   5.725   6.945  0.8876  1.8986 -0.1945
   16SAPS    C2 2016   3.570   5.826   6.903  0.1334  0.1419  1.3635
   16SAPS    HS 2017   3.508   5.848   6.814  0.3625 -0.0249  1.1629
   16SAPS   O21 2018   3.595   5.942   6.979 -0.5426  0.8034  0.0125
   16SAPS   C21 2019   3.489   6.016   6.973 -0.8862 -0.0960  0.0626
   16SAPS   O22 2020   3.380   5.991   6.933  0.8368 -0.1106  0.1007
   16SAPS   C22 2021   3.512   6.123   7.079  0.6039 -0.4638  0.2208
   16SAPS   H2R 2022   3.449   6.104   7.169  0.3978  0.5298  0.3012
   16SAPS   H2S 2023   3.615   6.107   7.117  0.6768 -2.5162 -0.6891
   16SAPS    C3 2024   3.494   5.712   6.978 -0.2302 -0.7218 -0.1649
   16SAPS    HX 2025   3.488   5.620   6.915 -0.1315 -0.5716 -0.3923
   16SAPS    HY 2026   3.389   5.745   6.989 -0.0258 -0.3722  0.9259
   16SAPS   O31 2027   3.550   5.666   7.106 -0.2231  0.5513 -0.0568
   16SAPS   C31 2028   3.486   5.695   7.219  0.0349  0.4137 -0.2825
   16SAPS   O32 2029   3.377   5.749   7.227  0.6824  0.6220  0.1423
   16SAPS   C32 2030   3.579   5.652   7.336 -0.4338  0.6499  0.0916
   16SAPS   H2X 2031   3.668   5.718   7.336 -0.7710  1.1153 -0.0876
   16SAPS   H2Y 2032   3.617   5.552   7.308  0.3061  1.3519 -1.5279
   16SAPS   C23 2033   3.489   6.274   7.029  0.1875  0.0107 -0.2023
   16SAPS   H3R 2034   3.384   6.276   6.994 -0.9201 -0.8833  2.7919
   16SAPS   H3S 2035   3.562   6.296   6.948 -1.3895  2.3859 -1.0758
   16SAPS   C24 2036   3.490   6.369   7.148  0.0256 -0.7272 -0.3694
   16SAPS   H4R 2037   3.423   6.320   7.222 -1.8558  3.4418  0.9892
   16SAPS   H4S 2038   3.435   6.461   7.120  0.2874 -0.5867 -0.4307
   16SAPS   C25 2039   3.619   6.404   7.214  0.9337  0.0541  0.3557
   16SAPS   H5R 2040   3.706   6.407   7.147  1.3018 -0.4394  0.8066
   16SAPS   C26 2041   3.639   6.438   7.343 -0.0229 -0.0996  0.1952
   16SAPS   H6R 2042   3.746   6.448   7.362  0.2865 -0.7105 -1.1074
   16SAPS   C27 2043   3.542   6.457   7.453 -0.2636  0.8404 -0.1511
   16SAPS   H7R 2044   3.585   6.445   7.554 -0.8705 -0.9957 -0.0742
   16SAPS   H7S 2045   3.456   6.387   7.450  0.7094 -0.4079 -0.3839
   16SAPS   C28 2046   3.487   6.594   7.445  0.0110 -0.1477 -0.2112
   16SAPS   H8R 2047   3.496   6.643   7.347 -3.1827  0.1476 -0.4377
   16SAPS   C29 2048   3.422   6.657   7.548 -0.3268  0.9226  0.5372
   16SAPS   H9R 2049   3.374   6.755   7.535 -1.0493  0.3374 -1.7594
   16SAPS  C210 2050   3.406   6.586   7.679 -0.0705  0.7692 -0.8108
   16SAPS  H10R 2051   3.504   6.569   7.729  0.4003 -0.6861 -2.1506
   16SAPS  H10S 2052   3.346   6.493   7.664  1.0657 -0.1043 -0.1355
   16SAPS  C211 2053   3.334   6.669   7.782 -0.6280  0.2314 -0.2475
   16SAPS  H11R 2054   3.310   6.775   7.766 -0.9780  0.6971  2.8406
   16SAPS  C212 2055   3.272   6.622   7.886  0.4456 -0.1473  0.6645
   16SAPS  H12R 2056   3.199   6.687   7.936 -0.9737  0.7192 -2.3039
   16SAPS  C213 2057   3.260   6.476   7.935  0.2581  0.1943 -0.1071
   16SAPS  H13R 2058   3.239   6.408   7.850 -0.2453  0.5340 -0.2557
   16SAPS  H13S 2059   3.176   6.459   8.005  0.6822 -2.2533 -0.1141
   16SAPS  C214 2060   3.381   6.433   8.016  0.1468 -0.5239 -0.4468
   16SAPS  H14R 2061   3.451   6.376   7.953 -0.0275  1.7726 -2.8967
   16SAPS  C215 2062   3.400   6.460   8.146  0.2574  0.2096 -0.3793
   16SAPS  H15R 2063   3.487   6.414   8.193  0.1020  1.4129  1.1849
   16SAPS  C216 2064   3.319   6.540   8.243  0.6316  0.0356  0.0317
   16SAPS  H16R 2065   3.294   6.475   8.329  1.1532 -0.0041  0.1575
   16SAPS  H16S 2066   3.229   6.582   8.194 -0.0264  0.9578  1.9338
   16SAPS  C217 2067   3.395   6.663   8.296 -0.0581  0.0351 -0.8032
   16SAPS  H17R 2068   3.408   6.732   8.210  0.8740 -0.6341 -1.2168
   16SAPS  H17S 2069   3.492   6.635   8.342  0.1714 -1.7366 -2.2395
   16SAPS  C218 2070   3.341   6.748   8.413  0.7271  0.1644 -0.3186
   16SAPS  H18R 2071   3.250   6.798   8.374  0.1126  1.4268  2.4755
   16SAPS  H18S 2072   3.416   6.824   8.441 -1.3549  2.0451  0.4634
   16SAPS  C219 2073   3.289   6.668   8.537 -0.0284 -0.3242 -0.4296
   16SAPS  H19R 2074   3.369   6.605   8.583 -1.0139 -1.3898 -0.1440
   16SAPS  H19S 2075   3.208   6.606   8.496 -0.5535  1.8720 -3.0115
   16SAPS  C220 2076   3.243   6.773   8.646 -0.3801  0.0541  0.1256
   16SAPS  H20R 2077   3.319   6.846   8.680  0.8768 -2.3931  2.9566
   16SAPS  H20S 2078   3.216   6.707   8.731 -1.6916  0.4194  0.0207
   16SAPS  H20T 2079   3.149   6.827   8.618 -1.0919 -0.0234  2.2061
   16SAPS   C33 2080   3.500   5.660   7.467  0.6615  0.0622 -0.6365
   16SAPS   H3X 2081   3.418   5.586   7.472  0.1986  0.6515  1.2336
   16SAPS   H3Y 2082   3.446   5.757   7.472 -0.1559 -0.3756 -0.7835
   16SAPS   C34 2083   3.592   5.646   7.591 -0.6595 -0.1759  0.7186
   16SAPS   H4X 2084   3.689   5.700   7.582 -0.4602 -0.4925  0.9542
   16SAPS   H4Y 2085   3.624   5.540   7.591 -1.2112 -0.3774 -1.4806
   16SAPS   C35 2086   3.522   5.671   7.721  0.3550 -0.1196  1.2552
   16SAPS   H5X 2087   3.436   5.601   7.720 -0.3158  0.6700 -0.0920
   16SAPS   H5Y 2088   3.498   5.780   7.720 -1.2238 -0.4084 -1.1631
   16SAPS   C36 2089   3.615   5.650   7.841 -0.2317  0.9505 -0.3759
   16SAPS   H6X 2090   3.691   5.729   7.825 -1.2996  1.9304 -0.8130
   16SAPS   H6Y 2091   3.663   5.552   7.858 -1.4545  0.2287 -0.9661
   16SAPS   C37 2092   3.542   5.689   7.970 -0.4867  0.3403  0.1005
   16SAPS   H7X 2093   3.451   5.624   7.972 -2.6813  3.2083 -0.1032
   16SAPS   H7Y 2094   3.489   5.787   7.970 -0.3687  0.4481 -2.0707
   16SAPS   C38 2095   3.621   5.652   8.094  0.0614 -1.0253 -0.9258
   16SAPS   H8X 2096   3.708   5.720   8.102  0.3051 -1.5469  3.3827
   16SAPS   H8Y 2097   3.641   5.543   8.094 -0.7399 -1.2067 -2.5607
   16SAPS   C39 2098   3.553   5.698   8.226  0.3324  0.4931 -0.4740
   16SAPS   H9X 2099   3.617   5.663   8.310  1.9451 -0.5625 -2.0707
   16SAPS   H9Y 2100   3.468   5.626   8.235  1.0261 -0.3550 -0.5206
   16SAPS  C310 2101   3.506   5.849   8.234 -0.0721 -0.3018 -0.7778
   16SAPS  H10X 2102   3.462   5.863   8.335 -0.6461 -0.2689 -1.0263
   16SAPS  H10Y 2103   3.418   5.862   8.168 -0.7371  1.2689  0.3428
   16SAPS  C311 2104   3.607   5.951   8.192  0.3094  0.5516  0.2272
   16SAPS  H11X 2105   3.605   5.964   8.082 -0.6158  0.3206  0.2005
   16SAPS  H11Y 2106   3.710   5.922   8.220  0.5390  0.6777 -0.4776
   16SAPS  C312 2107   3.579   6.076   8.272  0.2580 -0.3280 -0.2853
   16SAPS  H12X 2108   3.473   6.109   8.274  0.4993  0.5171  2.2038
   16SAPS  H12Y 2109   3.637   6.156   8.221  0.8141  0.0711  0.9342
   16SAPS  C313 2110   3.615   6.066   8.423 -0.2222  0.5140  0.2543
   16SAPS  H13X 2111   3.725   6.060   8.432 -0.1986  1.0036  0.3274
   16SAPS  H13Y 2112   3.572   5.973   8.464 -2.4458  0.4775 -1.8842
   16SAPS  C314 2113   3.577   6.182   8.506  0.2817 -0.4771  0.1436
   16SAPS  H14X 2114   3.466   6.190   8.509  0.3926  1.6332 -0.0087
   16SAPS  H14Y 2115   3.607   6.271   8.446 -1.3028 -1.0939 -1.6679
   16SAPS  C315 2116   3.640   6.178   8.646 -0.1900 -0.4504  0.4487
   16SAPS  H15X 2117   3.746   6.146   8.647 -0.0526 -0.0150  0.4289
   16SAPS  H15Y 2118   3.584   6.109   8.712 -0.3267 -0.3252  0.4651
   16SAPS  C316 2119   3.647   6.327   8.704  0.4950  0.2664 -0.1248
   16SAPS  H16X 2120   3.716   6.389   8.643  3.0735 -1.2577  1.0932
   16SAPS  H16Y 2121   3.695   6.309   8.803 -2.4232 -2.6531  0.9402
   16SAPS  C317 2122   3.511   6.381   8.714  0.0345 -1.0705  0.1570
   16SAPS  H17X 2123   3.451   6.296   8.754 -1.1919  0.5274  1.8897
   16SAPS  H17Y 2124   3.478   6.409   8.611 -2.5417  0.9778  1.4022
   16SAPS  C318 2125   3.495   6.507   8.804 -0.2178 -0.6383  0.0909
   16SAPS  H18X 2126   3.567   6.589   8.781  1.6039 -2.4580 -0.9853
   16SAPS  H18Y 2127   3.522   6.480   8.908  1.5217  0.8769  0.0830
   16SAPS  H18Z 2128   3.396   6.558   8.802  1.6369  3.3646 -1.3335
   17SAPC     N 2129   6.441   3.879  10.579  0.5041 -0.0064 -0.0964
   17SAPC   C12 2130   6.383   4.009  10.628 -0.1341 -0.3551 -0.1303
   17SAPC  H12A 2131   6.369   4.012  10.735 -2.1504 -0.2418 -0.3622
   17SAPC  H12B 2132   6.282   4.021  10.592  0.2668  2.4007 -0.5745
   17SAPC   C13 2133   6.437   3.881  10.429  0.0578  0.0909 -0.3590
   17SAPC  H13A 2134   6.488   3.797  10.385  1.3115  0.1499  0.9393
   17SAPC  H13B 2135   6.341   3.895  10.382  0.9289 -0.6246 -2.4816
   17SAPC  H13C 2136   6.489   3.969  10.395 -1.4331  1.5692  1.0070
   17SAPC   C14 2137   6.586   3.866  10.619  0.1775  0.2892 -0.2728
   17SAPC  H14A 2138   6.601   3.864  10.726 -1.4288  0.1762 -0.0341
   17SAPC  H14B 2139   6.627   3.772  10.583  1.1140  1.9852 -4.2403
   17SAPC  H14C 2140   6.652   3.937  10.572  0.7172  0.0557  0.1222
   17SAPC   C15 2141   6.366   3.755  10.626  0.6612 -0.4135  0.2283
   17SAPC  H15A 2142   6.262   3.765  10.597 -0.0121 -0.2511  2.4865
   17SAPC  H15B 2143   6.402   3.669  10.572  0.9839  0.0072 -0.2386
   17SAPC  H15C 2144   6.360   3.743  10.733  1.0861  0.3294  0.3447
   17SAPC   C11 2145   6.458   4.137  10.590 -0.4550  0.3976  0.2011
   17SAPC  H11A 2146   6.567   4.146  10.605 -0.5156  3.9683 -0.6872
   17SAPC  H11B 2147   6.419   4.217  10.657 -1.8627 -2.1253  2.6360
   17SAPC     P 2148   6.529   4.227  10.356 -0.2161 -0.0290  0.3842
   17SAPC   O13 2149   6.579   4.368  10.384  0.6964  0.1717 -0.2684
   17SAPC   O14 2150   6.631   4.123  10.347 -0.4075  0.9241 -0.2996
   17SAPC   O12 2151   6.427   4.173  10.460 -0.1197  0.3076  0.5913
   17SAPC   O11 2152   6.450   4.237  10.215 -0.4004 -0.0043 -0.3124
   17SAPC    C1 2153   6.396   4.123  10.148  0.0527 -0.4708  0.3850
   17SAPC    HA 2154   6.393   4.031  10.210 -3.2610 -0.3253  0.6317
   17SAPC    HB 2155   6.288   4.142  10.132  0.1527 -0.3737 -0.1931
   17SAPC    C2 2156   6.469   4.073  10.019  0.2871 -0.0736  0.1374
   17SAPC    HS 2157   6.574   4.064  10.054 -0.5582 -1.5449  2.5175
   17SAPC   O21 2158   6.435   4.165   9.915 -0.2498  0.0972 -0.5187
   17SAPC   C21 2159   6.533   4.199   9.842  0.1007  0.0342  0.2157
   17SAPC   O22 2160   6.652   4.168   9.853  0.3325 -0.0515  0.1587
   17SAPC   C22 2161   6.477   4.288   9.732 -0.2890 -0.5647 -0.6141
   17SAPC   H2R 2162   6.439   4.381   9.777  3.1684  0.6399  0.1538
   17SAPC   H2S 2163   6.569   4.326   9.682 -1.3418  0.1087 -2.0898
   17SAPC    C3 2164   6.410   3.934   9.972 -0.6402  0.4139 -0.7499
   17SAPC    HX 2165   6.309   3.966   9.938 -0.0724  1.0633 -1.9060
   17SAPC    HY 2166   6.410   3.866  10.060  0.2009 -0.1004 -1.1383
   17SAPC   O31 2167   6.479   3.874   9.869 -0.2234  0.2939  0.3527
   17SAPC   C31 2168   6.580   3.785   9.897 -0.4430  0.2909 -0.6150
   17SAPC   O32 2169   6.625   3.765  10.010  0.0287  0.0571 -0.3665
   17SAPC   C32 2170   6.632   3.715   9.768  0.5770  0.0828  0.4320
   17SAPC   H2X 2171   6.666   3.612   9.792 -0.4699 -0.5933 -0.8699
   17SAPC   H2Y 2172   6.716   3.770   9.719  0.9041  0.8703  1.8389
   17SAPC   C23 2173   6.390   4.230   9.618 -0.3160 -0.1176  0.1542
   17SAPC   H3R 2174   6.290   4.204   9.659  0.1170 -1.6818  0.2855
   17SAPC   H3S 2175   6.438   4.137   9.580  2.9043  2.1829 -1.9762
   17SAPC   C24 2176   6.373   4.330   9.501 -0.1668  0.7758  0.3864
   17SAPC   H4R 2177   6.333   4.424   9.545 -0.1124 -0.1449  2.5353
   17SAPC   H4S 2178   6.302   4.279   9.433 -0.4269  0.1547  1.1082
   17SAPC   C25 2179   6.493   4.370   9.421 -0.5826  0.2446 -0.0249
   17SAPC   H5R 2180   6.570   4.420   9.481 -1.0545 -1.5022  2.1744
   17SAPC   C26 2181   6.519   4.349   9.294 -0.4946 -0.5479 -0.4317
   17SAPC   H6R 2182   6.601   4.405   9.246 -2.8049  2.4472 -1.1228
   17SAPC   C27 2183   6.433   4.278   9.188 -0.3622 -0.1633 -0.0489
   17SAPC   H7R 2184   6.364   4.351   9.140  2.3399 -0.0225 -4.2013
   17SAPC   H7S 2185   6.373   4.198   9.237 -1.2916  1.5810  1.8378
   17SAPC   C28 2186   6.515   4.198   9.092  0.0520  0.6533  0.2056
   17SAPC   H8R 2187   6.527   4.095   9.128 -2.9623  0.7766  1.8267
   17SAPC   C29 2188   6.577   4.235   8.975 -0.0238  0.4049  0.0843
   17SAPC   H9R 2189   6.629   4.149   8.930 -0.5988 -0.3383  0.7948
   17SAPC  C210 2190   6.579   4.364   8.897 -0.1807  0.7246  0.8234
   17SAPC  H10R 2191   6.678   4.414   8.906  0.4574  0.1412 -1.9436
   17SAPC  H10S 2192   6.514   4.439   8.946  0.3414  0.7735  1.4558
   17SAPC  C211 2193   6.524   4.350   8.752 -0.3603  0.0095  0.1576
   17SAPC  H11R 2194   6.416   4.333   8.740 -0.1438 -1.2624 -0.1551
   17SAPC  C212 2195   6.603   4.341   8.639  0.1567 -0.4881  0.1297
   17SAPC  H12R 2196   6.559   4.337   8.539  0.3499  1.1707 -0.0435
   17SAPC  C213 2197   6.757   4.365   8.642 -0.3539  0.9885 -0.8570
   17SAPC  H13R 2198   6.810   4.291   8.579  0.7794 -0.1761  1.3587
   17SAPC  H13S 2199   6.795   4.351   8.745 -1.8199 -0.3989 -0.4838
   17SAPC  C214 2200   6.794   4.508   8.598  0.5994  0.0824  0.4937
   17SAPC  H14R 2201   6.800   4.581   8.681 -2.5345  2.7809 -1.3934
   17SAPC  C215 2202   6.805   4.548   8.469 -0.9125 -0.0680 -0.3543
   17SAPC  H15R 2203   6.833   4.652   8.448  0.1549 -0.1901  0.3653
   17SAPC  C216 2204   6.790   4.442   8.358 -0.6055 -0.5332  0.1319
   17SAPC  H16R 2205   6.682   4.419   8.371 -0.6718 -0.2216  0.1443
   17SAPC  H16S 2206   6.843   4.349   8.387 -3.5106 -1.7718  1.9288
   17SAPC  C217 2207   6.816   4.500   8.213  0.9868 -0.5841 -0.0226
   17SAPC  H17R 2208   6.729   4.562   8.181  0.5738 -0.0533  1.9842
   17SAPC  H17S 2209   6.797   4.416   8.143 -0.5311 -2.1957  2.1887
   17SAPC  C218 2210   6.947   4.581   8.191 -0.0783  0.0123 -0.1038
   17SAPC  H18R 2211   7.031   4.509   8.195 -1.4266 -1.6135  0.1511
   17SAPC  H18S 2212   6.953   4.656   8.273 -1.6225  0.3321 -0.2378
   17SAPC  C219 2213   6.937   4.663   8.060 -0.2867 -0.1225  0.0652
   17SAPC  H19R 2214   6.832   4.693   8.038  0.1854  2.8590  1.3677
   17SAPC  H19S 2215   6.966   4.589   7.983 -0.2564 -1.1558  1.0318
   17SAPC  C220 2216   7.028   4.789   8.049  0.3034 -0.1961  1.1081
   17SAPC  H20R 2217   7.000   4.849   7.960 -1.0658 -0.2986  1.4560
   17SAPC  H20S 2218   7.136   4.762   8.050  0.8208  1.5758 -0.4048
   17SAPC  H20T 2219   7.014   4.860   8.133 -3.0453 -1.2528  1.5952
   17SAPC   C33 2220   6.522   3.700   9.664  0.1230 -0.7376 -0.3011
   17SAPC   H3X 2221   6.459   3.792   9.656 -0.6549 -1.1307  0.9724
   17SAPC   H3Y 2222   6.453   3.615   9.681 -2.2299  1.1781  0.3451
   17SAPC   C34 2223   6.570   3.680   9.516  0.5854  0.3174 -0.1466
   17SAPC   H4X 2224   6.476   3.645   9.469  0.1945  0.6505  0.3731
   17SAPC   H4Y 2225   6.647   3.600   9.506  0.3010  0.1534 -1.1125
   17SAPC   C35 2226   6.625   3.798   9.441 -0.1196  0.4167 -0.2318
   17SAPC   H5X 2227   6.733   3.810   9.463  0.0716  1.4679 -1.6713
   17SAPC   H5Y 2228   6.574   3.889   9.478 -0.2832  0.1522  0.2082
   17SAPC   C36 2229   6.605   3.796   9.288  0.1761  0.5223 -0.4178
   17SAPC   H6X 2230   6.659   3.887   9.254  2.3340  0.2046  1.8284
   17SAPC   H6Y 2231   6.495   3.804   9.271  0.2057  1.5391 -0.1846
   17SAPC   C37 2232   6.668   3.684   9.207 -0.0547  0.5434  0.0833
   17SAPC   H7X 2233   6.615   3.586   9.210  1.3615 -0.2357  0.5424
   17SAPC   H7Y 2234   6.758   3.659   9.266 -0.9436  0.9210  1.6868
   17SAPC   C38 2235   6.690   3.712   9.061 -0.8032 -0.3427 -0.1764
   17SAPC   H8X 2236   6.735   3.625   9.009  0.9175  1.7521 -2.4232
   17SAPC   H8Y 2237   6.756   3.799   9.042 -0.3108 -0.5297  0.6194
   17SAPC   C39 2238   6.565   3.751   8.986  0.7426  0.0717  0.0108
   17SAPC   H9X 2239   6.524   3.846   9.025  0.6465  0.1055 -0.1697
   17SAPC   H9Y 2240   6.485   3.674   8.980  1.2041 -0.9025  3.7846
   17SAPC  C310 2241   6.605   3.771   8.831 -0.3941 -1.0525 -0.2798
   17SAPC  H10X 2242   6.631   3.672   8.787 -3.0891 -1.1569 -1.7805
   17SAPC  H10Y 2243   6.693   3.839   8.842 -0.8492 -0.7726  2.4350
   17SAPC  C311 2244   6.496   3.843   8.750  0.1829 -0.2857  0.2607
   17SAPC  H11X 2245   6.481   3.942   8.799 -1.3783 -0.2097 -0.2917
   17SAPC  H11Y 2246   6.397   3.794   8.765  0.5790 -0.4724  2.4958
   17SAPC  C312 2247   6.543   3.873   8.602  0.1066  0.7568 -0.7929
   17SAPC  H12X 2248   6.452   3.917   8.556 -0.4705  1.3157  0.8414
   17SAPC  H12Y 2249   6.563   3.771   8.561  1.4094  0.8066 -0.3322
   17SAPC  C313 2250   6.668   3.961   8.575  0.4689 -0.5638  0.0656
   17SAPC  H13X 2251   6.759   3.926   8.629  1.2731  2.2496  0.7201
   17SAPC  H13Y 2252   6.653   4.066   8.607  0.5659 -0.5673  0.1235
   17SAPC  C314 2253   6.699   3.986   8.427 -0.9922  0.9247  0.4432
   17SAPC  H14X 2254   6.625   4.059   8.387  0.3076  1.2220 -1.5771
   17SAPC  H14Y 2255   6.678   3.891   8.373  0.6634  0.5529  0.4190
   17SAPC  C315 2256   6.834   4.031   8.388  0.2802 -0.2778 -0.9148
   17SAPC  H15X 2257   6.917   3.960   8.409 -0.3697 -1.5607 -2.4291
   17SAPC  H15Y 2258   6.851   4.130   8.433 -0.7550 -0.6980  0.4520
   17SAPC  C316 2259   6.844   4.053   8.234 -1.2699 -0.2837  0.0373
   17SAPC  H16X 2260   6.753   4.107   8.200 -0.1907  1.0805 -0.7927
   17SAPC  H16Y 2261   6.864   3.960   8.177  1.5395  0.6125 -0.6300
   17SAPC  C317 2262   6.976   4.136   8.197  0.4172 -0.0411 -0.3439
   17SAPC  H17X 2263   7.059   4.073   8.236 -0.1531 -1.9416 -1.9914
   17SAPC  H17Y 2264   6.959   4.235   8.243  1.3972 -0.0856  0.1514
   17SAPC  C318 2265   6.994   4.152   8.041  0.1050 -0.5328  0.1095
   17SAPC  H18X 2266   6.901   4.204   8.008 -0.4895 -1.0167  0.9647
   17SAPC  H18Y 2267   7.091   4.206   8.030  0.9500 -2.3788 -2.2312
   17SAPC  H18Z 2268   7.008   4.051   8.000  1.9129 -0.5285  0.6419
   18SAPC     N 2269   0.556   2.924  10.580  0.0673  0.1048  0.0129
   18SAPC   C12 2270   0.571   2.980  10.445 -0.1146  0.1542  0.0940
   18SAPC  H12A 2271   0.475   3.001  10.401  0.9833  2.0923 -1.5162
   18SAPC  H12B 2272   0.615   2.907  10.379 -0.0018  0.6546 -0.3868
   18SAPC   C13 2273   0.482   3.012  10.677  0.6321  0.2782  0.0840
   18SAPC  H13A 2274   0.493   2.985  10.780 -1.6543 -0.5260  0.1757
   18SAPC  H13B 2275   0.516   3.114  10.666  1.5560  0.1933  1.9194
   18SAPC  H13C 2276   0.375   3.010  10.660  0.3722 -0.3906  1.6611
   18SAPC   C14 2277   0.477   2.789  10.580 -0.9656  0.1561  0.4027
   18SAPC  H14A 2278   0.450   2.784  10.684 -0.8838  2.6285  0.6152
   18SAPC  H14B 2279   0.394   2.790  10.511  0.1814 -0.5817 -1.0534
   18SAPC  H14C 2280   0.541   2.715  10.536 -0.0065 -1.3556  4.0039
   18SAPC   C15 2281   0.689   2.896  10.645 -0.0608  0.0077 -0.3442
   18SAPC  H15A 2282   0.682   2.833  10.733 -1.2578  2.0370  1.0912
   18SAPC  H15B 2283   0.752   2.842  10.576  0.2750  0.4586 -0.3920
   18SAPC  H15C 2284   0.737   2.989  10.671 -0.6082  0.3925 -0.6921
   18SAPC   C11 2285   0.648   3.113  10.418  0.0686 -0.3854  0.1181
   18SAPC  H11A 2286   0.667   3.126  10.310 -1.5258 -2.2160 -0.4351
   18SAPC  H11B 2287   0.746   3.096  10.470 -0.2529 -2.2020  0.2024
   18SAPC     P 2288   0.638   3.363  10.492  0.0871  0.1189 -0.1392
   18SAPC   O13 2289   0.528   3.466  10.490  0.5909 -0.2610 -0.3313
   18SAPC   O14 2290   0.713   3.360  10.619 -0.0895 -0.4411  0.1533
   18SAPC   O12 2291   0.577   3.223  10.467 -0.4365  0.1942  0.3267
   18SAPC   O11 2292   0.739   3.387  10.376 -0.5069  0.0116  0.0912
   18SAPC    C1 2293   0.756   3.511  10.310 -0.4617  0.5821  0.5566
   18SAPC    HA 2294   0.753   3.601  10.374  0.1552  2.0121 -1.3441
   18SAPC    HB 2295   0.859   3.514  10.268  0.9152  0.6653  3.6473
   18SAPC    C2 2296   0.659   3.534  10.189 -0.0916  0.1571 -0.7103
   18SAPC    HS 2297   0.554   3.523  10.222 -0.1583 -0.0960 -0.9973
   18SAPC   O21 2298   0.691   3.440  10.085 -0.2238 -0.3532 -0.1254
   18SAPC   C21 2299   0.618   3.328  10.095 -0.1249  0.3508  0.5630
   18SAPC   O22 2300   0.514   3.313  10.146 -0.1442 -0.3984  0.1810
   18SAPC   C22 2301   0.706   3.219  10.037 -0.4951 -0.6582  0.7320
   18SAPC   H2R 2302   0.790   3.266   9.982 -1.1628 -0.9079 -0.5392
   18SAPC   H2S 2303   0.746   3.162  10.124 -1.2081  0.2505  1.6859
   18SAPC    C3 2304   0.681   3.679  10.128 -0.3508 -0.4793  0.0462
   18SAPC    HX 2305   0.784   3.687  10.088 -1.1770 -1.8599 -2.6235
   18SAPC    HY 2306   0.663   3.759  10.203 -0.9890  1.0677 -1.6835
   18SAPC   O31 2307   0.590   3.704  10.017 -0.7962  0.3079  0.5153
   18SAPC   C31 2308   0.472   3.749  10.052  0.0565 -0.5251  0.1844
   18SAPC   O32 2309   0.446   3.793  10.161 -0.2933  0.2811  0.4036
   18SAPC   C32 2310   0.371   3.723   9.932  0.0062  0.5513  0.3893
   18SAPC   H2X 2311   0.426   3.711   9.836 -2.0486 -1.3017 -0.6454
   18SAPC   H2Y 2312   0.293   3.802   9.938 -0.3805  0.2694 -0.7203
   18SAPC   C23 2313   0.638   3.142   9.924  0.1419  0.0749 -0.0120
   18SAPC   H3R 2314   0.537   3.105   9.950  1.1704 -2.5422  0.6097
   18SAPC   H3S 2315   0.698   3.059   9.880  0.2055 -1.2006  2.2996
   18SAPC   C24 2316   0.589   3.232   9.799  0.1288 -0.3397  0.7576
   18SAPC   H4R 2317   0.520   3.298   9.856  0.1001 -1.8258  2.5515
   18SAPC   H4S 2318   0.532   3.174   9.724  0.5818 -0.0090  0.1483
   18SAPC   C25 2319   0.708   3.319   9.743  0.0297 -0.4913  0.5366
   18SAPC   H5R 2320   0.732   3.410   9.800  0.6118  0.2892 -0.8987
   18SAPC   C26 2321   0.774   3.311   9.622  1.0157  0.3587 -0.3628
   18SAPC   H6R 2322   0.849   3.391   9.615  1.0341  0.2248 -1.9048
   18SAPC   C27 2323   0.751   3.204   9.515 -0.1252  0.9439  0.1286
   18SAPC   H7R 2324   0.677   3.130   9.549  0.5696 -0.2652 -0.9012
   18SAPC   H7S 2325   0.847   3.150   9.497 -1.8860 -1.8876 -1.4779
   18SAPC   C28 2326   0.702   3.252   9.379 -0.3298 -0.3875  0.3681
   18SAPC   H8R 2327   0.595   3.275   9.386 -0.1748  0.3230  0.4960
   18SAPC   C29 2328   0.764   3.253   9.258  0.3532  0.6032 -0.1418
   18SAPC   H9R 2329   0.712   3.295   9.170 -1.8819  1.6095  1.5729
   18SAPC  C210 2330   0.906   3.218   9.226  0.2965 -0.6383  0.5077
   18SAPC  H10R 2331   0.973   3.188   9.309  0.6489  1.5737  1.0683
   18SAPC  H10S 2332   0.951   3.309   9.180  1.3221 -2.0949 -1.5653
   18SAPC  C211 2333   0.905   3.111   9.120 -0.0574  0.1320 -0.1704
   18SAPC  H11R 2334   0.867   3.016   9.162 -1.4715 -1.3909 -4.3652
   18SAPC  C212 2335   0.947   3.106   8.992 -0.2387 -0.8361  0.3666
   18SAPC  H12R 2336   0.930   3.012   8.939  1.9716 -0.5140 -1.0294
   18SAPC  C213 2337   0.997   3.227   8.916 -0.0345 -0.0983 -0.2735
   18SAPC  H13R 2338   1.107   3.228   8.901  0.1600  1.1660  0.9938
   18SAPC  H13S 2339   0.982   3.325   8.966 -1.3118 -0.2467 -0.3302
   18SAPC  C214 2340   0.928   3.227   8.781  0.2886 -0.4253  0.5750
   18SAPC  H14R 2341   0.820   3.210   8.792  0.2118 -0.5665 -0.3117
   18SAPC  C215 2342   0.973   3.252   8.657  0.3709  0.0119  0.6372
   18SAPC  H15R 2343   0.905   3.232   8.573 -0.2850 -1.0178  1.3778
   18SAPC  C216 2344   1.114   3.280   8.615 -1.0727  0.0062 -0.4910
   18SAPC  H16R 2345   1.181   3.236   8.692 -0.0421 -2.0089 -2.4326
   18SAPC  H16S 2346   1.127   3.391   8.616  0.9838 -0.1947  0.7762
   18SAPC  C217 2347   1.166   3.234   8.484 -0.1948 -0.0297  0.5850
   18SAPC  H17R 2348   1.266   3.276   8.465 -0.8504  0.9904 -0.8486
   18SAPC  H17S 2349   1.100   3.275   8.404  0.6673  0.7617  0.2649
   18SAPC  C218 2350   1.174   3.079   8.478 -0.4716 -0.0921 -0.6702
   18SAPC  H18R 2351   1.074   3.032   8.482  0.4980 -2.2001 -0.0114
   18SAPC  H18S 2352   1.235   3.033   8.558 -0.2679  0.0591 -0.7364
   18SAPC  C219 2353   1.231   3.047   8.335  0.3134 -0.2814 -0.1287
   18SAPC  H19R 2354   1.332   3.094   8.328  0.0319  0.6057  1.2832
   18SAPC  H19S 2355   1.161   3.097   8.264 -2.8960 -2.5355  1.2317
   18SAPC  C220 2356   1.258   2.900   8.294 -0.3583  0.8229  0.2015
   18SAPC  H20R 2357   1.369   2.886   8.300 -0.4023 -0.8120 -1.8453
   18SAPC  H20S 2358   1.220   2.885   8.191 -0.4294 -0.2802  0.3817
   18SAPC  H20T 2359   1.223   2.828   8.372  0.5863  1.7344  1.5307
   18SAPC   C33 2360   0.294   3.591   9.941  0.1634  0.1909 -1.0591
   18SAPC   H3X 2361   0.248   3.578  10.041 -2.5106 -3.4573 -2.5304
   18SAPC   H3Y 2362   0.357   3.499   9.932 -3.0455 -2.1247 -1.4756
   18SAPC   C34 2363   0.180   3.574   9.841  0.1585 -0.1732 -0.2472
   18SAPC   H4X 2364   0.100   3.640   9.880 -1.5676 -1.2593 -1.7942
   18SAPC   H4Y 2365   0.137   3.473   9.855  1.9801 -1.2978 -2.0934
   18SAPC   C35 2366   0.223   3.586   9.687  0.5355 -0.4453 -0.4898
   18SAPC   H5X 2367   0.271   3.685   9.670  1.2707 -1.1280 -2.8147
   18SAPC   H5Y 2368   0.134   3.596   9.622  2.5623  2.4272 -3.1357
   18SAPC   C36 2369   0.306   3.458   9.632 -0.4574 -1.2180  0.3701
   18SAPC   H6X 2370   0.234   3.374   9.643 -0.8024 -0.9166  0.4319
   18SAPC   H6Y 2371   0.394   3.440   9.698 -1.6066 -2.0165  1.7383
   18SAPC   C37 2372   0.356   3.473   9.485 -0.2449  0.0064  0.3383
   18SAPC   H7X 2373   0.426   3.392   9.457  0.4680  0.4295  0.8647
   18SAPC   H7Y 2374   0.412   3.570   9.481 -1.6389  0.8562  0.6508
   18SAPC   C38 2375   0.250   3.469   9.375  0.0292  0.8387 -0.2637
   18SAPC   H8X 2376   0.188   3.561   9.379  0.8352  1.3293  1.6083
   18SAPC   H8Y 2377   0.178   3.387   9.396  0.7076 -0.3343 -2.2347
   18SAPC   C39 2378   0.301   3.461   9.228 -0.9602 -0.3268  0.3556
   18SAPC   H9X 2379   0.225   3.507   9.162  0.9185 -0.9343 -2.3937
   18SAPC   H9Y 2380   0.307   3.353   9.205  1.8268 -0.0851 -0.3604
   18SAPC  C310 2381   0.431   3.532   9.193 -0.4031  0.3090 -0.2034
   18SAPC  H10X 2382   0.520   3.493   9.246  0.9080  2.0548 -1.0299
   18SAPC  H10Y 2383   0.427   3.636   9.233  0.4350 -0.7596  2.8971
   18SAPC  C311 2384   0.458   3.527   9.043  0.3975  0.6422 -0.1760
   18SAPC  H11X 2385   0.540   3.594   9.011 -0.4904  1.8062 -0.0642
   18SAPC  H11Y 2386   0.365   3.567   8.997 -2.0186 -0.3753  3.3977
   18SAPC  C312 2387   0.477   3.374   8.994 -0.0397  0.1039 -0.7210
   18SAPC  H12X 2388   0.378   3.323   8.989 -0.5779  1.1736 -1.7239
   18SAPC  H12Y 2389   0.545   3.309   9.052  0.3294 -0.2561 -1.5525
   18SAPC  C313 2390   0.530   3.384   8.850 -0.1260 -0.2705  0.1675
   18SAPC  H13X 2391   0.635   3.422   8.855 -0.5489  1.0824 -0.7779
   18SAPC  H13Y 2392   0.468   3.467   8.810 -1.4016 -0.7015  1.2039
   18SAPC  C314 2393   0.512   3.261   8.768 -0.0197 -1.0081 -0.2020
   18SAPC  H14X 2394   0.420   3.214   8.809 -0.0270 -1.3095 -0.5611
   18SAPC  H14Y 2395   0.583   3.181   8.796 -0.1188 -1.3621 -0.9415
   18SAPC  C315 2396   0.518   3.279   8.620 -0.3908  0.2088 -0.4485
   18SAPC  H15X 2397   0.624   3.274   8.588  0.3803  0.0120  1.9850
   18SAPC  H15Y 2398   0.477   3.375   8.582  1.9058  1.1853 -0.6368
   18SAPC  C316 2399   0.437   3.174   8.542  0.3345  0.2517 -0.4065
   18SAPC  H16X 2400   0.329   3.199   8.549 -0.1878 -0.4942 -3.9259
   18SAPC  H16Y 2401   0.449   3.076   8.593 -0.6066 -0.0092 -0.6635
   18SAPC  C317 2402   0.472   3.163   8.404 -0.7678 -1.1059  0.1473
   18SAPC  H17X 2403   0.574   3.121   8.394 -0.2424  0.4580 -1.6342
   18SAPC  H17Y 2404   0.469   3.267   8.365  1.4429  0.0378  2.7604
   18SAPC  C318 2405   0.364   3.086   8.331 -0.0166  0.2072 -0.0591
   18SAPC  H18X 2406   0.409   3.070   8.230  0.8692 -1.9762  0.6095
   18SAPC  H18Y 2407   0.266   3.136   8.315  0.5569  1.1684 -0.6305
   18SAPC  H18Z 2408   0.355   2.991   8.388  1.3918 -1.2164 -2.0651
   19SAPC     N 2409   6.558   4.780  10.280  0.2629 -0.2044 -0.2726
   19SAPC   C12 2410   6.583   4.810  10.422  0.2172  0.9516  0.3591
   19SAPC  H12A 2411   6.609   4.722  10.480  1.4951 -0.4747 -2.2201
   19SAPC  H12B 2412   6.485   4.834  10.461  0.3929  1.8932  0.2330
   19SAPC   C13 2413   6.488   4.652  10.256 -0.2453  0.0219 -0.1002
   19SAPC  H13A 2414   6.552   4.572  10.288 -1.2027 -1.0490 -0.7725
   19SAPC  H13B 2415   6.389   4.639  10.297 -0.2879 -0.7099 -0.4180
   19SAPC  H13C 2416   6.475   4.637  10.149  1.5287  1.1722 -0.5040
   19SAPC   C14 2417   6.488   4.897  10.215 -0.0669 -0.9823 -0.3018
   19SAPC  H14A 2418   6.487   4.885  10.108  1.6153  2.0760 -0.7611
   19SAPC  H14B 2419   6.388   4.911  10.256  0.5501  0.1018  0.9056
   19SAPC  H14C 2420   6.536   4.993  10.228 -0.2921 -0.6347 -1.9280
   19SAPC   C15 2421   6.689   4.759  10.212  0.5030  0.1024  0.0290
   19SAPC  H15A 2422   6.749   4.678  10.250 -0.8478 -1.0272 -0.1912
   19SAPC  H15B 2423   6.678   4.745  10.105 -0.4907  0.9268  0.0053
   19SAPC  H15C 2424   6.756   4.841  10.235 -0.8040  0.6159  2.3305
   19SAPC   C11 2425   6.694   4.910  10.454 -0.1656 -0.6085 -0.2462
   19SAPC  H11A 2426   6.792   4.864  10.428  0.2394 -1.6974  2.7985
   19SAPC  H11B 2427   6.699   4.926  10.564  1.5016 -2.0372 -0.0541
   19SAPC     P 2428   6.787   5.121  10.338 -0.2282  0.0969 -0.0913
   19SAPC   O13 2429   6.821   5.232  10.428  0.3880  0.3516  0.6317
   19SAPC   O14 2430   6.897   5.026  10.308  0.5870 -0.8912  0.3220
   19SAPC   O12 2431   6.664   5.040  10.397 -0.3951  0.6338 -0.0266
   19SAPC   O11 2432   6.743   5.171  10.195 -0.3768 -0.0448 -0.2702
   19SAPC    C1 2433   6.635   5.272  10.196 -0.0650 -0.1194 -0.4223
   19SAPC    HA 2434   6.550   5.235  10.258 -1.0155  1.9902 -0.3539
   19SAPC    HB 2435   6.669   5.368  10.241 -0.8525  1.1325 -2.3563
   19SAPC    C2 2436   6.576   5.290  10.054  0.2858 -0.4402  0.0344
   19SAPC    HS 2437   6.527   5.191  10.041  2.2481 -1.5421  0.6047
   19SAPC   O21 2438   6.670   5.305   9.945  0.0186 -0.1577  0.6491
   19SAPC   C21 2439   6.648   5.240   9.832 -0.8156 -1.0206  0.7931
   19SAPC   O22 2440   6.555   5.174   9.800  1.4714 -0.3530  0.0870
   19SAPC   C22 2441   6.771   5.257   9.738  0.0393  0.4343 -0.3770
   19SAPC   H2R 2442   6.770   5.365   9.715  1.2686  0.0249 -2.5626
   19SAPC   H2S 2443   6.865   5.237   9.794 -1.1056  0.6374  1.7495
   19SAPC    C3 2444   6.472   5.399  10.047 -0.3214 -0.1794  0.6512
   19SAPC    HX 2445   6.526   5.492  10.078  0.4155 -0.3576 -0.0621
   19SAPC    HY 2446   6.395   5.387  10.125 -0.3008 -0.6470  0.5969
   19SAPC   O31 2447   6.410   5.414   9.917 -0.6384 -0.2708 -0.3572
   19SAPC   C31 2448   6.298   5.350   9.888 -0.3712 -0.4682 -0.1721
   19SAPC   O32 2449   6.247   5.267   9.960 -0.5578 -0.1974 -0.3401
   19SAPC   C32 2450   6.234   5.401   9.758 -0.5584  0.4998  0.1969
   19SAPC   H2X 2451   6.240   5.511   9.748  1.2861  0.4073 -0.0705
   19SAPC   H2Y 2452   6.129   5.366   9.761 -0.3419 -0.2766 -0.7634
   19SAPC   C23 2453   6.756   5.177   9.607  0.1295  0.0648  0.2418
   19SAPC   H3R 2454   6.649   5.168   9.579 -0.4163 -2.4238  2.6380
   19SAPC   H3S 2455   6.787   5.074   9.635 -2.1517 -0.4310  1.1494
   19SAPC   C24 2456   6.846   5.226   9.488 -0.8541  1.1677  0.1883
   19SAPC   H4R 2457   6.952   5.209   9.518 -1.1869 -3.2074 -0.3560
   19SAPC   H4S 2458   6.819   5.330   9.461  1.4154  0.8938 -3.8914
   19SAPC   C25 2459   6.828   5.135   9.371  1.0053 -0.2804 -0.0548
   19SAPC   H5R 2460   6.904   5.055   9.373  0.6427 -0.6784 -1.3764
   19SAPC   C26 2461   6.761   5.163   9.259 -0.0272 -0.1240  0.0513
   19SAPC   H6R 2462   6.757   5.093   9.175 -2.5143  2.0390 -1.7983
   19SAPC   C27 2463   6.680   5.285   9.229 -0.2459 -0.4466  0.1356
   19SAPC   H7R 2464   6.673   5.355   9.316 -1.5513 -2.1437  1.4918
   19SAPC   H7S 2465   6.575   5.252   9.211 -0.3697  0.6319 -1.3021
   19SAPC   C28 2466   6.746   5.363   9.112  0.1159  0.2431 -0.7198
   19SAPC   H8R 2467   6.852   5.386   9.134 -0.1807 -1.0687  2.7773
   19SAPC   C29 2468   6.690   5.409   8.996  0.8631 -0.2482 -0.2867
   19SAPC   H9R 2469   6.742   5.468   8.920  1.4060 -1.9035 -1.2695
   19SAPC  C210 2470   6.546   5.382   8.969  0.9481  0.0911 -0.6167
   19SAPC  H10R 2471   6.501   5.463   8.909  1.8075  1.5448  0.6323
   19SAPC  H10S 2472   6.475   5.384   9.055 -1.7526 -0.2853 -2.7206
   19SAPC  C211 2473   6.530   5.247   8.905 -0.1622 -0.2692 -0.0365
   19SAPC  H11R 2474   6.519   5.164   8.976  1.0752 -0.4792 -0.0675
   19SAPC  C212 2475   6.518   5.227   8.772  0.4447  0.1106 -0.1963
   19SAPC  H12R 2476   6.511   5.121   8.745  1.9467  0.2984 -1.4794
   19SAPC  C213 2477   6.518   5.331   8.664 -0.0676  0.3793 -0.7377
   19SAPC  H13R 2478   6.588   5.300   8.583  2.2283 -0.4038  1.4226
   19SAPC  H13S 2479   6.573   5.421   8.700 -0.4052  0.1556  0.3814
   19SAPC  C214 2480   6.382   5.369   8.611  0.1485 -0.4292  0.5580
   19SAPC  H14R 2481   6.315   5.283   8.597 -1.6716  0.8726  1.0377
   19SAPC  C215 2482   6.339   5.495   8.593  0.6834  0.7893  0.7275
   19SAPC  H15R 2483   6.235   5.502   8.558  0.6853  0.0752  0.5523
   19SAPC  C216 2484   6.419   5.620   8.600 -0.0063 -0.1794  0.0183
   19SAPC  H16R 2485   6.529   5.604   8.600 -0.0467 -0.7668  2.1875
   19SAPC  H16S 2486   6.389   5.675   8.691  0.1065  2.2707 -1.3383
   19SAPC  C217 2487   6.382   5.714   8.488  0.0631 -0.3116 -0.4375
   19SAPC  H17R 2488   6.406   5.666   8.391 -0.6292 -0.8045 -0.3754
   19SAPC  H17S 2489   6.423   5.817   8.496 -1.1048  0.7090 -4.7392
   19SAPC  C218 2490   6.239   5.760   8.480 -0.3830 -0.3276 -0.1188
   19SAPC  H18R 2491   6.213   5.827   8.565 -2.0987 -0.6403 -0.3747
   19SAPC  H18S 2492   6.165   5.677   8.473 -1.0128  0.3789 -2.9088
   19SAPC  C219 2493   6.216   5.845   8.354  0.6358  0.5530 -0.1600
   19SAPC  H19R 2494   6.269   5.791   8.273  0.1788 -0.7027  0.3551
   19SAPC  H19S 2495   6.266   5.943   8.374  0.0815  0.6693  0.7116
   19SAPC  C220 2496   6.067   5.866   8.323  0.1143 -0.1711  0.1601
   19SAPC  H20R 2497   6.020   5.900   8.417  0.7416  0.5623  0.2146
   19SAPC  H20S 2498   6.008   5.777   8.291 -1.3153  1.2334 -1.3019
   19SAPC  H20T 2499   6.050   5.939   8.241 -0.8498  0.6218  1.0397
   19SAPC   C33 2500   6.294   5.336   9.628 -0.3965  0.4268  0.7384
   19SAPC   H3X 2501   6.282   5.226   9.635  0.5155  0.0682 -1.9516
   19SAPC   H3Y 2502   6.402   5.362   9.635 -0.2862  0.4444 -0.6481
   19SAPC   C34 2503   6.227   5.369   9.504 -0.6483 -0.4042 -0.0787
   19SAPC   H4X 2504   6.218   5.479   9.508  2.4887 -0.0604  0.0296
   19SAPC   H4Y 2505   6.134   5.308   9.491 -0.6745 -0.2784 -0.5125
   19SAPC   C35 2506   6.312   5.340   9.381  0.0896  0.1810  0.6447
   19SAPC   H5X 2507   6.329   5.230   9.378  0.8205  0.2888 -1.4016
   19SAPC   H5Y 2508   6.405   5.400   9.379 -0.1595  0.5954  1.3512
   19SAPC   C36 2509   6.249   5.363   9.246  0.4333 -0.7204 -0.3577
   19SAPC   H6X 2510   6.146   5.322   9.253 -0.4203  1.3525 -0.0718
   19SAPC   H6Y 2511   6.308   5.302   9.174  0.1677 -1.4880  0.0739
   19SAPC   C37 2512   6.258   5.507   9.200 -0.0963  0.2632  0.6160
   19SAPC   H7X 2513   6.364   5.538   9.207 -0.3164  1.0542  0.6624
   19SAPC   H7Y 2514   6.201   5.575   9.267  0.6321 -1.0600  2.6727
   19SAPC   C38 2515   6.205   5.520   9.051  0.1849  0.5813 -0.0747
   19SAPC   H8X 2516   6.098   5.489   9.045  0.3058  0.0030  0.5924
   19SAPC   H8Y 2517   6.268   5.458   8.984  1.5299  2.1268 -0.2934
   19SAPC   C39 2518   6.200   5.668   9.006  0.0146 -0.2644 -0.2900
   19SAPC   H9X 2519   6.300   5.703   8.973 -0.3032  0.0809 -0.9256
   19SAPC   H9Y 2520   6.177   5.739   9.089  2.6601 -0.1091  0.3877
   19SAPC  C310 2521   6.107   5.696   8.891  0.8444  0.5643  0.4304
   19SAPC  H10X 2522   6.002   5.669   8.916  0.8524  1.5929  1.6742
   19SAPC  H10Y 2523   6.143   5.642   8.801  0.4171  1.1571 -0.1019
   19SAPC  C311 2524   6.107   5.841   8.848 -0.6114 -0.2825 -0.5637
   19SAPC  H11X 2525   6.207   5.882   8.822  0.0514  0.3907  2.6553
   19SAPC  H11Y 2526   6.086   5.895   8.943  1.7047 -0.3103  0.0275
   19SAPC  C312 2527   5.990   5.878   8.754 -0.2122 -0.6621 -0.7049
   19SAPC  H12X 2528   5.896   5.864   8.813 -0.1560 -2.0192 -0.9084
   19SAPC  H12Y 2529   5.993   5.799   8.677 -0.7359 -3.7764  2.2542
   19SAPC  C313 2530   5.997   6.024   8.707  0.3425  0.3827  0.4781
   19SAPC  H13X 2531   6.089   6.026   8.645  1.2416 -0.1015  1.7466
   19SAPC  H13Y 2532   6.009   6.100   8.787  0.0689 -1.0597  1.9475
   19SAPC  C314 2533   5.889   6.078   8.604 -0.4701 -0.4038  0.4518
   19SAPC  H14X 2534   5.790   6.098   8.651 -0.7269 -1.0504  0.1961
   19SAPC  H14Y 2535   5.868   6.005   8.523  0.0525  0.5994 -0.6062
   19SAPC  C315 2536   5.942   6.206   8.531  0.8567  0.4289  0.2648
   19SAPC  H15X 2537   6.034   6.195   8.471  1.3333 -1.0799  1.2181
   19SAPC  H15Y 2538   5.973   6.278   8.610 -0.7090  0.7552  0.6185
   19SAPC  C316 2539   5.831   6.247   8.428 -0.2279  0.1880  0.0176
   19SAPC  H16X 2540   5.743   6.264   8.494 -1.0488  2.4544 -1.5201
   19SAPC  H16Y 2541   5.810   6.168   8.352  0.9521  0.0094 -0.1405
   19SAPC  C317 2542   5.856   6.381   8.352  0.2247 -0.2292 -0.2834
   19SAPC  H17X 2543   5.941   6.355   8.286  0.7519  1.2208 -0.2187
   19SAPC  H17Y 2544   5.888   6.450   8.433  1.7785 -2.4962  1.1261
   19SAPC  C318 2545   5.742   6.442   8.276  0.2500 -0.1315  0.3358
   19SAPC  H18X 2546   5.657   6.470   8.343  0.1960  0.0087  0.2082
   19SAPC  H18Y 2547   5.706   6.370   8.200 -0.2180 -0.4187  0.8190
   19SAPC  H18Z 2548   5.774   6.536   8.226 -3.8544  1.2903  0.0288
   20SAPC     N 2549   6.662   1.741  10.886  0.3809 -1.4600  0.5070
   20SAPC   C12 2550   6.618   1.640  10.777  0.2698 -0.4864 -0.4271
   20SAPC  H12A 2551   6.688   1.646  10.695 -1.4910  2.9257 -1.8816
   20SAPC  H12B 2552   6.524   1.675  10.737  0.9110  0.3242 -1.2648
   20SAPC   C13 2553   6.665   1.883  10.837  0.2018  0.7080  0.3181
   20SAPC  H13A 2554   6.580   1.910  10.776 -0.2619  0.2928  0.7697
   20SAPC  H13B 2555   6.687   1.953  10.916  1.0796  1.5884 -0.6796
   20SAPC  H13C 2556   6.749   1.906  10.774 -0.9836  3.4535 -0.4003
   20SAPC   C14 2557   6.561   1.738  11.000 -0.1513 -0.3566 -0.1383
   20SAPC  H14A 2558   6.546   1.633  11.022  2.2523 -0.9158 -0.8739
   20SAPC  H14B 2559   6.608   1.785  11.085  0.5926 -0.4666 -0.4820
   20SAPC  H14C 2560   6.466   1.771  10.960  1.4137  1.2314 -2.9368
   20SAPC   C15 2561   6.793   1.713  10.946  0.2788  0.3293 -0.0728
   20SAPC  H15A 2562   6.831   1.795  11.004  0.7344 -0.2685  0.4828
   20SAPC  H15B 2563   6.786   1.633  11.019 -1.7262  0.2841 -0.2513
   20SAPC  H15C 2564   6.858   1.672  10.870  0.5110  1.0104 -0.2426
   20SAPC   C11 2565   6.595   1.495  10.813 -0.2096 -0.0049 -0.2889
   20SAPC  H11A 2566   6.691   1.459  10.858  0.2107 -1.3121 -2.1321
   20SAPC  H11B 2567   6.589   1.439  10.717 -2.1221 -1.6038  0.6765
   20SAPC     P 2568   6.334   1.470  10.862 -0.1686  0.2120  0.1561
   20SAPC   O13 2569   6.295   1.334  10.826 -0.3649  0.0606  0.5413
   20SAPC   O14 2570   6.253   1.536  10.971 -0.2640 -0.7306  0.3718
   20SAPC   O12 2571   6.486   1.466  10.896 -0.2677 -0.0450 -0.3857
   20SAPC   O11 2572   6.342   1.559  10.728 -0.5744  0.2340 -0.1764
   20SAPC    C1 2573   6.236   1.650  10.701 -0.4616  0.1695  0.3326
   20SAPC    HA 2574   6.202   1.715  10.784  1.3518  0.4202  0.9160
   20SAPC    HB 2575   6.271   1.718  10.621  1.2934 -0.4729  0.5126
   20SAPC    C2 2576   6.109   1.585  10.629 -0.5166  0.2123  0.8313
   20SAPC    HS 2577   6.071   1.516  10.707  2.1378 -0.5162  1.5671
   20SAPC   O21 2578   6.158   1.499  10.525 -0.4855  0.0553 -0.0651
   20SAPC   C21 2579   6.080   1.406  10.473 -0.1151 -0.5042 -0.3842
   20SAPC   O22 2580   5.973   1.370  10.512  0.7805 -0.7923 -0.2102
   20SAPC   C22 2581   6.144   1.338  10.354  0.4149  0.1190 -0.4264
   20SAPC   H2R 2582   6.226   1.407  10.325  3.3456 -2.3748  1.3351
   20SAPC   H2S 2583   6.201   1.252  10.394  0.4761  0.0442 -0.6733
   20SAPC    C3 2584   6.009   1.699  10.589 -0.6233 -0.0472 -0.4058
   20SAPC    HX 2585   5.987   1.751  10.685  1.8691 -0.6443  0.5722
   20SAPC    HY 2586   5.915   1.645  10.565  0.9466 -2.5548 -1.2871
   20SAPC   O31 2587   6.054   1.801  10.498 -0.1759  0.4749  0.3693
   20SAPC   C31 2588   6.007   1.793  10.375  0.4035 -1.0643 -1.4349
   20SAPC   O32 2589   5.920   1.721  10.334 -0.3875  0.0274  0.2703
   20SAPC   C32 2590   6.098   1.882  10.298  0.2887 -0.2111  0.7355
   20SAPC   H2X 2591   6.198   1.892  10.346 -0.6276  1.4309  2.4229
   20SAPC   H2Y 2592   6.050   1.981  10.284  2.2045  0.7375  0.5136
   20SAPC   C23 2593   6.049   1.301  10.233  0.1352 -1.2127  0.0521
   20SAPC   H3R 2594   5.952   1.256  10.263 -0.3615 -0.2540 -0.0838
   20SAPC   H3S 2595   6.089   1.210  10.183 -1.2708 -1.9340  0.1726
   20SAPC   C24 2596   6.028   1.429  10.145  0.5668 -0.1207 -0.1547
   20SAPC   H4R 2597   6.118   1.461  10.088 -0.3130 -1.4739 -2.4726
   20SAPC   H4S 2598   6.013   1.511  10.218 -1.8222 -0.3717 -0.2695
   20SAPC   C25 2599   5.905   1.422  10.058 -0.9026 -0.4425 -0.3254
   20SAPC   H5R 2600   5.811   1.397  10.109  0.3116 -0.6820  1.9254
   20SAPC   C26 2601   5.902   1.438   9.918  0.0934 -0.2497 -0.3424
   20SAPC   H6R 2602   5.802   1.432   9.874 -0.9104  0.4032  1.7232
   20SAPC   C27 2603   6.010   1.459   9.811 -0.4222 -0.0225  0.1731
   20SAPC   H7R 2604   6.002   1.376   9.737 -0.2921  0.0638  0.0629
   20SAPC   H7S 2605   6.108   1.433   9.857 -0.1719 -1.0916 -0.9084
   20SAPC   C28 2606   6.018   1.600   9.751 -0.3751  0.0522  0.3334
   20SAPC   H8R 2607   6.027   1.682   9.825 -2.4623  0.6146  0.0258
   20SAPC   C29 2608   6.009   1.625   9.616 -0.2943  0.2823 -0.8987
   20SAPC   H9R 2609   6.018   1.728   9.577 -2.0931  0.5406 -0.7363
   20SAPC  C210 2610   5.981   1.528   9.506 -0.4608 -0.9606 -0.3135
   20SAPC  H10R 2611   5.966   1.424   9.542  0.4560 -0.6922  0.9225
   20SAPC  H10S 2612   6.074   1.520   9.446  0.2556 -0.1036  0.6383
   20SAPC  C211 2613   5.857   1.561   9.421 -0.2674 -0.4526 -0.0498
   20SAPC  H11R 2614   5.763   1.581   9.476 -0.5262 -0.9462 -0.2996
   20SAPC  C212 2615   5.852   1.568   9.286 -0.1793 -0.6798  0.0199
   20SAPC  H12R 2616   5.751   1.569   9.242  0.7500 -2.5028 -2.4087
   20SAPC  C213 2617   5.971   1.535   9.203 -0.2380 -0.5584 -0.1206
   20SAPC  H13R 2618   6.006   1.429   9.204  3.2735  0.4541 -0.6273
   20SAPC  H13S 2619   6.052   1.594   9.251 -0.6751 -0.3228  0.3407
   20SAPC  C214 2620   5.956   1.602   9.065 -0.0584  0.5027  0.4101
   20SAPC  H14R 2621   5.882   1.683   9.060  0.8331  1.4225  1.4579
   20SAPC  C215 2622   6.031   1.584   8.958  0.0680 -0.2953 -0.4295
   20SAPC  H15R 2623   5.997   1.646   8.873 -2.0174 -1.4451 -0.4950
   20SAPC  C216 2624   6.146   1.489   8.945 -0.2452 -0.3444 -0.2321
   20SAPC  H16R 2625   6.134   1.409   9.021  0.6627  0.8791  1.2779
   20SAPC  H16S 2626   6.246   1.537   8.954 -0.5314  0.2114  0.0724
   20SAPC  C217 2627   6.144   1.419   8.806  0.4447 -0.1331 -0.6702
   20SAPC  H17R 2628   6.048   1.363   8.803  0.2507 -0.0128  1.6124
   20SAPC  H17S 2629   6.230   1.348   8.800 -0.4600 -1.2164 -1.4314
   20SAPC  C218 2630   6.158   1.528   8.690 -0.4812  0.8786  0.4206
   20SAPC  H18R 2631   6.062   1.580   8.670 -0.9093  1.1586  2.8965
   20SAPC  H18S 2632   6.183   1.457   8.609  1.1893 -0.2537  1.8623
   20SAPC  C219 2633   6.276   1.623   8.715 -0.7253  0.0073 -0.9822
   20SAPC  H19R 2634   6.375   1.591   8.754 -0.3941  1.1272 -0.8742
   20SAPC  H19S 2635   6.244   1.685   8.802  1.8662 -1.2768  1.0243
   20SAPC  C220 2636   6.305   1.715   8.592  0.1378  0.0075 -1.5019
   20SAPC  H20R 2637   6.222   1.735   8.520 -1.1510  0.9226  0.1719
   20SAPC  H20S 2638   6.382   1.667   8.528  0.8255 -0.8277 -0.0954
   20SAPC  H20T 2639   6.348   1.814   8.618 -1.4565  0.6589 -1.2025
   20SAPC   C33 2640   6.118   1.835  10.143 -0.0940 -0.3789 -0.8902
   20SAPC   H3X 2641   6.021   1.813  10.095 -0.8704 -0.0520  0.4655
   20SAPC   H3Y 2642   6.173   1.739  10.155 -0.0067 -0.0092  4.0234
   20SAPC   C34 2643   6.208   1.925  10.058  0.1263 -0.5002 -0.2353
   20SAPC   H4X 2644   6.300   1.944  10.119 -0.2794  1.8774 -0.2914
   20SAPC   H4Y 2645   6.170   2.026  10.033  1.8169 -0.1663 -1.6378
   20SAPC   C35 2646   6.246   1.860   9.926  0.5676 -0.1448  0.0241
   20SAPC   H5X 2647   6.153   1.823   9.877  0.4716  0.5408 -0.3237
   20SAPC   H5Y 2648   6.311   1.773   9.945 -0.9197 -1.1760  0.5777
   20SAPC   C36 2649   6.321   1.967   9.845  0.4309  0.3774  0.1804
   20SAPC   H6X 2650   6.397   2.010   9.913 -0.5592  0.0359  1.5347
   20SAPC   H6Y 2651   6.247   2.048   9.829  2.0249  1.8142 -0.0866
   20SAPC   C37 2652   6.383   1.922   9.713 -0.3204 -0.5185 -0.3592
   20SAPC   H7X 2653   6.421   1.819   9.730  0.6428 -0.1005  0.0554
   20SAPC   H7Y 2654   6.455   2.002   9.685 -0.9048  0.5869  1.1306
   20SAPC   C38 2655   6.288   1.890   9.598 -0.0479 -0.1456 -0.0735
   20SAPC   H8X 2656   6.259   1.987   9.552  1.1625 -0.7080 -2.0997
   20SAPC   H8Y 2657   6.197   1.838   9.637 -1.0398 -0.1141 -2.2348
   20SAPC   C39 2658   6.356   1.813   9.479 -0.0386  0.3843 -0.0664
   20SAPC   H9X 2659   6.357   1.705   9.504 -4.3771 -0.1092 -1.3127
   20SAPC   H9Y 2660   6.459   1.856   9.470 -0.3935  1.2515 -0.0813
   20SAPC  C310 2661   6.282   1.832   9.342  0.2218 -1.1902  0.4169
   20SAPC  H10X 2662   6.249   1.935   9.319  1.2473 -0.8906  0.2277
   20SAPC  H10Y 2663   6.183   1.783   9.353 -0.2785 -0.1284  0.7696
   20SAPC  C311 2664   6.358   1.792   9.214 -0.6717 -0.5474  0.2437
   20SAPC  H11X 2665   6.293   1.721   9.158  0.5901 -3.8621  2.6405
   20SAPC  H11Y 2666   6.447   1.732   9.241 -0.0431  0.7663  1.2150
   20SAPC  C312 2667   6.424   1.906   9.136 -0.5917  0.2922 -0.2276
   20SAPC  H12X 2668   6.484   1.975   9.200 -0.2096 -1.7278  1.7345
   20SAPC  H12Y 2669   6.360   1.968   9.070  0.6936  1.1026 -0.7597
   20SAPC  C313 2670   6.531   1.845   9.051 -0.3773  0.0304 -0.0486
   20SAPC  H13X 2671   6.489   1.765   8.985 -2.1464  1.7119 -1.0942
   20SAPC  H13Y 2672   6.608   1.797   9.114 -0.1479 -0.0432 -0.3797
   20SAPC  C314 2673   6.595   1.954   8.962  0.6130  0.2349 -0.3020
   20SAPC  H14X 2674   6.613   2.042   9.028  0.9607  0.8107 -1.1529
   20SAPC  H14Y 2675   6.524   1.993   8.885 -0.7709 -0.9418  0.3154
   20SAPC  C315 2676   6.714   1.893   8.879  0.0268  0.1557 -0.0835
   20SAPC  H15X 2677   6.772   1.826   8.945  0.3395  1.8063  1.3956
   20SAPC  H15Y 2678   6.778   1.972   8.833 -0.1389 -1.0401 -2.5390
   20SAPC  C316 2679   6.656   1.805   8.759 -0.4544 -0.1769  0.0952
   20SAPC  H16X 2680   6.635   1.857   8.663  0.5873 -0.5629 -0.3635
   20SAPC  H16Y 2681   6.562   1.758   8.795 -0.7574  0.8515  0.6875
   20SAPC  C317 2682   6.755   1.685   8.733 -0.1708  0.2708  0.0015
   20SAPC  H17X 2683   6.751   1.621   8.824  1.5199  1.5643  1.0818
   20SAPC  H17Y 2684   6.862   1.715   8.733  0.1488 -0.7293  1.8729
   20SAPC  C318 2685   6.722   1.609   8.600  0.3457  0.2126 -0.6206
   20SAPC  H18X 2686   6.791   1.523   8.587  1.5887  0.6495  2.2421
   20SAPC  H18Y 2687   6.723   1.675   8.511 -3.4506 -1.4209 -2.0455
   20SAPC  H18Z 2688   6.619   1.567   8.607  0.4757 -0.3686 -2.0120
   21SAPC     N 2689   6.733   1.169  11.051 -0.1276 -0.3913  0.6129
   21SAPC   C12 2690   6.760   1.188  10.900 -0.8886  0.2149 -0.0482
   21SAPC  H12A 2691   6.835   1.264  10.888 -0.7323 -0.2698 -2.7619
   21SAPC  H12B 2692   6.671   1.228  10.855 -1.6448  0.3768  1.5111
   21SAPC   C13 2693   6.631   1.067  11.078 -0.0894  0.1714  0.3180
   21SAPC  H13A 2694   6.645   0.982  11.012 -0.6405 -0.1006  0.5405
   21SAPC  H13B 2695   6.632   1.035  11.181  0.9341 -4.3250 -0.8367
   21SAPC  H13C 2696   6.536   1.104  11.043  1.0163  2.2000 -0.6531
   21SAPC   C14 2697   6.861   1.128  11.127 -0.0432  0.4641 -0.0910
   21SAPC  H14A 2698   6.845   1.121  11.234 -0.2125  0.3251 -0.1249
   21SAPC  H14B 2699   6.888   1.029  11.094  0.3723 -0.1655  1.9483
   21SAPC  H14C 2700   6.951   1.180  11.098  2.3610 -4.2482 -2.1109
   21SAPC   C15 2701   6.698   1.309  11.098  0.1302 -0.1339  0.9194
   21SAPC  H15A 2702   6.620   1.354  11.039  1.3031 -0.3517 -0.8606
   21SAPC  H15B 2703   6.659   1.308  11.199  1.5687  0.6975  1.5215
   21SAPC  H15C 2704   6.782   1.374  11.080 -1.0971  1.4444  0.6889
   21SAPC   C11 2705   6.809   1.065  10.820 -0.0725 -0.5991 -0.1798
   21SAPC  H11A 2706   6.899   1.022  10.867 -1.4329 -2.4715  0.8705
   21SAPC  H11B 2707   6.836   1.104  10.719  0.8590  3.4669  1.4699
   21SAPC     P 2708   6.593   0.971  10.703 -0.3912  0.0523  0.4396
   21SAPC   O13 2709   6.464   0.941  10.763 -0.0628 -0.8004  0.3931
   21SAPC   O14 2710   6.608   1.103  10.634  0.3952 -0.1664  0.0177
   21SAPC   O12 2711   6.715   0.954  10.819  0.1444 -0.0956 -0.0956
   21SAPC   O11 2712   6.645   0.862  10.605  0.3388  0.7155  0.0653
   21SAPC    C1 2713   6.726   0.893  10.483 -0.1405  0.5541  0.0140
   21SAPC    HA 2714   6.760   0.999  10.488  0.1112  0.5385 -1.0719
   21SAPC    HB 2715   6.812   0.824  10.470 -1.6454 -0.8277 -4.4696
   21SAPC    C2 2716   6.641   0.859  10.349  0.6827 -0.4579 -0.3907
   21SAPC    HS 2717   6.719   0.876  10.271  0.3411  1.3473 -0.3878
   21SAPC   O21 2718   6.531   0.950  10.335 -0.3844  0.1622 -0.0690
   21SAPC   C21 2719   6.559   1.062  10.272  0.0139  0.7183  0.6694
   21SAPC   O22 2720   6.669   1.115  10.259  0.8157  0.2925  0.0577
   21SAPC   C22 2721   6.427   1.104  10.221  0.7426 -0.7100  0.1498
   21SAPC   H2R 2722   6.365   1.107  10.313 -2.1161  0.5408 -1.6649
   21SAPC   H2S 2723   6.435   1.205  10.177 -1.4103 -0.0527  1.1280
   21SAPC    C3 2724   6.590   0.716  10.345 -0.0681  0.3949  0.5025
   21SAPC    HX 2725   6.507   0.695  10.416 -1.2749 -0.4178 -1.0672
   21SAPC    HY 2726   6.674   0.648  10.373  1.0111  0.3959 -2.4090
   21SAPC   O31 2727   6.555   0.674  10.211 -0.8719 -0.6856 -0.2374
   21SAPC   C31 2728   6.436   0.618  10.186 -0.6570  0.1047  0.3148
   21SAPC   O32 2729   6.365   0.574  10.271  0.3769 -0.3203  0.0163
   21SAPC   C32 2730   6.419   0.598  10.039 -0.4417  1.3387 -0.7693
   21SAPC   H2X 2731   6.508   0.547   9.995 -0.2078  1.8699 -0.9186
   21SAPC   H2Y 2732   6.413   0.693   9.982  0.6378  0.1599 -2.9573
   21SAPC   C23 2733   6.368   0.998  10.122  0.4718 -0.3358 -0.3667
   21SAPC   H3R 2734   6.257   0.988  10.127  0.0519  0.5227 -4.3811
   21SAPC   H3S 2735   6.416   0.900  10.146  0.1102  0.0205  1.9733
   21SAPC   C24 2736   6.376   1.032   9.975 -0.3189 -0.3482  0.5318
   21SAPC   H4R 2737   6.316   1.125   9.975  3.4770  2.3239  1.1465
   21SAPC   H4S 2738   6.316   0.962   9.914  0.4665 -0.1764 -0.4643
   21SAPC   C25 2739   6.517   1.053   9.925 -0.5722  1.0354 -0.0011
   21SAPC   H5R 2740   6.580   1.126   9.977  0.9178 -0.7051  0.7386
   21SAPC   C26 2741   6.566   0.990   9.813  0.3738  0.4462 -0.6191
   21SAPC   H6R 2742   6.671   1.006   9.784  0.0940 -1.9314 -3.4370
   21SAPC   C27 2743   6.486   0.907   9.714  0.2887  0.6062 -0.5251
   21SAPC   H7R 2744   6.382   0.944   9.716  0.5129  1.4179 -2.2272
   21SAPC   H7S 2745   6.485   0.799   9.742  2.6569 -0.6780 -4.5100
   21SAPC   C28 2746   6.545   0.915   9.575 -0.6257  0.9499  0.1019
   21SAPC   H8R 2747   6.611   1.001   9.557  1.6564 -0.5197  0.8270
   21SAPC   C29 2748   6.509   0.828   9.480  0.0173 -0.1699  0.3515
   21SAPC   H9R 2749   6.559   0.845   9.383 -1.5791 -2.8350 -1.0481
   21SAPC  C210 2750   6.404   0.717   9.492 -0.6860  0.2897  0.4061
   21SAPC  H10R 2751   6.365   0.720   9.596 -1.7113 -3.9057  0.3161
   21SAPC  H10S 2752   6.448   0.619   9.465  1.7634  1.2073  0.8727
   21SAPC  C211 2753   6.287   0.754   9.405  0.1096 -0.7190 -0.3919
   21SAPC  H11R 2754   6.268   0.862   9.418  2.6616 -0.2795  0.2399
   21SAPC  C212 2755   6.222   0.669   9.325  0.0680  0.0261 -0.3143
   21SAPC  H12R 2756   6.142   0.697   9.255 -1.4691 -2.2659  0.4066
   21SAPC  C213 2757   6.251   0.527   9.315 -0.4736  0.8250 -0.8582
   21SAPC  H13R 2758   6.162   0.474   9.275  0.5000 -1.7793  0.2530
   21SAPC  H13S 2759   6.275   0.500   9.420 -1.2530  1.8504 -0.3902
   21SAPC  C214 2760   6.375   0.498   9.228  0.3395 -0.8545 -0.3070
   21SAPC  H14R 2761   6.398   0.576   9.154 -1.0327 -0.2058 -0.0686
   21SAPC  C215 2762   6.468   0.408   9.245  0.6582  0.5156 -0.2641
   21SAPC  H15R 2763   6.555   0.407   9.179  0.6795 -1.7616 -0.2855
   21SAPC  C216 2764   6.461   0.302   9.349 -0.1141  0.1611  0.6760
   21SAPC  H16R 2765   6.501   0.205   9.312 -0.8345  0.4895 -1.0326
   21SAPC  H16S 2766   6.359   0.263   9.369 -0.0932 -1.6537 -2.1935
   21SAPC  C217 2767   6.533   0.349   9.480  0.2765  0.1607  0.2382
   21SAPC  H17R 2768   6.522   0.268   9.555  1.5238  1.2152  1.6441
   21SAPC  H17S 2769   6.476   0.439   9.511  1.3811  1.1972 -0.5909
   21SAPC  C218 2770   6.680   0.371   9.465 -0.2676  0.0102 -0.2329
   21SAPC  H18R 2771   6.710   0.464   9.411  1.7756  0.3449  1.3453
   21SAPC  H18S 2772   6.723   0.281   9.416  2.0355  0.1372  1.4182
   21SAPC  C219 2773   6.753   0.390   9.597 -0.6567  0.1381  0.2351
   21SAPC  H19R 2774   6.860   0.405   9.573 -0.0874 -1.9795  1.2284
   21SAPC  H19S 2775   6.752   0.289   9.643  0.3873 -1.4919 -2.9689
   21SAPC  C220 2776   6.705   0.501   9.694 -0.0256  0.2494  0.0678
   21SAPC  H20R 2777   6.787   0.503   9.769 -0.0631 -0.3420  0.1323
   21SAPC  H20S 2778   6.608   0.468   9.739  0.4627 -1.6512 -0.2019
   21SAPC  H20T 2779   6.678   0.598   9.648  0.1023  0.9644  1.4484
   21SAPC   C33 2780   6.289   0.522  10.009  0.4090  0.2125 -0.1046
   21SAPC   H3X 2781   6.204   0.578  10.054  0.4773  1.0311 -0.9434
   21SAPC   H3Y 2782   6.280   0.418  10.044 -0.8992  0.4680  0.3491
   21SAPC   C34 2783   6.264   0.510   9.855  0.1056  0.3027 -0.6246
   21SAPC   H4X 2784   6.331   0.440   9.800  0.4929 -0.2249  0.4909
   21SAPC   H4Y 2785   6.295   0.608   9.813  3.3878 -0.2787  0.1186
   21SAPC   C35 2786   6.126   0.455   9.819  0.2623 -0.7365 -0.0855
   21SAPC   H5X 2787   6.041   0.509   9.866  1.6815  1.2234  0.3637
   21SAPC   H5Y 2788   6.120   0.347   9.844  0.9041 -1.3595 -2.4186
   21SAPC   C36 2789   6.110   0.463   9.670 -0.0280 -0.0589  0.1404
   21SAPC   H6X 2790   6.179   0.398   9.613  0.9558  0.6863  0.4497
   21SAPC   H6Y 2791   6.132   0.563   9.626  0.5074 -0.3507 -0.2713
   21SAPC   C37 2792   5.972   0.403   9.625 -0.3409 -0.4380 -0.1959
   21SAPC   H7X 2793   5.894   0.468   9.671  1.5710  1.2313  0.8695
   21SAPC   H7Y 2794   5.963   0.299   9.662 -2.1376 -0.6522 -1.1226
   21SAPC   C38 2795   5.959   0.403   9.471 -0.7907  0.5949 -0.3832
   21SAPC   H8X 2796   6.045   0.345   9.431 -0.5220  0.7734 -0.0638
   21SAPC   H8Y 2797   5.958   0.505   9.427  2.2354  0.0460 -1.9826
   21SAPC   C39 2798   5.829   0.333   9.414  0.6433  0.0535 -0.1764
   21SAPC   H9X 2799   5.745   0.405   9.418  0.9940  0.6745 -2.4281
   21SAPC   H9Y 2800   5.798   0.250   9.481  1.2739  1.6113  2.1988
   21SAPC  C310 2801   5.847   0.293   9.262 -0.7345  0.5122 -0.5282
   21SAPC  H10X 2802   5.760   0.226   9.246 -0.3011  0.1141 -1.2829
   21SAPC  H10Y 2803   5.947   0.244   9.255 -1.9914 -2.1481 -0.8751
   21SAPC  C311 2804   5.839   0.423   9.176 -0.1480 -0.1359  0.3828
   21SAPC  H11X 2805   5.939   0.473   9.176  0.3686 -1.1266 -0.1845
   21SAPC  H11Y 2806   5.765   0.497   9.213 -0.1247  1.7148 -2.8334
   21SAPC  C312 2807   5.803   0.372   9.031  0.2719 -0.7439  0.1955
   21SAPC  H12X 2808   5.698   0.334   9.027  0.5437 -1.4098 -1.1810
   21SAPC  H12Y 2809   5.864   0.285   9.000  1.1828 -0.6225  1.5718
   21SAPC  C313 2810   5.811   0.485   8.926 -0.2693  0.4163  0.3080
   21SAPC  H13X 2811   5.781   0.579   8.978  0.5201  0.6417  0.3589
   21SAPC  H13Y 2812   5.742   0.466   8.841 -0.0685  0.5243  0.1209
   21SAPC  C314 2813   5.949   0.492   8.872  0.6931  0.4868 -0.0729
   21SAPC  H14X 2814   5.967   0.400   8.812  2.4960  1.9848 -1.9627
   21SAPC  H14Y 2815   6.032   0.500   8.946  1.2847  1.2890 -0.8054
   21SAPC  C315 2816   5.968   0.607   8.772 -0.7824  0.1538 -0.2437
   21SAPC  H15X 2817   5.929   0.703   8.812 -0.9254 -0.1711  0.4078
   21SAPC  H15Y 2818   5.909   0.575   8.683  1.4037 -1.9977 -1.0703
   21SAPC  C316 2819   6.120   0.629   8.746  0.3867 -0.0782 -0.2556
   21SAPC  H16X 2820   6.178   0.533   8.744 -2.1259 -1.9520  3.7879
   21SAPC  H16Y 2821   6.159   0.686   8.833  3.0150 -0.6964 -0.9233
   21SAPC  C317 2822   6.149   0.721   8.625 -0.4157  0.5549  0.3290
   21SAPC  H17X 2823   6.103   0.821   8.641 -0.5248  0.6162 -0.3778
   21SAPC  H17Y 2824   6.109   0.667   8.537  0.5440 -1.9403  1.3442
   21SAPC  C318 2825   6.300   0.751   8.610  0.4289  0.4148  0.3472
   21SAPC  H18X 2826   6.361   0.661   8.588 -0.6087  0.3868 -2.9569
   21SAPC  H18Y 2827   6.334   0.803   8.702 -1.1793  0.7474  0.7817
   21SAPC  H18Z 2828   6.325   0.827   8.533  1.7064  0.5184  0.8399
   22SAPC     N 2829   6.002   4.924  10.459  0.5136  0.7388 -0.2262
   22SAPC   C12 2830   5.869   4.969  10.394 -0.0785  0.2625  0.3724
   22SAPC  H12A 2831   5.899   4.998  10.294  2.9113  0.4297  1.1997
   22SAPC  H12B 2832   5.828   5.052  10.449 -0.4738  0.9749 -0.9567
   22SAPC   C13 2833   6.047   4.798  10.397  0.5039  0.1502  1.2349
   22SAPC  H13A 2834   6.087   4.809  10.297 -0.2978 -1.6693  0.6666
   22SAPC  H13B 2835   6.119   4.744  10.456  1.6292 -1.7617 -1.6284
   22SAPC  H13C 2836   5.961   4.741  10.367  0.6104  1.3301 -1.7443
   22SAPC   C14 2837   6.112   5.025  10.452 -0.0470  0.0292 -0.3194
   22SAPC  H14A 2838   6.143   5.053  10.352  2.5270  1.5742  0.8328
   22SAPC  H14B 2839   6.070   5.116  10.493 -4.1313 -1.5622 -0.4488
   22SAPC  H14C 2840   6.200   5.007  10.512 -1.3815  0.0664  1.7569
   22SAPC   C15 2841   5.975   4.890  10.603  0.2854 -0.0072  0.8083
   22SAPC  H15A 2842   6.071   4.864  10.644  1.4467  0.0240 -1.6580
   22SAPC  H15B 2843   5.934   4.978  10.650 -1.7926 -0.8815  0.7395
   22SAPC  H15C 2844   5.910   4.804  10.611 -0.6568  0.1394 -3.1126
   22SAPC   C11 2845   5.746   4.872  10.371 -0.8341  0.0237 -0.0170
   22SAPC  H11A 2846   5.787   4.779  10.325  1.1351  0.9888 -0.2879
   22SAPC  H11B 2847   5.673   4.920  10.303 -1.5499 -0.9526  0.0361
   22SAPC     P 2848   5.610   4.717  10.541 -0.1199 -0.2630  0.5200
   22SAPC   O13 2849   5.696   4.631  10.621  0.2705 -0.2714 -0.6013
   22SAPC   O14 2850   5.481   4.752  10.606 -0.1910  0.1873 -0.8316
   22SAPC   O12 2851   5.685   4.848  10.500 -0.3098 -0.0381  0.0336
   22SAPC   O11 2852   5.579   4.642  10.409 -0.2430  0.3938 -0.0098
   22SAPC    C1 2853   5.472   4.682  10.320  0.0967  0.1747 -0.1785
   22SAPC    HA 2854   5.379   4.631  10.353 -1.6082  0.7290 -3.6464
   22SAPC    HB 2855   5.450   4.791  10.321  0.0894  0.1736  0.8587
   22SAPC    C2 2856   5.509   4.641  10.178  0.3091 -0.1673  0.3060
   22SAPC    HS 2857   5.531   4.532  10.191 -1.0824 -0.1307  4.4297
   22SAPC   O21 2858   5.617   4.718  10.126 -0.7928 -0.1267  0.5000
   22SAPC   C21 2859   5.708   4.652  10.051  0.1138 -0.1814 -0.3124
   22SAPC   O22 2860   5.716   4.536  10.018 -0.1659 -0.0293 -0.0592
   22SAPC   C22 2861   5.799   4.758   9.995 -0.0659  0.1441 -0.1737
   22SAPC   H2R 2862   5.764   4.781   9.892 -3.2051  0.4556  0.8666
   22SAPC   H2S 2863   5.795   4.854  10.051 -1.5476  0.6141 -1.0336
   22SAPC    C3 2864   5.382   4.649  10.094 -0.0610 -0.6091 -0.1541
   22SAPC    HX 2865   5.344   4.753  10.086 -1.3278 -0.7628  2.7485
   22SAPC    HY 2866   5.308   4.597  10.158  1.8917 -2.3540  0.7854
   22SAPC   O31 2867   5.387   4.581   9.966 -0.3983  0.0549  0.0604
   22SAPC   C31 2868   5.438   4.647   9.857 -0.0017 -0.2784 -0.5267
   22SAPC   O32 2869   5.487   4.758   9.858  0.3580  0.8989  0.5385
   22SAPC   C32 2870   5.422   4.572   9.737  0.4055  0.7761 -0.1132
   22SAPC   H2X 2871   5.314   4.550   9.724  0.4457  2.0340 -3.5842
   22SAPC   H2Y 2872   5.464   4.470   9.751  0.3984  0.5973 -1.3652
   22SAPC   C23 2873   5.947   4.713   9.987  0.0446 -0.2650 -0.3031
   22SAPC   H3R 2874   5.968   4.626   9.921  0.7394 -0.0632 -0.3575
   22SAPC   H3S 2875   5.983   4.690  10.089 -0.1739  1.2029  0.1306
   22SAPC   C24 2876   6.043   4.828   9.945 -0.0288  0.3373  0.2241
   22SAPC   H4R 2877   6.024   4.923  10.000  0.2534  0.3751  0.2588
   22SAPC   H4S 2878   6.010   4.835   9.839 -1.0919  0.5450  0.5508
   22SAPC   C25 2879   6.181   4.778   9.963 -0.2513  0.1190 -0.3290
   22SAPC   H5R 2880   6.196   4.744  10.066  1.3405  0.6525 -0.3604
   22SAPC   C26 2881   6.282   4.768   9.869  0.6931  0.6447  0.1845
   22SAPC   H6R 2882   6.378   4.730   9.906  1.2153  0.0822 -1.6564
   22SAPC   C27 2883   6.264   4.799   9.725 -0.5900  0.1042  0.3104
   22SAPC   H7R 2884   6.157   4.827   9.716 -0.1940  2.0973  1.1590
   22SAPC   H7S 2885   6.284   4.703   9.672  1.5215 -0.0947  1.3571
   22SAPC   C28 2886   6.365   4.898   9.675  0.0374 -0.6217 -0.6217
   22SAPC   H8R 2887   6.423   4.953   9.749  0.8489 -1.9717 -0.2144
   22SAPC   C29 2888   6.386   4.928   9.549  0.2538  0.1081 -0.2123
   22SAPC   H9R 2889   6.437   5.023   9.530  0.5016 -0.3026 -1.7909
   22SAPC  C210 2890   6.335   4.865   9.425  1.0057  0.0668  0.3772
   22SAPC  H10R 2891   6.267   4.943   9.386 -1.5212 -1.5374  1.2881
   22SAPC  H10S 2892   6.261   4.789   9.459  0.1667  1.4951  1.8757
   22SAPC  C211 2893   6.445   4.827   9.330 -0.4801  0.1225  1.0184
   22SAPC  H11R 2894   6.543   4.818   9.379 -0.5754 -0.1700  1.1511
   22SAPC  C212 2895   6.430   4.807   9.198 -0.2761  0.0816  0.1212
   22SAPC  H12R 2896   6.518   4.772   9.141 -0.2766 -0.6916  0.5796
   22SAPC  C213 2897   6.301   4.813   9.120  0.0809 -0.0505  0.0403
   22SAPC  H13R 2898   6.218   4.795   9.191  0.8596  0.9654  1.2270
   22SAPC  H13S 2899   6.278   4.734   9.044 -3.4745  1.8326 -1.0931
   22SAPC  C214 2900   6.289   4.942   9.044 -0.1325 -0.3436 -0.0382
   22SAPC  H14R 2901   6.273   5.030   9.108  1.8752  0.2065 -0.2135
   22SAPC  C215 2902   6.293   4.968   8.909 -0.1137  0.2333  0.5212
   22SAPC  H15R 2903   6.290   5.069   8.864 -1.0310  0.4404  1.0314
   22SAPC  C216 2904   6.319   4.854   8.810 -0.3191 -0.8111 -0.2118
   22SAPC  H16R 2905   6.319   4.755   8.861 -2.4250 -0.1827  1.1709
   22SAPC  H16S 2906   6.415   4.864   8.756 -2.2605  0.3259 -3.8043
   22SAPC  C217 2907   6.202   4.855   8.716  0.1572 -0.5061  0.9391
   22SAPC  H17R 2908   6.105   4.844   8.771 -1.0595 -0.6996 -1.1357
   22SAPC  H17S 2909   6.203   4.767   8.649 -0.0296 -0.3406  0.7155
   22SAPC  C218 2910   6.221   4.977   8.618  0.6226 -0.1044  0.5875
   22SAPC  H18R 2911   6.329   4.990   8.595  0.2761  0.9477 -0.5430
   22SAPC  H18S 2912   6.200   5.076   8.663  0.8678  0.7661 -1.1392
   22SAPC  C219 2913   6.130   4.967   8.496 -0.6941  0.8704  0.2054
   22SAPC  H19R 2914   6.027   4.967   8.538 -1.2712 -0.2078 -1.1384
   22SAPC  H19S 2915   6.145   4.868   8.449  1.9910  1.0860  0.4339
   22SAPC  C220 2916   6.145   5.082   8.395  0.0992  0.7063  0.5475
   22SAPC  H20R 2917   6.136   5.177   8.452  0.1211  2.4087 -2.1257
   22SAPC  H20S 2918   6.066   5.081   8.317  0.1152  3.2765  0.4334
   22SAPC  H20T 2919   6.245   5.076   8.346  0.2129  0.3240  0.8189
   22SAPC   C33 2920   5.480   4.646   9.619  0.7386 -0.0355  0.1792
   22SAPC   H3X 2921   5.582   4.687   9.631  0.7332 -0.3767  1.6070
   22SAPC   H3Y 2922   5.411   4.731   9.601 -0.2324 -1.1650 -1.8538
   22SAPC   C34 2923   5.464   4.563   9.490  0.4777 -0.2841 -0.6995
   22SAPC   H4X 2924   5.360   4.525   9.476  0.9115 -1.5397 -0.6138
   22SAPC   H4Y 2925   5.526   4.472   9.484 -0.2718 -0.7735 -1.2671
   22SAPC   C35 2926   5.495   4.651   9.370  0.1708 -0.4853 -0.0233
   22SAPC   H5X 2927   5.594   4.701   9.374  0.8820 -1.8198 -0.3397
   22SAPC   H5Y 2928   5.416   4.728   9.377  0.8827  0.2915 -0.3943
   22SAPC   C36 2929   5.475   4.585   9.232  0.1815 -0.1706 -0.9461
   22SAPC   H6X 2930   5.381   4.527   9.242  0.3636 -0.2314  0.8807
   22SAPC   H6Y 2931   5.562   4.515   9.226  0.4814  0.2455 -1.5143
   22SAPC   C37 2932   5.483   4.684   9.117 -0.1459 -0.8059  0.3085
   22SAPC   H7X 2933   5.591   4.706   9.105 -0.0029 -2.2039 -1.4376
   22SAPC   H7Y 2934   5.420   4.771   9.144  0.3990  0.1318 -1.2976
   22SAPC   C38 2935   5.447   4.610   8.987  0.0188 -0.3058 -0.3591
   22SAPC   H8X 2936   5.342   4.578   9.004  0.1563  0.1915  1.5919
   22SAPC   H8Y 2937   5.506   4.516   8.983  0.6137  0.0921 -3.6066
   22SAPC   C39 2938   5.461   4.693   8.866  0.7894  0.2812 -0.1992
   22SAPC   H9X 2939   5.565   4.713   8.831  0.3855  0.0485 -1.5938
   22SAPC   H9Y 2940   5.395   4.780   8.884 -0.0814 -0.6340  1.1980
   22SAPC  C310 2941   5.402   4.617   8.738  0.0127 -0.1624 -0.2902
   22SAPC  H10X 2942   5.372   4.701   8.671  1.2254 -0.1162 -0.8177
   22SAPC  H10Y 2943   5.299   4.585   8.763 -1.0231  3.2417  0.3472
   22SAPC  C311 2944   5.503   4.517   8.680  0.8382 -0.0804 -0.3759
   22SAPC  H11X 2945   5.528   4.441   8.758 -2.0735  0.5717  1.3377
   22SAPC  H11Y 2946   5.589   4.577   8.644  2.1373  0.4600  3.1796
   22SAPC  C312 2947   5.441   4.437   8.558 -0.2018 -0.3018 -0.2523
   22SAPC  H12X 2948   5.468   4.472   8.456  1.8864  1.0334  0.6850
   22SAPC  H12Y 2949   5.331   4.444   8.568 -0.1334 -0.9175  1.2488
   22SAPC  C313 2950   5.472   4.286   8.559 -0.0970 -0.0363  0.0606
   22SAPC  H13X 2951   5.459   4.233   8.656 -2.6913  0.1191 -0.1284
   22SAPC  H13Y 2952   5.581   4.280   8.538  0.3798 -1.8562  2.5753
   22SAPC  C314 2953   5.400   4.203   8.456 -0.3098  0.9811 -0.9712
   22SAPC  H14X 2954   5.290   4.218   8.464 -0.4400 -0.5237  0.4952
   22SAPC  H14Y 2955   5.430   4.100   8.486 -0.0366  1.1139 -0.7817
   22SAPC  C315 2956   5.434   4.227   8.307  0.3464 -0.0415  0.3189
   22SAPC  H15X 2957   5.536   4.188   8.287 -0.7005 -3.6744  1.1751
   22SAPC  H15Y 2958   5.420   4.329   8.265 -2.3245  0.2535  1.6938
   22SAPC  C316 2959   5.346   4.123   8.231  0.1508  0.2186 -0.6681
   22SAPC  H16X 2960   5.239   4.146   8.253  0.5090  0.7359  0.6553
   22SAPC  H16Y 2961   5.369   4.025   8.278  1.9266  1.0441  0.2804
   22SAPC  C317 2962   5.365   4.124   8.078 -0.6920  0.5374  0.0106
   22SAPC  H17X 2963   5.426   4.214   8.054 -1.0281  1.3277  1.9452
   22SAPC  H17Y 2964   5.270   4.133   8.020  0.1997 -0.7698 -1.7659
   22SAPC  C318 2965   5.433   3.993   8.031  0.3504 -0.5796  0.1290
   22SAPC  H18X 2966   5.357   3.931   7.979  0.1057 -1.0898  1.0900
   22SAPC  H18Y 2967   5.480   3.919   8.098  0.2516 -2.1224 -1.4251
   22SAPC  H18Z 2968   5.509   4.014   7.953  0.1675  0.0360  0.1077
   23SAPC     N 2969   0.348   0.655  10.681 -0.5002  0.5194  0.9506
   23SAPC   C12 2970   0.431   0.666  10.556  0.4725 -0.2935  0.5376
   23SAPC  H12A 2971   0.371   0.631  10.473 -1.9450  1.1208  1.5614
   23SAPC  H12B 2972   0.517   0.604  10.574  1.4208  1.2564  1.5980
   23SAPC   C13 2973   0.296   0.517  10.692  0.1498  0.2030 -0.2222
   23SAPC  H13A 2974   0.375   0.448  10.719  2.4738  2.5294 -0.6914
   23SAPC  H13B 2975   0.222   0.508  10.770  0.9860  1.0042  0.6821
   23SAPC  H13C 2976   0.246   0.487  10.601 -0.7627  0.5031  0.1659
   23SAPC   C14 2977   0.430   0.690  10.806  0.3802 -0.2847 -0.5855
   23SAPC  H14A 2978   0.489   0.604  10.836  0.2601 -0.2488 -0.2471
   23SAPC  H14B 2979   0.497   0.774  10.790  0.6993  0.4759  3.6133
   23SAPC  H14C 2980   0.355   0.717  10.879 -0.5585 -0.0557 -1.6128
   23SAPC   C15 2981   0.232   0.753  10.667  0.3307 -0.3304 -0.5474
   23SAPC  H15A 2982   0.268   0.854  10.671  1.7481 -0.8350 -0.0901
   23SAPC  H15B 2983   0.162   0.740  10.585  0.4517  0.3238 -0.7601
   23SAPC  H15C 2984   0.163   0.749  10.750  0.5511 -0.1683 -0.3574
   23SAPC   C11 2985   0.497   0.800  10.532 -0.8949  0.2833 -0.3985
   23SAPC  H11A 2986   0.413   0.873  10.529  0.9539  2.5068 -0.3458
   23SAPC  H11B 2987   0.534   0.802  10.427  1.9168 -1.4466  0.4631
   23SAPC     P 2988   0.747   0.856  10.609 -0.1146  0.1018 -0.5340
   23SAPC   O13 2989   0.788   0.973  10.687 -0.0463 -0.6067 -0.0191
   23SAPC   O14 2990   0.821   0.736  10.645  0.2402  0.1588 -0.1936
   23SAPC   O12 2991   0.596   0.832  10.638 -0.0782 -0.2195  0.2795
   23SAPC   O11 2992   0.756   0.885  10.454  0.0621  0.1169  0.1034
   23SAPC    C1 2993   0.874   0.866  10.381 -0.5791 -0.0104 -0.0131
   23SAPC    HA 2994   0.968   0.900  10.431 -0.7382  1.5486 -0.7076
   23SAPC    HB 2995   0.892   0.757  10.374 -2.2600 -0.3653  0.7952
   23SAPC    C2 2996   0.860   0.930  10.247 -0.2519 -0.4181 -0.3882
   23SAPC    HS 2997   0.812   1.029  10.259  1.4540  0.3326  0.5568
   23SAPC   O21 2998   0.786   0.837  10.167 -0.5250 -0.2177 -0.4434
   23SAPC   C21 2999   0.708   0.892  10.075  0.4461  0.1164  0.4787
   23SAPC   O22 3000   0.692   1.015  10.060 -0.1421  0.0485 -0.3926
   23SAPC   C22 3001   0.634   0.785   9.997 -0.2103  0.4062  0.3131
   23SAPC   H2R 3002   0.625   0.694  10.060  0.1140 -0.2404 -0.5457
   23SAPC   H2S 3003   0.529   0.819   9.982 -0.4485 -0.5889 -0.4220
   23SAPC    C3 3004   0.997   0.972  10.180 -0.5486  0.4120 -0.2267
   23SAPC    HX 3005   1.070   0.892  10.206  0.0518  1.2410  0.7244
   23SAPC    HY 3006   1.027   1.058  10.244 -2.3388  1.3214 -0.5494
   23SAPC   O31 3007   0.994   0.996  10.039  0.2480 -0.3154  0.2623
   23SAPC   C31 3008   1.002   1.126  10.006  0.2788 -1.0192 -0.0607
   23SAPC   O32 3009   1.041   1.212  10.086  0.4108 -0.0616  0.0224
   23SAPC   C32 3010   0.986   1.146   9.851  0.3765  0.0402 -0.4856
   23SAPC   H2X 3011   0.877   1.149   9.828  0.6817  3.5898 -2.1354
   23SAPC   H2Y 3012   1.029   1.054   9.807  2.9334  2.0528 -2.4452
   23SAPC   C23 3013   0.695   0.764   9.862 -0.6113  0.2221 -0.2753
   23SAPC   H3R 3014   0.653   0.674   9.812 -1.7619  0.1036  0.8635
   23SAPC   H3S 3015   0.806   0.750   9.863 -0.0938  3.5562  0.3248
   23SAPC   C24 3016   0.681   0.883   9.764  0.2434  0.4036 -0.8399
   23SAPC   H4R 3017   0.706   0.976   9.819 -1.3376 -1.0328  2.6005
   23SAPC   H4S 3018   0.575   0.895   9.733 -0.0019 -1.0354 -0.6472
   23SAPC   C25 3019   0.776   0.869   9.642  0.0632  0.8900 -0.1067
   23SAPC   H5R 3020   0.878   0.904   9.660  0.9523 -0.6026 -1.8632
   23SAPC   C26 3021   0.746   0.835   9.517 -0.6566 -0.4293 -0.1396
   23SAPC   H6R 3022   0.830   0.814   9.449  0.5742  0.6513  0.9994
   23SAPC   C27 3023   0.604   0.799   9.474  0.0795  0.2191 -0.0841
   23SAPC   H7R 3024   0.599   0.846   9.374 -0.9884 -0.1270 -0.2058
   23SAPC   H7S 3025   0.525   0.863   9.518 -2.0928 -1.9427 -0.6056
   23SAPC   C28 3026   0.573   0.649   9.477 -1.1046 -0.0984  0.1138
   23SAPC   H8R 3027   0.564   0.608   9.578 -0.3936 -0.7643 -0.0835
   23SAPC   C29 3028   0.570   0.569   9.370  0.5321  0.3054 -0.3545
   23SAPC   H9R 3029   0.533   0.467   9.388 -0.9874  1.1605  1.8955
   23SAPC  C210 3030   0.585   0.608   9.230  0.2275 -0.4999  0.1225
   23SAPC  H10R 3031   0.693   0.597   9.210  0.4487 -0.1626  1.0855
   23SAPC  H10S 3032   0.581   0.717   9.212  0.6503 -0.6858 -1.1861
   23SAPC  C211 3033   0.484   0.528   9.146 -0.2349 -0.5097 -0.3424
   23SAPC  H11R 3034   0.379   0.542   9.172 -0.4429 -0.6998 -1.0590
   23SAPC  C212 3035   0.508   0.462   9.034 -0.0251  0.0246 -0.8120
   23SAPC  H12R 3036   0.430   0.395   8.996  0.0598  0.3279 -1.5490
   23SAPC  C213 3037   0.640   0.453   8.961 -0.6128 -0.0201 -0.0557
   23SAPC  H13R 3038   0.658   0.351   8.923 -2.2641 -1.1223  1.9171
   23SAPC  H13S 3039   0.726   0.470   9.029 -1.3879 -4.1140  2.2816
   23SAPC  C214 3040   0.643   0.561   8.852 -0.6367 -0.1060 -0.1660
   23SAPC  H14R 3041   0.564   0.636   8.861  0.9271  1.5949 -0.0789
   23SAPC  C215 3042   0.730   0.571   8.750  0.0901  0.6619  0.4325
   23SAPC  H15R 3043   0.717   0.638   8.664  0.5572 -1.3425 -1.2826
   23SAPC  C216 3044   0.846   0.477   8.719 -0.9440 -0.3546  0.2867
   23SAPC  H16R 3045   0.826   0.424   8.623 -0.0892  2.5801 -1.6235
   23SAPC  H16S 3046   0.866   0.405   8.801  0.3887 -1.4225 -0.9367
   23SAPC  C217 3047   0.985   0.549   8.707 -0.0990  0.1282 -0.4097
   23SAPC  H17R 3048   1.059   0.466   8.718 -1.0151 -0.5224  1.1728
   23SAPC  H17S 3049   1.002   0.624   8.787  1.6012  0.7567 -1.2955
   23SAPC  C218 3050   0.999   0.609   8.570 -0.2472  0.2314  0.9214
   23SAPC  H18R 3051   0.912   0.678   8.560 -0.8387 -0.1168  3.1302
   23SAPC  H18S 3052   1.001   0.530   8.492 -3.1571  0.0640  0.9026
   23SAPC  C219 3053   1.134   0.682   8.560  0.9957 -0.4600 -0.0239
   23SAPC  H19R 3054   1.151   0.698   8.451 -1.5336  1.2164 -0.2632
   23SAPC  H19S 3055   1.221   0.624   8.596  2.9788  0.6917 -2.6245
   23SAPC  C220 3056   1.131   0.820   8.624  0.0399  0.0111  0.7219
   23SAPC  H20R 3057   1.041   0.878   8.594  0.9891  1.3564  0.3881
   23SAPC  H20S 3058   1.219   0.881   8.595 -0.6637  1.1735  0.9241
   23SAPC  H20T 3059   1.128   0.817   8.735  1.9150  0.1651  0.7959
   23SAPC   C33 3060   1.066   1.261   9.798  0.4969 -0.1808  0.4430
   23SAPC   H3X 3061   1.173   1.244   9.821  0.9593 -0.2710 -1.5702
   23SAPC   H3Y 3062   1.022   1.353   9.843 -1.1176 -0.7106  0.0352
   23SAPC   C34 3063   1.032   1.292   9.652  0.1262 -0.1639  0.5615
   23SAPC   H4X 3064   1.071   1.395   9.634  0.2452 -0.3329 -0.1592
   23SAPC   H4Y 3065   0.922   1.283   9.639 -0.0241  1.0457  0.8303
   23SAPC   C35 3066   1.098   1.191   9.553  0.6295  0.1348  0.6726
   23SAPC   H5X 3067   1.057   1.091   9.580 -0.5835  0.0830 -1.2009
   23SAPC   H5Y 3068   1.209   1.190   9.558  0.6403 -0.9758  0.5541
   23SAPC   C36 3069   1.057   1.220   9.410  0.4081 -0.0105  0.8520
   23SAPC   H6X 3070   1.072   1.329   9.390 -1.8696  0.5337  1.8288
   23SAPC   H6Y 3071   0.949   1.196   9.410 -0.0134  1.4070 -2.2497
   23SAPC   C37 3072   1.137   1.135   9.305  0.7637 -0.2085 -0.2430
   23SAPC   H7X 3073   1.129   1.028   9.333  0.0332 -0.0158  0.3402
   23SAPC   H7Y 3074   1.243   1.155   9.332  0.4590  0.1001  0.7770
   23SAPC   C38 3075   1.114   1.153   9.157  0.1691  0.1497  0.5982
   23SAPC   H8X 3076   1.178   1.077   9.107  0.7437  1.0600 -0.0933
   23SAPC   H8Y 3077   1.150   1.249   9.114 -3.0480  1.6764  0.9927
   23SAPC   C39 3078   0.971   1.118   9.103 -0.5688  0.6514 -0.6302
   23SAPC   H9X 3079   0.904   1.206   9.115 -0.3521  0.8371 -0.7565
   23SAPC   H9Y 3080   0.943   1.030   9.165  0.7602  1.4831  1.2561
   23SAPC  C310 3081   0.972   1.086   8.951  0.2090 -0.7421  0.0139
   23SAPC  H10X 3082   1.058   1.016   8.937  0.5534 -0.4991  0.8210
   23SAPC  H10Y 3083   0.996   1.178   8.894 -0.6660  1.3868  2.8441
   23SAPC  C311 3084   0.830   1.044   8.892 -0.3355  0.0806  0.1165
   23SAPC  H11X 3085   0.758   1.127   8.878  0.2980  0.9673  1.7703
   23SAPC  H11Y 3086   0.794   0.970   8.968  1.3920  1.6372  2.5963
   23SAPC  C312 3087   0.841   0.976   8.751  0.4428 -0.1775  0.2037
   23SAPC  H12X 3088   0.741   0.929   8.737  1.4022 -1.6605 -2.4426
   23SAPC  H12Y 3089   0.903   0.883   8.751  0.4627 -0.1950  1.6993
   23SAPC  C313 3090   0.859   1.064   8.621 -0.1445  0.2263  0.2691
   23SAPC  H13X 3091   0.836   0.982   8.550  1.0017 -0.8338  1.0781
   23SAPC  H13Y 3092   0.964   1.101   8.617 -0.3695  0.8650  0.1663
   23SAPC  C314 3093   0.754   1.173   8.608  0.0096 -0.2087  0.1619
   23SAPC  H14X 3094   0.757   1.238   8.699  0.1574  2.0260 -1.3625
   23SAPC  H14Y 3095   0.652   1.131   8.613  0.1174 -0.4574  0.2877
   23SAPC  C315 3096   0.778   1.272   8.493 -0.6308  0.1628  0.6925
   23SAPC  H15X 3097   0.716   1.365   8.491  0.0425  0.6135  0.5695
   23SAPC  H15Y 3098   0.752   1.222   8.397 -0.1362 -1.9398  1.6065
   23SAPC  C316 3099   0.924   1.313   8.478  0.2197  0.1597  0.3868
   23SAPC  H16X 3100   0.981   1.222   8.448 -0.1860 -0.3485  1.1226
   23SAPC  H16Y 3101   0.959   1.367   8.568  0.8248  0.1770  0.1463
   23SAPC  C317 3102   0.938   1.417   8.365 -0.0706  0.3070 -0.2775
   23SAPC  H17X 3103   0.849   1.482   8.377 -0.8775 -0.9823  1.2657
   23SAPC  H17Y 3104   0.918   1.366   8.268  0.1451 -0.6661  0.1750
   23SAPC  C318 3105   1.068   1.485   8.365 -0.4187  0.5767  0.1182
   23SAPC  H18X 3106   1.072   1.541   8.460  0.0432 -0.6149  0.8313
   23SAPC  H18Y 3107   1.075   1.557   8.281  1.8263  1.3421  0.8856
   23SAPC  H18Z 3108   1.157   1.418   8.356 -0.3858  0.8621 -2.8451
   24SAPC     N 3109   2.792   1.419  11.310  0.6257 -0.3379  0.1186
   24SAPC   C12 3110   2.664   1.388  11.234 -0.2502  0.1990  0.1380
   24SAPC  H12A 3111   2.600   1.474  11.248  0.3796  0.8144 -0.6357
   24SAPC  H12B 3112   2.620   1.295  11.267 -0.4520  0.0458 -0.5365
   24SAPC   C13 3113   2.897   1.315  11.273 -0.2989 -0.3207 -0.4730
   24SAPC  H13A 3114   2.998   1.328  11.306  0.0466 -0.7750 -1.3195
   24SAPC  H13B 3115   2.859   1.224  11.318 -0.4273 -0.3034 -0.5435
   24SAPC  H13C 3116   2.893   1.309  11.165 -0.5466  0.8544 -0.5447
   24SAPC   C14 3117   2.848   1.552  11.272  0.5089 -0.5725 -0.0019
   24SAPC  H14A 3118   2.793   1.632  11.321  1.0741  0.3089 -0.7867
   24SAPC  H14B 3119   2.952   1.562  11.299  0.7892  1.9144 -1.6656
   24SAPC  H14C 3120   2.845   1.578  11.168  0.5637  4.8068  1.0234
   24SAPC   C15 3121   2.763   1.423  11.459 -0.6237  0.5629  0.7886
   24SAPC  H15A 3122   2.846   1.462  11.516  0.6569  1.6316 -1.6966
   24SAPC  H15B 3123   2.678   1.486  11.483  0.4335  1.5207  2.1643
   24SAPC  H15C 3124   2.736   1.323  11.491  0.8761 -0.4008 -0.8035
   24SAPC   C11 3125   2.676   1.369  11.080 -0.1052 -0.2107  0.2005
   24SAPC  H11A 3126   2.575   1.364  11.034  0.0375  0.3192 -0.1831
   24SAPC  H11B 3127   2.719   1.272  11.048 -1.5907 -0.4688 -1.1778
   24SAPC     P 3128   2.660   1.599  10.968 -0.2801 -0.4537 -0.0655
   24SAPC   O13 3129   2.567   1.638  11.072 -0.3277  0.2451 -0.3505
   24SAPC   O14 3130   2.744   1.708  10.921  0.3158  0.7656 -1.0588
   24SAPC   O12 3131   2.749   1.475  11.014  0.0666  0.3428 -0.2030
   24SAPC   O11 3132   2.580   1.547  10.847 -0.1277 -0.0809 -0.2397
   24SAPC    C1 3133   2.626   1.446  10.765 -0.4056 -0.8773  0.4101
   24SAPC    HA 3134   2.652   1.350  10.815  1.5836 -0.8046 -0.3647
   24SAPC    HB 3135   2.541   1.421  10.699  0.3385  0.2836 -1.0455
   24SAPC    C2 3136   2.737   1.483  10.660 -0.1662  0.0706  0.8607
   24SAPC    HS 3137   2.819   1.518  10.727  0.7667 -1.9969  0.8707
   24SAPC   O21 3138   2.678   1.586  10.584  0.6036 -0.8181 -0.5292
   24SAPC   C21 3139   2.757   1.684  10.556 -0.2840 -0.5150 -0.1220
   24SAPC   O22 3140   2.875   1.693  10.581 -0.2143 -0.5356 -0.2734
   24SAPC   C22 3141   2.682   1.778  10.459  0.6569  0.1849  0.0676
   24SAPC   H2R 3142   2.574   1.760  10.477  0.8535 -2.9431 -1.4159
   24SAPC   H2S 3143   2.682   1.884  10.494  1.0464  0.1459  0.1949
   24SAPC    C3 3144   2.786   1.361  10.574 -0.0159 -0.2819  0.2867
   24SAPC    HX 3145   2.693   1.308  10.544  1.0871 -2.8869  1.1877
   24SAPC    HY 3146   2.842   1.286  10.634  1.2049  0.5509  0.2053
   24SAPC   O31 3147   2.857   1.402  10.455 -0.5318 -0.1181 -0.8097
   24SAPC   C31 3148   2.991   1.417  10.458  0.0566 -0.2922  0.3363
   24SAPC   O32 3149   3.060   1.425  10.559  0.0918 -0.3125 -0.1947
   24SAPC   C32 3150   3.042   1.419  10.319  0.0088  0.2086  0.2729
   24SAPC   H2X 3151   2.958   1.445  10.250  1.7643  4.2739 -0.6478
   24SAPC   H2Y 3152   3.088   1.322  10.292 -0.2386 -0.0598  0.8157
   24SAPC   C23 3153   2.726   1.756  10.309  0.1758  0.3302  0.1874
   24SAPC   H3R 3154   2.703   1.652  10.279  1.7753 -0.5715  1.9031
   24SAPC   H3S 3155   2.836   1.773  10.306  0.0106  1.9273  1.4788
   24SAPC   C24 3156   2.645   1.842  10.209 -1.4678 -0.2749  0.4577
   24SAPC   H4R 3157   2.685   1.818  10.108  0.1292 -0.6548  1.1458
   24SAPC   H4S 3158   2.675   1.945  10.236  0.2508 -0.1196 -1.7634
   24SAPC   C25 3159   2.498   1.839  10.233 -0.1262  0.0087  0.0956
   24SAPC   H5R 3160   2.462   1.908  10.310  1.4640  0.2030  0.6902
   24SAPC   C26 3161   2.395   1.795  10.155  0.3313  0.6158  0.4953
   24SAPC   H6R 3162   2.291   1.822  10.182  0.0079  1.8248 -1.7643
   24SAPC   C27 3163   2.414   1.726  10.017 -0.3528  0.0992  0.5779
   24SAPC   H7R 3164   2.457   1.625  10.035  1.1204  0.5840 -0.0594
   24SAPC   H7S 3165   2.487   1.773   9.947 -1.8592 -1.1620 -2.0119
   24SAPC   C28 3166   2.286   1.712   9.945 -0.2072 -0.1990 -0.4920
   24SAPC   H8R 3167   2.198   1.760   9.990  2.0678  0.6906  3.4865
   24SAPC   C29 3168   2.275   1.644   9.834 -0.3041 -0.2095  0.5160
   24SAPC   H9R 3169   2.177   1.650   9.782  1.1081  0.6506 -2.2642
   24SAPC  C210 3170   2.381   1.556   9.775 -0.6927  0.2580  0.1854
   24SAPC  H10R 3171   2.464   1.539   9.847  0.1261 -0.0334 -0.8056
   24SAPC  H10S 3172   2.414   1.610   9.684 -1.2071  0.9479  0.4100
   24SAPC  C211 3173   2.339   1.411   9.746 -0.0825  0.1611  0.0383
   24SAPC  H11R 3174   2.333   1.348   9.835  0.6894  0.3271  0.2139
   24SAPC  C212 3175   2.325   1.352   9.623  0.1640  0.8059  0.0694
   24SAPC  H12R 3176   2.301   1.245   9.617  2.8273  0.1050  0.6881
   24SAPC  C213 3177   2.348   1.421   9.494 -0.4411  0.1621  0.1926
   24SAPC  H13R 3178   2.457   1.439   9.489 -0.0955 -1.4860  1.0785
   24SAPC  H13S 3179   2.297   1.520   9.493 -0.2999  0.4158  3.9758
   24SAPC  C214 3180   2.318   1.337   9.373  0.3570  0.4459 -0.4454
   24SAPC  H14R 3181   2.280   1.236   9.391  1.3963  0.0781 -0.2619
   24SAPC  C215 3182   2.338   1.375   9.250  0.8206 -0.0917 -0.4718
   24SAPC  H15R 3183   2.315   1.305   9.168 -2.3077  2.4148 -1.9294
   24SAPC  C216 3184   2.387   1.515   9.216 -0.4404 -0.0625  0.1303
   24SAPC  H16R 3185   2.463   1.545   9.291  1.1310 -0.7136 -1.1404
   24SAPC  H16S 3186   2.301   1.585   9.219  1.5355  2.5456 -0.8454
   24SAPC  C217 3187   2.470   1.537   9.088  0.7551  0.3327 -0.2588
   24SAPC  H17R 3188   2.567   1.484   9.098  0.3588 -0.3038  0.2738
   24SAPC  H17S 3189   2.496   1.645   9.095  2.1550  0.0242 -0.3833
   24SAPC  C218 3190   2.399   1.508   8.960 -0.1700  0.2231 -0.0313
   24SAPC  H18R 3191   2.290   1.529   8.967 -0.2953  0.0779 -1.3139
   24SAPC  H18S 3192   2.417   1.402   8.930  0.1025  0.4007 -0.5184
   24SAPC  C219 3193   2.463   1.590   8.850  0.0621 -0.0443 -0.1679
   24SAPC  H19R 3194   2.422   1.693   8.858  0.6101  0.3928 -2.2890
   24SAPC  H19S 3195   2.423   1.571   8.748 -0.5254 -0.6927  0.1831
   24SAPC  C220 3196   2.618   1.611   8.843  1.1845  0.2970 -0.1965
   24SAPC  H20R 3197   2.637   1.675   8.755  2.3907  0.9435  0.5070
   24SAPC  H20S 3198   2.659   1.509   8.825 -1.7036 -0.6097 -2.3585
   24SAPC  H20T 3199   2.648   1.663   8.937  1.8459  1.3505 -0.9673
   24SAPC   C33 3200   3.146   1.533  10.294  0.0043  0.6733 -0.4866
   24SAPC   H3X 3201   3.241   1.505  10.344  1.2512 -0.7564 -3.4378
   24SAPC   H3Y 3202   3.091   1.627  10.318 -2.8850 -1.0011 -0.0645
   24SAPC   C34 3203   3.168   1.548  10.145  0.0432  0.4767  0.0802
   24SAPC   H4X 3204   3.072   1.565  10.091  0.7762  2.4742 -0.7036
   24SAPC   H4Y 3205   3.207   1.455  10.100  0.5236  1.2707 -1.1938
   24SAPC   C35 3206   3.255   1.668  10.106 -0.2465  0.6468  0.0437
   24SAPC   H5X 3207   3.350   1.653  10.161 -0.9051 -1.9056  0.6298
   24SAPC   H5Y 3208   3.207   1.765  10.131 -0.3818  1.4693 -3.0327
   24SAPC   C36 3209   3.284   1.687   9.962 -0.2492 -0.2219  0.1096
   24SAPC   H6X 3210   3.184   1.713   9.921 -0.0837 -0.5260 -0.5008
   24SAPC   H6Y 3211   3.315   1.592   9.912 -1.4114 -0.8911  0.6161
   24SAPC   C37 3212   3.388   1.795   9.934 -0.5106 -0.5529  0.4148
   24SAPC   H7X 3213   3.480   1.778   9.993  0.5592  1.0432 -0.6961
   24SAPC   H7Y 3214   3.338   1.891   9.957 -3.7145 -2.0486  0.2540
   24SAPC   C38 3215   3.412   1.791   9.786 -0.2036  0.3407 -0.2797
   24SAPC   H8X 3216   3.406   1.897   9.753 -0.5728  1.3987  2.7842
   24SAPC   H8Y 3217   3.333   1.728   9.742  0.5816 -0.1881 -0.9477
   24SAPC   C39 3218   3.551   1.731   9.741 -0.2620 -0.0769 -0.2963
   24SAPC   H9X 3219   3.568   1.639   9.801  0.4475  0.4583  0.3362
   24SAPC   H9Y 3220   3.632   1.805   9.760 -0.3895 -0.3944  1.6618
   24SAPC  C310 3221   3.547   1.700   9.587  0.2538 -0.3139 -0.5552
   24SAPC  H10X 3222   3.517   1.793   9.536 -0.2549 -0.1491  0.0364
   24SAPC  H10Y 3223   3.462   1.631   9.568  0.1720  0.0568 -1.5940
   24SAPC  C311 3224   3.674   1.640   9.535  0.3892  0.6200 -0.9356
   24SAPC  H11X 3225   3.705   1.565   9.611 -0.0462  2.5768  1.2777
   24SAPC  H11Y 3226   3.753   1.718   9.528  0.9749  0.2522  1.0858
   24SAPC  C312 3227   3.656   1.577   9.400  0.0418  0.2824  0.7887
   24SAPC  H12X 3228   3.558   1.534   9.371  0.7004  0.2233 -1.5762
   24SAPC  H12Y 3229   3.718   1.485   9.410 -1.2594 -0.9697 -1.7285
   24SAPC  C313 3230   3.707   1.648   9.276 -0.0107  0.0974  0.5370
   24SAPC  H13X 3231   3.817   1.656   9.276  0.0680 -0.6852  1.8077
   24SAPC  H13Y 3232   3.663   1.750   9.266  0.4362  0.1980 -0.5828
   24SAPC  C314 3233   3.665   1.567   9.148 -0.7504 -0.3538  0.1123
   24SAPC  H14X 3234   3.560   1.589   9.120 -0.9963  0.5633  1.6275
   24SAPC  H14Y 3235   3.688   1.460   9.165 -0.7376 -0.2060  1.0994
   24SAPC  C315 3236   3.737   1.617   9.019  0.1236  0.0333 -0.5346
   24SAPC  H15X 3237   3.845   1.625   9.041  0.3665  2.1632 -2.1727
   24SAPC  H15Y 3238   3.709   1.723   9.002  2.0243  0.5905 -0.3606
   24SAPC  C316 3239   3.699   1.534   8.893  0.2945  0.4290 -0.0485
   24SAPC  H16X 3240   3.751   1.589   8.811 -2.2252  1.5263 -1.0256
   24SAPC  H16Y 3241   3.590   1.528   8.872  0.5217 -0.3028 -1.1312
   24SAPC  C317 3242   3.760   1.390   8.892 -0.7336 -0.0875  0.8752
   24SAPC  H17X 3243   3.723   1.342   8.985  1.0790 -0.3060  1.5226
   24SAPC  H17Y 3244   3.869   1.410   8.888 -0.7737  0.6119 -4.2611
   24SAPC  C318 3245   3.744   1.297   8.770  0.2891  0.4365  0.0737
   24SAPC  H18X 3246   3.780   1.192   8.780  0.8266  0.7854  2.1345
   24SAPC  H18Y 3247   3.790   1.340   8.678 -1.1453  0.7585 -0.5068
   24SAPC  H18Z 3248   3.635   1.286   8.752 -0.2295 -0.1380  3.1455
   25SAPC     N 3249   0.312   3.158   5.910 -0.4683 -0.2243 -0.2192
   25SAPC   C12 3250   0.245   3.076   6.022  0.1656  0.0723  1.2366
   25SAPC  H12A 3251   0.314   3.018   6.081  0.5832  0.2538  0.9347
   25SAPC  H12B 3252   0.188   3.000   5.972  1.7305 -0.3802  0.0321
   25SAPC   C13 3253   0.223   3.267   5.863 -0.5071  0.2131  0.6958
   25SAPC  H13A 3254   0.261   3.310   5.772 -1.1214  1.2957  0.9347
   25SAPC  H13B 3255   0.129   3.230   5.825 -0.4677 -1.3038  1.9873
   25SAPC  H13C 3256   0.200   3.342   5.937 -0.3231  1.3116 -0.3289
   25SAPC   C14 3257   0.440   3.222   5.969 -0.0323 -0.9773 -0.3857
   25SAPC  H14A 3258   0.417   3.288   6.052 -0.5902 -0.4656 -0.9349
   25SAPC  H14B 3259   0.521   3.156   5.995  0.1508 -0.7037 -0.2513
   25SAPC  H14C 3260   0.487   3.291   5.900 -1.6803 -0.1843 -0.7699
   25SAPC   C15 3261   0.358   3.068   5.798 -0.2336  0.3838  0.2779
   25SAPC  H15A 3262   0.268   3.045   5.742 -0.5558 -0.8667  1.2638
   25SAPC  H15B 3263   0.431   3.132   5.751  1.3838 -0.0136  2.1107
   25SAPC  H15C 3264   0.393   2.975   5.840  0.1845 -0.1876 -1.2678
   25SAPC   C11 3265   0.161   3.150   6.131 -0.8259  0.4967  0.1343
   25SAPC  H11A 3266   0.236   3.222   6.170  1.3818 -1.7472  0.2824
   25SAPC  H11B 3267   0.145   3.079   6.215  1.8582  1.5937  1.6853
   25SAPC     P 3268  -0.086   3.117   6.036  0.0622 -0.1616 -0.0806
   25SAPC   O13 3269  -0.211   3.195   6.036  0.4898 -0.5042 -0.4992
   25SAPC   O14 3270  -0.039   3.062   5.908  0.5185 -0.4379 -0.1991
   25SAPC   O12 3271   0.035   3.216   6.088 -0.3013 -1.2018 -0.2733
   25SAPC   O11 3272  -0.084   3.003   6.146  0.0690 -0.3007 -0.6810
   25SAPC    C1 3273  -0.187   2.981   6.242  0.1455  0.6599  0.3364
   25SAPC    HA 3274  -0.247   3.069   6.272 -2.8865 -1.4547  0.9163
   25SAPC    HB 3275  -0.255   2.909   6.193  0.1947  0.7006  0.2082
   25SAPC    C2 3276  -0.139   2.910   6.373 -0.6100 -0.5473  0.4095
   25SAPC    HS 3277  -0.219   2.924   6.449  0.8656 -1.4540  2.2216
   25SAPC   O21 3278  -0.015   2.976   6.416 -0.0376 -0.1871  0.3454
   25SAPC   C21 3279  -0.034   3.112   6.457 -0.3420  1.1324 -0.6609
   25SAPC   O22 3280  -0.144   3.160   6.464  0.0811  0.2490 -0.2649
   25SAPC   C22 3281   0.098   3.172   6.486 -0.0292  0.2322  0.1144
   25SAPC   H2R 3282   0.180   3.129   6.424  1.6541  1.3877  1.4286
   25SAPC   H2S 3283   0.098   3.280   6.459  1.4849  0.1437 -0.3747
   25SAPC    C3 3284  -0.107   2.757   6.355  0.3839 -0.4788 -0.4783
   25SAPC    HX 3285  -0.004   2.742   6.317  0.2518  1.8474 -1.8963
   25SAPC    HY 3286  -0.182   2.708   6.289 -0.2692 -1.6919  1.0819
   25SAPC   O31 3287  -0.126   2.697   6.484 -0.0020 -0.3031  0.2855
   25SAPC   C31 3288  -0.009   2.665   6.550 -0.3001 -0.0919  0.1789
   25SAPC   O32 3289   0.102   2.716   6.526  0.3329 -0.6249 -0.3385
   25SAPC   C32 3290  -0.045   2.562   6.654  0.0360  0.6409 -0.4867
   25SAPC   H2X 3291   0.049   2.535   6.706  0.2100  0.7208 -0.7540
   25SAPC   H2Y 3292  -0.098   2.475   6.611  0.2760  1.3644 -2.3346
   25SAPC   C23 3293   0.148   3.156   6.631 -0.3697 -0.3775 -0.8522
   25SAPC   H3R 3294   0.240   3.216   6.646 -0.7091  0.3268 -1.4776
   25SAPC   H3S 3295   0.166   3.050   6.655  2.7535  0.6398  2.0091
   25SAPC   C24 3296   0.052   3.224   6.736 -0.4641 -0.3339 -0.2691
   25SAPC   H4R 3297   0.021   3.323   6.695  1.9808 -0.5535 -2.9110
   25SAPC   H4S 3298   0.112   3.246   6.827 -0.6274 -0.5719 -0.1028
   25SAPC   C25 3299  -0.070   3.148   6.780 -0.2518 -0.3742 -0.5009
   25SAPC   H5R 3300  -0.158   3.183   6.725  1.0551  0.2842 -2.2747
   25SAPC   C26 3301  -0.070   3.037   6.850 -0.5561  0.2320  0.4202
   25SAPC   H6R 3302  -0.166   2.985   6.866 -0.4364 -0.0800  0.1421
   25SAPC   C27 3303   0.037   2.950   6.912  0.8181 -0.4106 -0.2957
   25SAPC   H7R 3304  -0.005   2.896   7.000 -2.0906  0.2757 -1.1576
   25SAPC   H7S 3305   0.108   3.023   6.957  1.5716 -0.6317 -1.1037
   25SAPC   C28 3306   0.104   2.859   6.811 -0.1477  0.1499 -0.5302
   25SAPC   H8R 3307   0.067   2.868   6.708 -0.8504  0.0950 -0.2939
   25SAPC   C29 3308   0.200   2.774   6.848  0.8078  0.6905 -0.4571
   25SAPC   H9R 3309   0.242   2.699   6.779  0.6147  0.0888  0.0638
   25SAPC  C210 3310   0.270   2.757   6.985 -0.1411  0.0787 -0.0511
   25SAPC  H10R 3311   0.245   2.842   7.053  2.6146  1.7322 -0.9245
   25SAPC  H10S 3312   0.379   2.778   6.975 -0.4543  2.1869  0.5485
   25SAPC  C211 3313   0.256   2.621   7.048  0.0938  0.4385  0.7788
   25SAPC  H11R 3314   0.315   2.545   6.995 -0.2668 -0.2375  1.3339
   25SAPC  C212 3315   0.186   2.586   7.158 -0.0282  0.1457  0.2922
   25SAPC  H12R 3316   0.190   2.480   7.189  0.4855 -0.4609 -1.6472
   25SAPC  C213 3317   0.103   2.679   7.249 -0.3565 -0.8739 -0.0495
   25SAPC  H13R 3318   0.020   2.621   7.295  0.2301 -1.0939  0.7778
   25SAPC  H13S 3319   0.070   2.766   7.188  0.0675 -1.0216 -0.4956
   25SAPC  C214 3320   0.184   2.738   7.358  0.2724  0.0554  0.3081
   25SAPC  H14R 3321   0.287   2.769   7.337  0.2680 -0.7213 -0.9299
   25SAPC  C215 3322   0.145   2.771   7.484 -1.1667  0.2352  0.1979
   25SAPC  H15R 3323   0.220   2.826   7.543 -0.8206  2.3175 -2.0434
   25SAPC  C216 3324   0.015   2.766   7.550 -0.1033 -0.0686 -0.0998
   25SAPC  H16R 3325  -0.056   2.698   7.498 -1.2057 -0.0328  1.2914
   25SAPC  H16S 3326  -0.035   2.864   7.531  1.2812  0.3622 -1.7680
   25SAPC  C217 3327   0.032   2.731   7.697  0.1582  0.0659 -1.2057
   25SAPC  H17R 3328   0.087   2.811   7.751  2.0620 -0.3967 -2.3493
   25SAPC  H17S 3329   0.097   2.641   7.710  1.0095  0.7830 -0.3842
   25SAPC  C218 3330  -0.099   2.710   7.775  0.1610  0.0954 -0.2959
   25SAPC  H18R 3331  -0.091   2.631   7.853 -0.6523 -1.7919 -2.0331
   25SAPC  H18S 3332  -0.184   2.693   7.706  1.0225 -2.9579 -0.7232
   25SAPC  C219 3333  -0.143   2.838   7.848 -0.1862 -0.7139 -0.3271
   25SAPC  H19R 3334  -0.139   2.921   7.775 -0.6118 -0.2834  0.1348
   25SAPC  H19S 3335  -0.074   2.855   7.934 -1.7572  3.1301  0.3782
   25SAPC  C220 3336  -0.286   2.830   7.904 -0.2295 -0.0097  0.1139
   25SAPC  H20R 3337  -0.309   2.928   7.949  0.0129  0.0554  0.0964
   25SAPC  H20S 3338  -0.321   2.746   7.969 -0.8632  0.5957  0.5768
   25SAPC  H20T 3339  -0.352   2.822   7.814 -1.7804 -0.1427  1.2187
   25SAPC   C33 3340  -0.146   2.624   6.758 -0.1318  0.3017  0.3601
   25SAPC   H3X 3341  -0.226   2.679   6.705 -0.8652 -0.8069  0.2877
   25SAPC   H3Y 3342  -0.084   2.692   6.821 -1.2204  0.7043  1.0189
   25SAPC   C34 3343  -0.182   2.512   6.859  0.0852 -1.2446  0.2172
   25SAPC   H4X 3344  -0.089   2.466   6.898 -0.2082 -2.3425 -0.3325
   25SAPC   H4Y 3345  -0.238   2.427   6.814 -1.1046 -0.9666  1.1235
   25SAPC   C35 3346  -0.262   2.564   6.970  0.0369  0.0364  0.5012
   25SAPC   H5X 3347  -0.317   2.479   7.015 -0.0965 -1.1781 -1.8002
   25SAPC   H5Y 3348  -0.334   2.636   6.924 -0.3711 -1.2898 -1.0123
   25SAPC   C36 3349  -0.191   2.660   7.071 -0.4246 -0.8888  0.6595
   25SAPC   H6X 3350  -0.142   2.741   7.011 -0.3572  0.0051  1.8773
   25SAPC   H6Y 3351  -0.112   2.607   7.129 -0.3844  0.4123  1.8576
   25SAPC   C37 3352  -0.292   2.710   7.167  0.3825  0.0515  0.1696
   25SAPC   H7X 3353  -0.346   2.617   7.195  1.1108 -0.4055  0.0993
   25SAPC   H7Y 3354  -0.367   2.774   7.115 -1.2484 -1.2291  0.8421
   25SAPC   C38 3355  -0.245   2.788   7.292  0.2407 -1.1689  0.2978
   25SAPC   H8X 3356  -0.134   2.791   7.288  0.2471 -1.2783  0.3861
   25SAPC   H8Y 3357  -0.269   2.718   7.375  1.4559 -1.0606  0.7707
   25SAPC   C39 3358  -0.313   2.926   7.306 -0.2147 -0.2437 -0.0599
   25SAPC   H9X 3359  -0.423   2.921   7.295 -0.1331 -1.8608 -0.4655
   25SAPC   H9Y 3360  -0.280   2.991   7.222  1.7609 -1.6543 -0.4519
   25SAPC  C310 3361  -0.256   3.019   7.416 -0.7920  0.3418  0.1103
   25SAPC  H10X 3362  -0.189   3.089   7.363  0.3806 -0.9593 -0.1934
   25SAPC  H10Y 3363  -0.190   2.961   7.484  0.1384  0.7734 -0.4017
   25SAPC  C311 3364  -0.367   3.084   7.504  0.3119  0.3918  0.7982
   25SAPC  H11X 3365  -0.435   2.998   7.520  1.6207 -0.9622 -0.5700
   25SAPC  H11Y 3366  -0.425   3.161   7.449  0.0328  1.8270  3.0234
   25SAPC  C312 3367  -0.322   3.143   7.637  0.1933 -0.0194 -0.8588
   25SAPC  H12X 3368  -0.263   3.066   7.692  0.7893 -0.0721 -1.5515
   25SAPC  H12Y 3369  -0.413   3.183   7.686 -0.2024 -0.2515 -1.3972
   25SAPC  C313 3370  -0.227   3.261   7.620  0.1348  0.7084  0.1049
   25SAPC  H13X 3371  -0.271   3.327   7.542 -2.3008 -3.0744 -2.0092
   25SAPC  H13Y 3372  -0.132   3.237   7.568 -1.5980  0.0558 -2.9983
   25SAPC  C314 3373  -0.199   3.349   7.746 -0.1282  0.2321  0.2715
   25SAPC  H14X 3374  -0.155   3.444   7.708  2.5096  0.2298  2.9889
   25SAPC  H14Y 3375  -0.120   3.304   7.809 -0.2992  0.2665  0.5135
   25SAPC  C315 3376  -0.316   3.378   7.847  0.1406  0.1485  0.4727
   25SAPC  H15X 3377  -0.382   3.292   7.870 -1.7414  1.1162 -1.0815
   25SAPC  H15Y 3378  -0.367   3.466   7.801  2.9794  0.7668 -1.8498
   25SAPC  C316 3379  -0.253   3.426   7.978 -0.0387 -0.5156  0.4978
   25SAPC  H16X 3380  -0.188   3.513   7.955  0.4183 -0.7908  0.7229
   25SAPC  H16Y 3381  -0.189   3.348   8.024  0.3782 -1.3484 -1.3872
   25SAPC  C317 3382  -0.354   3.480   8.085 -0.4650  0.3590  0.3341
   25SAPC  H17X 3383  -0.421   3.544   8.024  0.6647  2.5348  1.2608
   25SAPC  H17Y 3384  -0.296   3.531   8.164 -0.9802  0.8207  0.4172
   25SAPC  C318 3385  -0.429   3.358   8.141 -0.1899 -0.5008 -0.3875
   25SAPC  H18X 3386  -0.528   3.392   8.179 -0.4498 -2.0431  0.3706
   25SAPC  H18Y 3387  -0.377   3.284   8.205 -2.3068 -2.4614 -0.7921
   25SAPC  H18Z 3388  -0.464   3.297   8.055 -1.7190  0.1899 -0.2932
   26SAPC     N 3389   6.323   4.821   5.857 -0.3004 -0.3731  0.3813
   26SAPC   C12 3390   6.355   4.680   5.893 -0.0689 -0.0623  0.4269
   26SAPC  H12A 3391   6.453   4.663   5.852 -1.4118 -0.0923 -3.1706
   26SAPC  H12B 3392   6.283   4.621   5.838  0.1314 -1.8744  2.0378
   26SAPC   C13 3393   6.200   4.881   5.918  0.1084 -0.2201 -0.9380
   26SAPC  H13A 3394   6.207   4.869   6.025  0.4976  0.0512 -0.9287
   26SAPC  H13B 3395   6.181   4.985   5.896 -1.3942 -0.3380 -0.3142
   26SAPC  H13C 3396   6.109   4.829   5.892 -1.5272  0.5447  2.5297
   26SAPC   C14 3397   6.426   4.923   5.906  0.2163 -0.6498 -0.1621
   26SAPC  H14A 3398   6.390   5.020   5.875  1.5250 -0.5193 -1.3933
   26SAPC  H14B 3399   6.435   4.924   6.013  1.4296 -1.1143 -0.2364
   26SAPC  H14C 3400   6.518   4.916   5.850  0.3168  1.9027 -0.4352
   26SAPC   C15 3401   6.313   4.845   5.708 -0.2969  0.0486  0.0339
   26SAPC  H15A 3402   6.244   4.778   5.659  0.2722  0.1395 -0.9010
   26SAPC  H15B 3403   6.284   4.946   5.683  0.9648 -0.2372 -2.9636
   26SAPC  H15C 3404   6.408   4.825   5.661  1.1671  1.6251  2.1119
   26SAPC   C11 3405   6.358   4.635   6.040  0.5095  0.0036 -0.0535
   26SAPC  H11A 3406   6.420   4.710   6.095 -0.3765 -0.0829  1.1045
   26SAPC  H11B 3407   6.413   4.539   6.043 -0.3212 -0.4805 -0.0296
   26SAPC     P 3408   6.144   4.505   6.081  0.1123  0.1157 -0.4156
   26SAPC   O13 3409   6.014   4.550   6.041  0.4248  0.7142  0.5401
   26SAPC   O14 3410   6.217   4.410   5.995 -0.5903  0.5532 -0.3496
   26SAPC   O12 3411   6.232   4.639   6.102 -0.0421  0.2470 -0.0786
   26SAPC   O11 3412   6.123   4.445   6.223  0.2357  0.2612 -0.2338
   26SAPC    C1 3413   6.163   4.502   6.348  0.4603  1.2223 -0.3678
   26SAPC    HA 3414   6.229   4.425   6.393  0.6809  0.4899 -1.8726
   26SAPC    HB 3415   6.233   4.588   6.336  1.1776  0.7196  0.1707
   26SAPC    C2 3416   6.039   4.533   6.426 -0.4978  0.6434 -0.1250
   26SAPC    HS 3417   6.068   4.573   6.526  0.5058  0.1405 -0.2006
   26SAPC   O21 3418   5.957   4.418   6.456  0.4831  0.4524  0.4569
   26SAPC   C21 3419   6.016   4.323   6.539 -0.3329  0.5316 -0.1885
   26SAPC   O22 3420   6.110   4.350   6.606  0.7745 -0.0064  0.1788
   26SAPC   C22 3421   5.945   4.187   6.521  0.8755  0.1764 -0.0876
   26SAPC   H2R 3422   5.843   4.204   6.480  0.3202 -0.0761  1.1267
   26SAPC   H2S 3423   6.005   4.126   6.450 -1.9863 -0.2655 -2.3153
   26SAPC    C3 3424   5.952   4.642   6.362 -0.6373  0.0755  0.4506
   26SAPC    HX 3425   5.893   4.605   6.276 -1.1495  1.4989  0.1532
   26SAPC    HY 3426   6.016   4.724   6.322 -0.9865  0.2827  0.3029
   26SAPC   O31 3427   5.863   4.702   6.462  0.1641 -0.3637 -0.4808
   26SAPC   C31 3428   5.774   4.781   6.411  0.0979 -1.0511 -0.4895
   26SAPC   O32 3429   5.763   4.822   6.296 -0.3829 -0.0729  0.8193
   26SAPC   C32 3430   5.684   4.829   6.525  0.3760 -1.0875  0.3912
   26SAPC   H2X 3431   5.642   4.741   6.577  0.3244 -2.0849 -1.2889
   26SAPC   H2Y 3432   5.605   4.885   6.470 -0.2957 -1.3858  1.0361
   26SAPC   C23 3433   5.955   4.123   6.664  0.9318 -1.1520 -0.7339
   26SAPC   H3R 3434   5.892   4.186   6.731 -0.9904 -1.6359 -1.9973
   26SAPC   H3S 3435   6.061   4.105   6.693  1.1535  0.3396 -0.5441
   26SAPC   C24 3436   5.882   3.988   6.666 -0.0972 -0.1122  0.0835
   26SAPC   H4R 3437   5.774   4.002   6.644 -0.3325  0.8303  1.6581
   26SAPC   H4S 3438   5.877   3.954   6.772 -2.9944  1.9492  0.7335
   26SAPC   C25 3439   5.923   3.879   6.573 -0.4229 -0.6972  0.2153
   26SAPC   H5R 3440   5.924   3.923   6.472 -2.6065 -1.0148 -0.0034
   26SAPC   C26 3441   5.958   3.752   6.597 -0.3545  0.6729 -0.0531
   26SAPC   H6R 3442   5.968   3.691   6.506  0.4241 -1.7448  1.5738
   26SAPC   C27 3443   5.970   3.690   6.732 -0.4752  0.1102  0.0649
   26SAPC   H7R 3444   5.882   3.721   6.793 -0.4788 -0.6277  0.4379
   26SAPC   H7S 3445   6.063   3.735   6.773 -1.2367  1.6242  0.2179
   26SAPC   C28 3446   5.998   3.540   6.728 -0.1927  0.7659 -0.1469
   26SAPC   H8R 3447   6.024   3.495   6.631  0.8193  0.9227  0.0439
   26SAPC   C29 3448   6.004   3.452   6.829  0.5010  0.6207 -0.4043
   26SAPC   H9R 3449   6.029   3.346   6.811 -0.8713  0.1150  0.4998
   26SAPC  C210 3450   5.984   3.471   6.977 -0.0607 -0.1746 -0.1923
   26SAPC  H10R 3451   5.925   3.381   7.005 -0.7539 -0.1419 -1.4711
   26SAPC  H10S 3452   5.901   3.545   6.975  0.4794  0.4351 -1.0543
   26SAPC  C211 3453   6.099   3.509   7.072 -0.0220 -0.0335  1.0070
   26SAPC  H11R 3454   6.189   3.446   7.063 -0.2700 -0.2571 -0.0101
   26SAPC  C212 3455   6.098   3.613   7.156 -0.3976  0.1975 -0.8250
   26SAPC  H12R 3456   6.183   3.626   7.223 -0.0956 -0.1331 -1.1369
   26SAPC  C213 3457   5.988   3.710   7.179  0.3916  0.4821  0.8282
   26SAPC  H13R 3458   5.988   3.717   7.290  1.6093  0.4346  0.8421
   26SAPC  H13S 3459   5.887   3.676   7.148  1.1645  0.1655 -1.4828
   26SAPC  C214 3460   6.009   3.841   7.105 -0.2383 -0.1388 -0.3838
   26SAPC  H14R 3461   6.039   3.829   7.000  1.0143  0.5448 -0.1291
   26SAPC  C215 3462   6.001   3.965   7.145 -0.2976  0.0192  0.0571
   26SAPC  H15R 3463   6.021   4.050   7.079 -0.8191  1.2872  1.4741
   26SAPC  C216 3464   5.960   4.000   7.288 -0.3140  0.4506 -0.2234
   26SAPC  H16R 3465   5.904   3.916   7.335  0.4737 -0.4980 -0.9335
   26SAPC  H16S 3466   5.893   4.088   7.286  1.0164  1.5495  1.4416
   26SAPC  C217 3467   6.088   4.032   7.360 -0.4338  0.0600  0.7054
   26SAPC  H17R 3468   6.136   4.127   7.330  0.0139  0.6969  3.2009
   26SAPC  H17S 3469   6.162   3.951   7.347  0.8542  1.4097 -0.8186
   26SAPC  C218 3470   6.061   4.039   7.513  0.5783 -0.1963 -0.2428
   26SAPC  H18R 3471   6.160   4.033   7.563  1.5389  0.8243 -1.9016
   26SAPC  H18S 3472   6.019   3.941   7.544  1.4314 -1.1852 -2.0485
   26SAPC  C219 3473   5.982   4.165   7.560 -0.2352 -0.1804 -0.6108
   26SAPC  H19R 3474   5.877   4.162   7.526 -0.7688  3.1996  0.3149
   26SAPC  H19S 3475   6.040   4.251   7.519 -0.9246  0.6792  0.1594
   26SAPC  C220 3476   5.969   4.168   7.710  0.1348  0.2126  0.0106
   26SAPC  H20R 3477   5.928   4.072   7.750 -1.9319  0.6920 -0.8524
   26SAPC  H20S 3478   5.908   4.253   7.747 -3.1545 -1.8036 -0.3015
   26SAPC  H20T 3479   6.072   4.183   7.750  0.7051 -1.8517 -0.5461
   26SAPC   C33 3480   5.755   4.916   6.633 -0.4189 -0.0022  0.4290
   26SAPC   H3X 3481   5.687   5.000   6.657 -0.6273  1.1154 -3.3829
   26SAPC   H3Y 3482   5.840   4.973   6.590  0.3893 -2.4331 -1.4575
   26SAPC   C34 3483   5.799   4.829   6.743  0.4613  0.4162 -0.6851
   26SAPC   H4X 3484   5.884   4.770   6.703 -0.3455 -1.4163  0.1638
   26SAPC   H4Y 3485   5.726   4.749   6.767  0.8407  0.6842  1.5473
   26SAPC   C35 3486   5.830   4.902   6.873  0.4770  0.1803  0.4714
   26SAPC   H5X 3487   5.745   4.969   6.901  0.3787  0.9234 -1.4840
   26SAPC   H5Y 3488   5.909   4.973   6.841 -1.0006  0.5147 -2.8302
   26SAPC   C36 3489   5.848   4.808   6.987 -0.1742  0.0504  0.1183
   26SAPC   H6X 3490   5.913   4.853   7.065  1.5487  0.9561 -1.7537
   26SAPC   H6Y 3491   5.905   4.721   6.948 -2.5154 -1.6535  0.2505
   26SAPC   C37 3492   5.715   4.764   7.053 -0.0517 -0.0440 -0.3362
   26SAPC   H7X 3493   5.664   4.687   6.992 -2.0058 -0.9925  2.2980
   26SAPC   H7Y 3494   5.652   4.854   7.073  2.2791  1.6958 -0.3975
   26SAPC   C38 3495   5.747   4.704   7.185  0.3952  0.5285 -0.5342
   26SAPC   H8X 3496   5.778   4.778   7.262 -1.0820  1.2607 -0.6081
   26SAPC   H8Y 3497   5.820   4.620   7.186  0.7703  0.8285  1.5637
   26SAPC   C39 3498   5.616   4.636   7.250 -0.8668  0.4268 -0.9996
   26SAPC   H9X 3499   5.553   4.596   7.168 -2.2526  2.8553 -1.2310
   26SAPC   H9Y 3500   5.554   4.716   7.297 -2.8215 -1.5827  0.0237
   26SAPC  C310 3501   5.663   4.533   7.364 -0.6592  0.0805 -0.7281
   26SAPC  H10X 3502   5.737   4.579   7.433 -2.3236  0.7379  0.6779
   26SAPC  H10Y 3503   5.714   4.448   7.313  2.2350  1.0831  0.3218
   26SAPC  C311 3504   5.541   4.495   7.452  0.5179 -0.3526 -0.3088
   26SAPC  H11X 3505   5.460   4.472   7.380  0.5644  2.3175 -1.3135
   26SAPC  H11Y 3506   5.520   4.592   7.503  1.1198  1.2741 -2.9949
   26SAPC  C312 3507   5.574   4.387   7.562 -0.0357  0.2500 -0.1692
   26SAPC  H12X 3508   5.500   4.394   7.644  0.2935 -0.1003  0.1605
   26SAPC  H12Y 3509   5.676   4.407   7.601 -0.1657  0.1681  0.2125
   26SAPC  C313 3510   5.564   4.238   7.520 -0.2520  0.1314 -0.7852
   26SAPC  H13X 3511   5.635   4.217   7.438 -0.7377 -1.0966 -0.9160
   26SAPC  H13Y 3512   5.475   4.230   7.455  1.3256  0.1352 -3.0590
   26SAPC  C314 3513   5.582   4.134   7.628 -0.4394  0.5142 -0.5817
   26SAPC  H14X 3514   5.512   4.150   7.713 -1.7076 -0.4459 -1.3965
   26SAPC  H14Y 3515   5.685   4.135   7.669 -0.7836 -0.5321  0.3685
   26SAPC  C315 3516   5.551   3.989   7.585  0.4335  0.3507 -0.1191
   26SAPC  H15X 3517   5.620   3.973   7.500  1.0672  1.9150  0.0516
   26SAPC  H15Y 3518   5.445   3.996   7.551  0.7951  0.0442 -1.3627
   26SAPC  C316 3519   5.553   3.874   7.681  0.5760 -0.3142 -0.0663
   26SAPC  H16X 3520   5.534   3.776   7.632  0.1949 -0.2157 -0.1192
   26SAPC  H16Y 3521   5.475   3.884   7.759  0.8754 -0.9637  0.3336
   26SAPC  C317 3522   5.693   3.861   7.747 -0.3968 -0.6908 -0.0728
   26SAPC  H17X 3523   5.711   3.957   7.800 -0.7416  0.2442 -1.5775
   26SAPC  H17Y 3524   5.772   3.846   7.671  0.0155  0.2840  0.1456
   26SAPC  C318 3525   5.697   3.758   7.863 -0.3242 -0.2600 -0.2504
   26SAPC  H18X 3526   5.650   3.664   7.826 -2.3725  0.3223  0.7247
   26SAPC  H18Y 3527   5.644   3.801   7.951  1.5072  2.8134 -0.4994
   26SAPC  H18Z 3528   5.803   3.730   7.881 -0.6897 -0.9553  0.9706
   27SAPC     N 3529   3.020   5.812   6.841 -0.2493  0.3295 -0.0999
   27SAPC   C12 3530   3.074   5.784   6.705 -0.2198  0.2147 -0.5877
   27SAPC  H12A 3531   3.040   5.862   6.639 -2.2973  0.4704  0.6748
   27SAPC  H12B 3532   3.030   5.694   6.666  0.2208  0.4881 -1.7464
   27SAPC   C13 3533   3.073   5.721   6.950  0.1668 -0.1585 -0.2205
   27SAPC  H13A 3534   3.034   5.745   7.048 -2.2016  0.8063 -1.3178
   27SAPC  H13B 3535   3.038   5.621   6.933  0.4951 -0.4856  0.9160
   27SAPC  H13C 3536   3.180   5.728   6.941  0.0851  0.3785 -0.8261
   27SAPC   C14 3537   3.059   5.944   6.887  0.0847 -0.3604 -0.3914
   27SAPC  H14A 3538   3.165   5.959   6.901  0.5144  1.2183 -4.0558
   27SAPC  H14B 3539   3.042   6.022   6.814  0.4267  0.0727 -0.0161
   27SAPC  H14C 3540   2.992   5.970   6.967 -1.9126  0.4284 -2.2245
   27SAPC   C15 3541   2.874   5.808   6.848 -0.1131 -0.0995 -0.4586
   27SAPC  H15A 3542   2.833   5.717   6.807  0.9496 -2.2030  2.8010
   27SAPC  H15B 3543   2.845   5.819   6.952 -0.0527  0.1627 -0.4683
   27SAPC  H15C 3544   2.832   5.891   6.793 -2.3958  0.0816  1.3764
   27SAPC   C11 3545   3.228   5.795   6.694  0.3800 -0.3419  0.5420
   27SAPC  H11A 3546   3.260   5.881   6.756 -2.6066  2.2466 -1.2519
   27SAPC  H11B 3547   3.262   5.820   6.592  0.6445 -0.6186  0.5600
   27SAPC     P 3548   3.285   5.551   6.657 -0.2239  0.1739  0.3300
   27SAPC   O13 3549   3.138   5.532   6.627  0.0569 -0.5034  0.5712
   27SAPC   O14 3550   3.372   5.558   6.534 -0.2581 -0.6963 -0.2612
   27SAPC   O12 3551   3.293   5.681   6.741  0.1857  0.5464  0.2041
   27SAPC   O11 3552   3.338   5.450   6.765  0.0895 -0.1976  0.3423
   27SAPC    C1 3553   3.452   5.369   6.747  0.9138 -0.5307 -1.0062
   27SAPC    HA 3554   3.466   5.332   6.643  1.3344  1.1112 -1.5564
   27SAPC    HB 3555   3.537   5.429   6.785 -2.0794  2.2261  2.0430
   27SAPC    C2 3556   3.452   5.250   6.845  0.1520 -0.0843 -0.9577
   27SAPC    HS 3557   3.536   5.180   6.827 -0.5305 -1.1263 -0.1957
   27SAPC   O21 3558   3.323   5.175   6.829  0.2264 -0.4344 -0.3165
   27SAPC   C21 3559   3.290   5.130   6.709  0.4243 -0.3625 -0.7384
   27SAPC   O22 3560   3.365   5.123   6.617  0.9228 -0.7374  0.4405
   27SAPC   C22 3561   3.147   5.093   6.714 -0.3154  0.7315 -0.4735
   27SAPC   H2R 3562   3.108   5.072   6.816 -3.4051  1.8672 -1.2888
   27SAPC   H2S 3563   3.085   5.178   6.678 -1.7368  0.2964  0.8224
   27SAPC    C3 3564   3.473   5.305   6.991 -0.2630  0.2171 -1.1555
   27SAPC    HX 3565   3.382   5.369   6.999  0.2522  1.1068 -2.1731
   27SAPC    HY 3566   3.565   5.367   6.992 -2.2695  3.4523 -0.7804
   27SAPC   O31 3567   3.472   5.209   7.099  0.1421  0.9016  0.2763
   27SAPC   C31 3568   3.429   5.258   7.213  0.1219  0.6322 -0.0585
   27SAPC   O32 3569   3.435   5.371   7.248  0.3469 -0.3407  0.2296
   27SAPC   C32 3570   3.345   5.157   7.283 -0.2042 -0.4041 -0.1357
   27SAPC   H2X 3571   3.394   5.057   7.295 -1.5262 -1.0248  0.2118
   27SAPC   H2Y 3572   3.253   5.133   7.226  0.1412 -2.1602 -0.0152
   27SAPC   C23 3573   3.116   4.979   6.620  0.5375  0.0502  0.0193
   27SAPC   H3R 3574   3.178   4.988   6.528  0.4554  1.4075  0.0674
   27SAPC   H3S 3575   3.009   4.978   6.593  0.4929 -1.7992  0.1189
   27SAPC   C24 3576   3.149   4.843   6.684  1.0254  0.6236  0.2731
   27SAPC   H4R 3577   3.093   4.766   6.627 -2.1444  1.6817  1.7407
   27SAPC   H4S 3578   3.080   4.832   6.770 -2.0121 -0.4434 -2.1198
   27SAPC   C25 3579   3.291   4.804   6.712 -0.0609 -0.2551  0.0745
   27SAPC   H5R 3580   3.369   4.836   6.641  0.7780 -1.7026  0.2906
   27SAPC   C26 3581   3.342   4.747   6.826 -0.5126 -0.3962 -0.2485
   27SAPC   H6R 3582   3.449   4.720   6.823 -0.4617 -0.5240  1.7153
   27SAPC   C27 3583   3.269   4.702   6.953 -0.8624 -0.0218  0.9534
   27SAPC   H7R 3584   3.332   4.626   7.004 -0.7131  0.5764  1.6915
   27SAPC   H7S 3585   3.179   4.654   6.911  0.1906 -1.1344 -0.1232
   27SAPC   C28 3586   3.219   4.816   7.043  0.8037  0.3774  0.0415
   27SAPC   H8R 3587   3.165   4.897   6.992 -0.0878  0.8938  1.7144
   27SAPC   C29 3588   3.233   4.834   7.179  0.8382 -0.3730  0.5630
   27SAPC   H9R 3589   3.188   4.923   7.225 -0.1457  0.6642 -2.1865
   27SAPC  C210 3590   3.311   4.745   7.274  0.1222  0.0906 -0.6221
   27SAPC  H10R 3591   3.409   4.791   7.296  0.6064 -0.8269 -0.8257
   27SAPC  H10S 3592   3.337   4.644   7.236  0.9317 -0.8315  2.1360
   27SAPC  C211 3593   3.230   4.734   7.398  0.0925 -0.6381  0.2228
   27SAPC  H11R 3594   3.131   4.690   7.381 -0.0489 -0.3352  0.2517
   27SAPC  C212 3595   3.262   4.770   7.525  0.7374  0.1546  0.1784
   27SAPC  H12R 3596   3.185   4.758   7.602  0.7027  4.9150  1.1935
   27SAPC  C213 3597   3.387   4.826   7.577 -0.2796  0.3761 -0.5465
   27SAPC  H13R 3598   3.371   4.931   7.609  0.6127  0.3663 -0.0505
   27SAPC  H13S 3599   3.472   4.843   7.507  1.0943 -0.5063  0.8373
   27SAPC  C214 3600   3.451   4.743   7.692 -0.0222  0.0290  0.5751
   27SAPC  H14R 3601   3.541   4.687   7.663 -1.0570 -0.4369 -2.1267
   27SAPC  C215 3602   3.397   4.738   7.817  0.7191  0.1228  0.1158
   27SAPC  H15R 3603   3.442   4.672   7.892  0.7246  0.6392  0.5741
   27SAPC  C216 3604   3.270   4.809   7.866 -0.8465  0.7074  0.4126
   27SAPC  H16R 3605   3.227   4.871   7.784  0.9074  2.4382  0.7358
   27SAPC  H16S 3606   3.291   4.868   7.957 -0.8685  3.2536 -1.1336
   27SAPC  C217 3607   3.171   4.696   7.897  0.2453 -0.2504 -0.4396
   27SAPC  H17R 3608   3.206   4.641   7.987 -0.1070  0.2453  0.0018
   27SAPC  H17S 3609   3.159   4.621   7.817 -0.2837  1.7517 -2.3302
   27SAPC  C218 3610   3.035   4.751   7.958  0.4823 -0.1156  0.1122
   27SAPC  H18R 3611   2.964   4.666   7.959 -0.9065  1.0227  0.5424
   27SAPC  H18S 3612   2.984   4.832   7.903 -2.2818 -2.4719 -1.0309
   27SAPC  C219 3613   3.056   4.802   8.103  0.5003 -0.1828 -0.3116
   27SAPC  H19R 3614   3.124   4.889   8.097  1.8848 -1.2419 -0.4443
   27SAPC  H19S 3615   3.099   4.722   8.166  0.9771  0.9661  0.8746
   27SAPC  C220 3616   2.924   4.840   8.186 -0.5581 -0.4799  0.4214
   27SAPC  H20R 3617   2.944   4.858   8.294  0.3575  0.2817  0.1372
   27SAPC  H20S 3618   2.849   4.761   8.167 -0.9544  0.2893 -1.3625
   27SAPC  H20T 3619   2.890   4.939   8.147  0.4766  0.5562  2.0281
   27SAPC   C33 3620   3.311   5.199   7.424  0.0871 -0.4312  0.1619
   27SAPC   H3X 3621   3.267   5.114   7.482  1.0746 -2.1308 -1.4463
   27SAPC   H3Y 3622   3.234   5.278   7.413 -0.3273 -0.9802 -0.9705
   27SAPC   C34 3623   3.428   5.248   7.504 -0.1283  0.5651 -0.5911
   27SAPC   H4X 3624   3.456   5.351   7.474 -0.1985  0.3195 -1.5505
   27SAPC   H4Y 3625   3.520   5.190   7.479 -0.8339 -1.0120  0.3072
   27SAPC   C35 3626   3.391   5.236   7.654 -0.2963 -0.6648 -0.2432
   27SAPC   H5X 3627   3.352   5.136   7.681  0.8356 -1.2862 -0.8548
   27SAPC   H5Y 3628   3.313   5.309   7.686  1.2843  1.0973 -0.2220
   27SAPC   C36 3629   3.512   5.274   7.740 -0.4126  0.6049  0.1324
   27SAPC   H6X 3630   3.549   5.378   7.730 -1.1513  0.8014 -0.6431
   27SAPC   H6Y 3631   3.599   5.218   7.699 -1.5142 -2.9083  2.1066
   27SAPC   C37 3632   3.493   5.226   7.883  0.8212  0.0250  0.1067
   27SAPC   H7X 3633   3.431   5.133   7.893  0.2343  0.0449 -2.6574
   27SAPC   H7Y 3634   3.422   5.290   7.939  0.2731 -1.1419  0.7982
   27SAPC   C38 3635   3.629   5.195   7.969 -0.4987  0.0078  0.5816
   27SAPC   H8X 3636   3.679   5.294   7.965  0.8381 -0.5874  1.8098
   27SAPC   H8Y 3637   3.695   5.118   7.923  0.0420  1.6839 -1.5782
   27SAPC   C39 3638   3.590   5.175   8.113  0.0315 -0.1463  0.1436
   27SAPC   H9X 3639   3.513   5.094   8.111 -1.0112  0.7745 -3.2480
   27SAPC   H9Y 3640   3.551   5.265   8.166 -4.5149 -1.1126 -1.1083
   27SAPC  C310 3641   3.713   5.124   8.191  0.3558  0.4170 -0.1531
   27SAPC  H10X 3642   3.768   5.061   8.118  0.2053 -2.1798  1.8343
   27SAPC  H10Y 3643   3.679   5.056   8.272 -1.5463 -0.3082 -1.4810
   27SAPC  C311 3644   3.793   5.234   8.257  0.2308 -0.2195  0.0095
   27SAPC  H11X 3645   3.846   5.296   8.182  0.2261  0.2373  0.3771
   27SAPC  H11Y 3646   3.876   5.187   8.312 -0.1862 -0.7941  0.1623
   27SAPC  C312 3647   3.715   5.323   8.361 -0.5054 -0.2253 -0.0191
   27SAPC  H12X 3648   3.676   5.260   8.444  0.3169 -2.5459 -1.3397
   27SAPC  H12Y 3649   3.626   5.383   8.334 -0.5577  0.2237  1.0688
   27SAPC  C313 3650   3.803   5.432   8.424 -0.0881  0.3004 -0.2778
   27SAPC  H13X 3651   3.842   5.504   8.350 -0.3620  0.3995 -0.3281
   27SAPC  H13Y 3652   3.890   5.401   8.486 -0.5703 -0.3607  0.0799
   27SAPC  C314 3653   3.725   5.519   8.527 -0.0101 -0.3488  0.2735
   27SAPC  H14X 3654   3.703   5.462   8.620 -0.1303 -2.8801 -1.2153
   27SAPC  H14Y 3655   3.626   5.544   8.485  0.3957  3.2665  1.1413
   27SAPC  C315 3656   3.797   5.659   8.545 -0.1452  0.3212 -0.5041
   27SAPC  H15X 3657   3.828   5.700   8.447  0.8605  0.5984 -0.0750
   27SAPC  H15Y 3658   3.886   5.638   8.608 -1.9547 -0.9414  1.7978
   27SAPC  C316 3659   3.720   5.766   8.628 -0.6484  0.0685  0.4190
   27SAPC  H16X 3660   3.642   5.803   8.557 -0.0260 -1.1302 -0.9664
   27SAPC  H16Y 3661   3.792   5.847   8.651 -1.6957  1.4354 -0.9329
   27SAPC  C317 3662   3.667   5.706   8.760  0.0359  0.1942  0.1936
   27SAPC  H17X 3663   3.745   5.650   8.815  1.0060  0.6795 -0.6571
   27SAPC  H17Y 3664   3.590   5.631   8.730  1.5410 -0.8574 -1.1865
   27SAPC  C318 3665   3.599   5.805   8.866  0.2138 -0.1349  0.1447
   27SAPC  H18X 3666   3.555   5.751   8.953 -2.4736  1.9682  0.2162
   27SAPC  H18Y 3667   3.543   5.886   8.815 -1.9103 -2.0727 -0.7595
   27SAPC  H18Z 3668   3.684   5.859   8.914  0.2218  0.1299 -0.1657
   28SAPC     N 3669   2.943   2.722   5.952  0.4523  0.4149 -0.0986
   28SAPC   C12 3670   2.865   2.708   6.089 -0.0003 -0.3982 -0.0868
   28SAPC  H12A 3671   2.794   2.628   6.072  0.6614 -1.6495  2.5323
   28SAPC  H12B 3672   2.802   2.794   6.105 -2.8724 -2.4237  0.2733
   28SAPC   C13 3673   2.851   2.757   5.841 -0.1999  0.1499  0.0774
   28SAPC  H13A 3674   2.891   2.751   5.740 -0.3742  0.4166 -0.0079
   28SAPC  H13B 3675   2.778   2.677   5.840  0.8915 -0.9250 -1.9468
   28SAPC  H13C 3676   2.798   2.848   5.860 -1.5537 -0.9376  1.7455
   28SAPC   C14 3677   3.057   2.819   5.965 -0.4194  0.1008  0.1365
   28SAPC  H14A 3678   3.138   2.788   6.030  2.9101  2.9353 -2.2574
   28SAPC  H14B 3679   3.104   2.828   5.868  0.8230  1.6896  0.8563
   28SAPC  H14C 3680   3.021   2.913   6.004 -1.1399 -0.0358 -0.1826
   28SAPC   C15 3681   3.015   2.597   5.916 -0.7815  0.2054 -0.0822
   28SAPC  H15A 3682   2.945   2.517   5.898  1.9749 -2.1525 -1.1857
   28SAPC  H15B 3683   3.068   2.609   5.822  0.7501  0.6124  0.8004
   28SAPC  H15C 3684   3.080   2.571   5.998 -2.3736  0.5565  1.3332
   28SAPC   C11 3685   2.937   2.662   6.224  0.1707  0.2799  0.1403
   28SAPC  H11A 3686   3.005   2.577   6.199 -0.3830  0.0049 -0.4391
   28SAPC  H11B 3687   2.854   2.622   6.286 -1.0740 -1.1209 -2.3059
   28SAPC     P 3688   2.933   2.882   6.346  0.2590 -0.1239 -0.0177
   28SAPC   O13 3689   3.014   2.953   6.441 -0.1604 -0.6387 -0.5337
   28SAPC   O14 3690   2.867   2.966   6.243 -0.2520 -0.4643 -0.0633
   28SAPC   O12 3691   3.018   2.768   6.280 -0.3720 -0.3076  0.0875
   28SAPC   O11 3692   2.816   2.824   6.436 -0.0513  0.3308 -0.0605
   28SAPC    C1 3693   2.848   2.767   6.568 -0.4889  0.7302  0.4964
   28SAPC    HA 3694   2.840   2.656   6.568 -1.7735  0.7976 -1.0783
   28SAPC    HB 3695   2.946   2.802   6.607 -0.5178 -0.4887  1.7542
   28SAPC    C2 3696   2.751   2.820   6.680 -0.4668 -0.3374  0.6095
   28SAPC    HS 3697   2.808   2.796   6.773  1.5312  1.5559 -0.0290
   28SAPC   O21 3698   2.623   2.758   6.660  0.5489  0.1129  0.5293
   28SAPC   C21 3699   2.611   2.630   6.689  0.2777 -0.1236  0.4195
   28SAPC   O22 3700   2.696   2.558   6.743  0.1486 -0.2311  0.0368
   28SAPC   C22 3701   2.466   2.588   6.680 -0.5768  0.0844  0.0861
   28SAPC   H2R 3702   2.405   2.671   6.638  1.3523  0.2006 -2.7252
   28SAPC   H2S 3703   2.476   2.506   6.606 -0.1161  0.2662 -0.0534
   28SAPC    C3 3704   2.739   2.975   6.675 -0.2897 -0.4342  0.0653
   28SAPC    HX 3705   2.678   3.003   6.586 -0.9323 -0.3706  0.5158
   28SAPC    HY 3706   2.842   3.008   6.649 -1.2035  1.1377 -1.7652
   28SAPC   O31 3707   2.685   3.039   6.793 -0.5796  0.1288  0.3729
   28SAPC   C31 3708   2.768   3.031   6.898 -0.1419 -0.5132  1.3526
   28SAPC   O32 3709   2.872   2.968   6.892  0.4596  0.6216 -0.3570
   28SAPC   C32 3710   2.710   3.088   7.030 -0.2181  0.1410 -0.6675
   28SAPC   H2X 3711   2.607   3.047   7.039 -0.1149 -0.2824 -1.3764
   28SAPC   H2Y 3712   2.707   3.199   7.021  0.1530  0.2258  0.1487
   28SAPC   C23 3713   2.413   2.550   6.819  0.2084 -0.2765 -0.2001
   28SAPC   H3R 3714   2.491   2.496   6.877  0.5637  0.6106  0.1706
   28SAPC   H3S 3715   2.338   2.474   6.791 -0.3182  0.7226 -1.6179
   28SAPC   C24 3716   2.352   2.669   6.890  0.0521 -0.7460  0.1019
   28SAPC   H4R 3717   2.427   2.751   6.903  0.1337 -0.3680 -2.3011
   28SAPC   H4S 3718   2.278   2.723   6.827  0.6394  0.9513  0.7882
   28SAPC   C25 3719   2.286   2.627   7.022 -0.0703 -0.8322 -0.7573
   28SAPC   H5R 3720   2.188   2.586   6.996 -0.6467 -0.0315  0.1068
   28SAPC   C26 3721   2.335   2.627   7.142 -0.0999 -1.0226 -0.0681
   28SAPC   H6R 3722   2.272   2.581   7.219 -0.8539 -0.7029 -0.4794
   28SAPC   C27 3723   2.476   2.660   7.180  0.5027 -1.3954  0.2856
   28SAPC   H7R 3724   2.527   2.693   7.087 -1.6010  1.4272  0.0216
   28SAPC   H7S 3725   2.526   2.572   7.226  1.1725 -1.7361 -1.0648
   28SAPC   C28 3726   2.471   2.786   7.268  0.1605 -0.4653 -0.2217
   28SAPC   H8R 3727   2.473   2.882   7.214  1.0178 -0.3990 -0.0880
   28SAPC   C29 3728   2.457   2.784   7.404 -1.0289  0.0394  0.2809
   28SAPC   H9R 3729   2.457   2.876   7.464  1.7019 -0.5702  1.3847
   28SAPC  C210 3730   2.447   2.659   7.491 -0.1454  0.2079  0.1722
   28SAPC  H10R 3731   2.547   2.630   7.528 -1.0372 -1.4798  1.3637
   28SAPC  H10S 3732   2.407   2.567   7.444 -0.5609 -1.3073  3.2383
   28SAPC  C211 3733   2.359   2.682   7.612  0.7472  0.3048 -0.5127
   28SAPC  H11R 3734   2.261   2.631   7.606  2.0830 -2.5187 -0.2775
   28SAPC  C212 3735   2.386   2.745   7.727 -0.1628  0.0164 -0.9537
   28SAPC  H12R 3736   2.302   2.757   7.797 -0.3068  1.0031 -1.2777
   28SAPC  C213 3737   2.513   2.803   7.774 -0.1630 -0.1000 -0.0830
   28SAPC  H13R 3738   2.577   2.830   7.688  1.2768 -2.2690  0.2392
   28SAPC  H13S 3739   2.584   2.725   7.807  0.9823  0.6805 -0.6390
   28SAPC  C214 3740   2.510   2.918   7.875 -1.0514  0.5583  0.6340
   28SAPC  H14R 3741   2.476   3.015   7.838  0.9938  0.4335 -1.8296
   28SAPC  C215 3742   2.560   2.903   8.000  0.5708 -0.6159  0.3223
   28SAPC  H15R 3743   2.578   2.998   8.053  2.2164  0.6364 -2.2573
   28SAPC  C216 3744   2.607   2.775   8.071 -0.4255  0.2012 -0.0468
   28SAPC  H16R 3745   2.718   2.771   8.075 -0.3224  2.0905  0.3893
   28SAPC  H16S 3746   2.572   2.687   8.015  1.0883 -0.4814  0.0166
   28SAPC  C217 3747   2.548   2.776   8.217 -0.7034  0.5208  0.5096
   28SAPC  H17R 3748   2.579   2.861   8.281 -0.4951  0.1249  0.9374
   28SAPC  H17S 3749   2.585   2.685   8.268 -0.4515 -1.1434 -2.4273
   28SAPC  C218 3750   2.394   2.761   8.211 -0.5070  0.4744  0.1786
   28SAPC  H18R 3751   2.387   2.659   8.255 -0.0726  0.9682  1.4255
   28SAPC  H18S 3752   2.356   2.751   8.107  1.2717 -3.6764 -0.2514
   28SAPC  C219 3753   2.312   2.855   8.301 -0.0298  0.3132 -0.2231
   28SAPC  H19R 3754   2.329   2.833   8.408 -1.6503 -2.1921 -0.3969
   28SAPC  H19S 3755   2.203   2.834   8.288 -0.0580  0.3980 -0.1284
   28SAPC  C220 3756   2.335   3.010   8.285  0.5927 -0.4792  0.1135
   28SAPC  H20R 3757   2.441   3.034   8.311  1.4832 -2.7316 -1.1966
   28SAPC  H20S 3758   2.264   3.076   8.339  0.8308 -1.3954  1.5921
   28SAPC  H20T 3759   2.339   3.037   8.177 -0.9312  2.4580  0.6999
   28SAPC   C33 3760   2.787   3.040   7.156 -0.0133 -0.0363 -0.8136
   28SAPC   H3X 3761   2.897   3.046   7.142  0.0417 -0.0513 -0.3838
   28SAPC   H3Y 3762   2.757   2.934   7.175 -0.0221  0.1863  0.5132
   28SAPC   C34 3763   2.740   3.129   7.277 -0.2432  0.2610 -0.0360
   28SAPC   H4X 3764   2.629   3.126   7.280 -0.2331 -0.0308  0.1085
   28SAPC   H4Y 3765   2.784   3.229   7.258  3.5652 -1.3838 -0.8551
   28SAPC   C35 3766   2.802   3.084   7.411  0.4152 -0.2979 -0.3417
   28SAPC   H5X 3767   2.912   3.096   7.406  0.2140  1.8560 -0.2049
   28SAPC   H5Y 3768   2.778   2.979   7.439 -1.7952  0.3746  0.5120
   28SAPC   C36 3769   2.753   3.173   7.524  0.0163  0.2788  0.3863
   28SAPC   H6X 3770   2.643   3.163   7.534  0.1824 -1.4300  0.8384
   28SAPC   H6Y 3771   2.779   3.280   7.510 -1.6079  0.7469  0.8443
   28SAPC   C37 3772   2.806   3.127   7.656 -0.1114  0.2810 -0.0958
   28SAPC   H7X 3773   2.917   3.128   7.656 -0.0198  0.3169  2.8292
   28SAPC   H7Y 3774   2.774   3.023   7.680  0.0893 -0.1336 -1.5574
   28SAPC   C38 3775   2.754   3.211   7.776  0.7004  0.1362  0.5476
   28SAPC   H8X 3776   2.650   3.182   7.804  0.2984  1.4263  0.4671
   28SAPC   H8Y 3777   2.749   3.320   7.755  1.8436  1.1438  4.6686
   28SAPC   C39 3778   2.834   3.209   7.901  0.2667  0.4272 -0.1062
   28SAPC   H9X 3779   2.930   3.253   7.868  1.1825 -0.9459  0.5996
   28SAPC   H9Y 3780   2.860   3.108   7.939  3.3399  0.3790 -2.0901
   28SAPC  C310 3781   2.786   3.299   8.018 -0.2989 -0.5234 -0.6554
   28SAPC  H10X 3782   2.683   3.266   8.045 -1.2187  1.5300 -1.4734
   28SAPC  H10Y 3783   2.783   3.406   7.989  0.3539 -0.5117 -0.6825
   28SAPC  C311 3784   2.880   3.285   8.138 -0.8192  0.1829 -0.6260
   28SAPC  H11X 3785   2.852   3.348   8.226  1.3306  0.6510 -0.2246
   28SAPC  H11Y 3786   2.981   3.324   8.114 -0.8148  0.4668 -0.1784
   28SAPC  C312 3787   2.898   3.138   8.204 -0.2670  0.6485  0.2704
   28SAPC  H12X 3788   2.970   3.072   8.151 -1.5294 -0.3039 -0.3108
   28SAPC  H12Y 3789   2.801   3.085   8.197 -0.7378  1.1594  2.3826
   28SAPC  C313 3790   2.937   3.129   8.353  0.3495  0.0379  0.1559
   28SAPC  H13X 3791   2.919   3.024   8.384 -2.3232  0.2770 -0.3183
   28SAPC  H13Y 3792   2.865   3.176   8.423 -0.4025 -1.3324  0.3290
   28SAPC  C314 3793   3.077   3.182   8.381  0.2870  0.2734  0.6928
   28SAPC  H14X 3794   3.053   3.290   8.379 -2.4949 -0.2620  0.3639
   28SAPC  H14Y 3795   3.138   3.157   8.291 -2.3765 -2.0436 -0.6401
   28SAPC  C315 3796   3.145   3.123   8.510 -0.0431 -0.0793 -0.3665
   28SAPC  H15X 3797   3.126   3.014   8.502 -1.0420  0.0338  0.2888
   28SAPC  H15Y 3798   3.103   3.153   8.608  0.3564 -0.8864  0.0601
   28SAPC  C316 3799   3.299   3.164   8.514  1.1392  0.4035  0.3169
   28SAPC  H16X 3800   3.300   3.274   8.493 -3.1020  0.1496 -2.6453
   28SAPC  H16Y 3801   3.348   3.120   8.425 -0.7123  1.3106 -1.2410
   28SAPC  C317 3802   3.372   3.113   8.636  0.1753 -0.2534  0.5573
   28SAPC  H17X 3803   3.480   3.119   8.613  0.8179 -3.3067  2.2060
   28SAPC  H17Y 3804   3.346   3.005   8.642 -0.5151 -0.3770 -2.6574
   28SAPC  C318 3805   3.344   3.190   8.763  0.1545  0.4150  0.8083
   28SAPC  H18X 3806   3.337   3.295   8.729  0.0762 -0.2153 -1.2567
   28SAPC  H18Y 3807   3.429   3.172   8.832  2.0729  1.6516 -1.1306
   28SAPC  H18Z 3808   3.241   3.182   8.805 -0.6805  0.5268 -1.1053
   29SAPC     N 3809   5.814   6.104   6.161 -0.0668 -0.1030  0.1592
   29SAPC   C12 3810   5.689   6.108   6.241 -0.8019 -0.1326 -0.0296
   29SAPC  H12A 3811   5.685   6.021   6.305  0.1965 -1.7097 -2.0030
   29SAPC  H12B 3812   5.608   6.102   6.169  0.0444  0.9763 -1.1008
   29SAPC   C13 3813   5.854   5.959   6.128  0.3862  0.1280 -0.0029
   29SAPC  H13A 3814   5.791   5.911   6.054  2.1689  0.3549 -1.7294
   29SAPC  H13B 3815   5.951   5.958   6.081 -0.3242 -0.2272 -1.5344
   29SAPC  H13C 3816   5.850   5.894   6.215 -0.1223 -0.7462 -0.6592
   29SAPC   C14 3817   5.799   6.182   6.033 -0.3092  0.0500  0.0976
   29SAPC  H14A 3818   5.776   6.285   6.056  1.1936  0.2340  0.8573
   29SAPC  H14B 3819   5.899   6.192   5.994 -0.1741  0.6864  0.5884
   29SAPC  H14C 3820   5.725   6.137   5.968 -0.4063 -0.0555  0.2791
   29SAPC   C15 3821   5.933   6.170   6.226 -0.2932  0.2961  0.5063
   29SAPC  H15A 3822   5.964   6.103   6.305  0.7198  0.3971  0.2158
   29SAPC  H15B 3823   6.008   6.172   6.148 -1.5333 -0.7299 -0.7618
   29SAPC  H15C 3824   5.901   6.267   6.261 -0.3114  1.2678 -1.9593
   29SAPC   C11 3825   5.658   6.239   6.325  0.0905 -0.7665 -0.1633
   29SAPC  H11A 3826   5.716   6.233   6.420  0.5376  0.1388 -0.3603
   29SAPC  H11B 3827   5.553   6.235   6.359  0.1992  1.7314  0.6645
   29SAPC     P 3828   5.578   6.467   6.224 -0.1284 -0.0930 -0.1116
   29SAPC   O13 3829   5.638   6.600   6.232  0.2718  0.2564 -0.9296
   29SAPC   O14 3830   5.520   6.428   6.098 -0.0650 -0.1566  0.0780
   29SAPC   O12 3831   5.691   6.362   6.261  0.4510  0.1637  0.7651
   29SAPC   O11 3832   5.480   6.452   6.343 -0.0809  0.0470 -0.0642
   29SAPC    C1 3833   5.531   6.487   6.473 -0.0426  0.2067  0.3471
   29SAPC    HA 3834   5.610   6.420   6.512  1.6432  0.2174 -2.7372
   29SAPC    HB 3835   5.571   6.591   6.476  0.7180  0.0209 -1.6930
   29SAPC    C2 3836   5.414   6.484   6.573 -0.6265  0.2244 -0.8800
   29SAPC    HS 3837   5.434   6.554   6.657 -0.3450 -0.4168 -0.4078
   29SAPC   O21 3838   5.400   6.354   6.618  0.0795  0.6761 -0.0386
   29SAPC   C21 3839   5.487   6.323   6.717 -0.0890  0.4907  0.3425
   29SAPC   O22 3840   5.563   6.402   6.773 -0.3881  0.4519 -0.0925
   29SAPC   C22 3841   5.469   6.181   6.744 -0.5122 -0.5856 -0.2485
   29SAPC   H2R 3842   5.430   6.177   6.847  0.7430  0.2188  0.2778
   29SAPC   H2S 3843   5.384   6.147   6.681 -2.1543 -1.5940  2.3711
   29SAPC    C3 3844   5.283   6.534   6.505 -0.0332 -0.5631 -0.1481
   29SAPC    HX 3845   5.265   6.459   6.425  0.2359 -1.4237  0.5851
   29SAPC    HY 3846   5.308   6.631   6.456 -0.5214  1.0351  2.5407
   29SAPC   O31 3847   5.177   6.542   6.596  0.4012 -0.2896 -0.0051
   29SAPC   C31 3848   5.165   6.647   6.674 -0.3547  0.3343 -0.0297
   29SAPC   O32 3849   5.232   6.746   6.664  0.2008  0.2573  0.0871
   29SAPC   C32 3850   5.061   6.610   6.789  0.2953 -0.6589 -0.7580
   29SAPC   H2X 3851   4.960   6.598   6.744 -0.7370  2.3550  0.4642
   29SAPC   H2Y 3852   5.051   6.704   6.847 -0.3621 -0.9038 -0.4677
   29SAPC   C23 3853   5.598   6.102   6.739 -0.2120 -0.1009  0.3391
   29SAPC   H3R 3854   5.667   6.142   6.817 -1.9855  1.9470  0.9511
   29SAPC   H3S 3855   5.647   6.123   6.642 -1.0007 -0.6327 -0.1772
   29SAPC   C24 3856   5.579   5.950   6.751  0.4104 -0.5919 -0.3757
   29SAPC   H4R 3857   5.508   5.913   6.674  0.1214 -0.3713 -0.2146
   29SAPC   H4S 3858   5.534   5.934   6.851 -0.0603 -2.4654 -0.8433
   29SAPC   C25 3859   5.712   5.881   6.745  0.1115  0.4693  0.1219
   29SAPC   H5R 3860   5.775   5.921   6.664 -0.5620  0.2075 -0.5396
   29SAPC   C26 3861   5.761   5.775   6.823  0.8936 -0.2171 -0.1032
   29SAPC   H6R 3862   5.860   5.739   6.790  1.1064 -0.4350  0.7626
   29SAPC   C27 3863   5.680   5.698   6.930 -0.0749 -0.2851 -0.9040
   29SAPC   H7R 3864   5.627   5.617   6.876  0.6262 -0.7271 -0.9436
   29SAPC   H7S 3865   5.602   5.752   6.987 -0.5694 -1.2032 -0.7012
   29SAPC   C28 3866   5.778   5.639   7.030 -0.1096  0.2961 -0.4645
   29SAPC   H8R 3867   5.840   5.553   7.000  4.3766  1.6398  3.6482
   29SAPC   C29 3868   5.791   5.673   7.165  0.3921  0.0373 -0.0668
   29SAPC   H9R 3869   5.864   5.616   7.226 -0.9990 -0.0099  1.6343
   29SAPC  C210 3870   5.720   5.778   7.241  0.5465  0.2989 -0.8266
   29SAPC  H10R 3871   5.663   5.835   7.165 -0.1668 -0.7891 -1.1141
   29SAPC  H10S 3872   5.787   5.857   7.281 -0.5525  0.2890  1.1493
   29SAPC  C211 3873   5.629   5.711   7.343  0.5690  0.0243 -0.0611
   29SAPC  H11R 3874   5.530   5.685   7.303  0.9023 -0.0368 -0.8460
   29SAPC  C212 3875   5.659   5.685   7.471  0.1725  0.0603 -0.1192
   29SAPC  H12R 3876   5.585   5.635   7.535 -1.4733  0.2095 -1.7902
   29SAPC  C213 3877   5.784   5.721   7.533 -0.8527 -0.1872  0.3589
   29SAPC  H13R 3878   5.854   5.755   7.454  0.9871  0.2397  2.0971
   29SAPC  H13S 3879   5.830   5.628   7.574  0.4144  0.3426  0.2035
   29SAPC  C214 3880   5.768   5.825   7.642 -0.1011  0.2132 -0.9212
   29SAPC  H14R 3881   5.774   5.931   7.613 -1.3269 -0.1299 -2.5785
   29SAPC  C215 3882   5.766   5.796   7.773 -0.7224  0.5256 -0.6881
   29SAPC  H15R 3883   5.748   5.880   7.842  1.0289 -0.2709  0.8488
   29SAPC  C216 3884   5.761   5.656   7.831 -0.2609  0.5021  0.8556
   29SAPC  H16R 3885   5.860   5.606   7.820 -0.9393 -0.9941  1.3642
   29SAPC  H16S 3886   5.679   5.607   7.775  1.8014  0.7894 -2.7112
   29SAPC  C217 3887   5.747   5.654   7.985  0.2798  0.4098  0.9815
   29SAPC  H17R 3888   5.659   5.718   8.009  1.2858  2.4857 -0.6158
   29SAPC  H17S 3889   5.834   5.714   8.019  0.5434  1.1125 -0.8092
   29SAPC  C218 3890   5.761   5.518   8.054  0.2910 -0.2605  0.2508
   29SAPC  H18R 3891   5.731   5.516   8.161 -0.8053  0.8466 -0.0096
   29SAPC  H18S 3892   5.870   5.495   8.050 -0.3294 -3.4219 -1.4532
   29SAPC  C219 3893   5.692   5.401   7.986  0.2346  1.0575  0.2151
   29SAPC  H19R 3894   5.721   5.381   7.881 -0.7004 -1.3124  0.3341
   29SAPC  H19S 3895   5.581   5.408   7.983 -0.3642 -4.2719 -0.9894
   29SAPC  C220 3896   5.723   5.273   8.067  0.1457  0.5389 -0.2700
   29SAPC  H20R 3897   5.656   5.264   8.155 -0.7206 -1.0694 -1.0455
   29SAPC  H20S 3898   5.830   5.256   8.091 -0.1111  1.5457  1.7675
   29SAPC  H20T 3899   5.688   5.182   8.014  3.2248 -1.4149  0.7704
   29SAPC   C33 3900   5.110   6.481   6.862 -0.6184 -0.2588 -0.4496
   29SAPC   H3X 3901   5.111   6.393   6.794  2.4408  0.3900 -1.3992
   29SAPC   H3Y 3902   5.023   6.462   6.928  0.2649  1.9903  1.4801
   29SAPC   C34 3903   5.231   6.508   6.942 -0.7135  0.4560  0.0992
   29SAPC   H4X 3904   5.223   6.595   7.010  2.4646  0.8677  0.1090
   29SAPC   H4Y 3905   5.303   6.520   6.858 -1.0204 -2.3278 -0.6700
   29SAPC   C35 3906   5.276   6.396   7.030 -0.6596  0.4256 -0.9045
   29SAPC   H5X 3907   5.272   6.303   6.968  0.6415  0.9558 -1.8212
   29SAPC   H5Y 3908   5.203   6.368   7.109 -2.4365 -1.2334 -2.9970
   29SAPC   C36 3909   5.415   6.416   7.084  0.2548 -0.3336 -0.3464
   29SAPC   H6X 3910   5.430   6.510   7.141 -1.4898 -1.9891  3.1947
   29SAPC   H6Y 3911   5.496   6.422   7.009  0.4065  0.2518 -0.1412
   29SAPC   C37 3912   5.449   6.297   7.175 -0.7102  0.2917 -0.2364
   29SAPC   H7X 3913   5.457   6.207   7.111  1.6261  1.1366 -1.2373
   29SAPC   H7Y 3914   5.369   6.279   7.250  0.3763  0.3443  0.9845
   29SAPC   C38 3915   5.590   6.315   7.233  0.0889 -0.1264 -0.1069
   29SAPC   H8X 3916   5.586   6.400   7.305 -3.5947 -1.4962  1.6005
   29SAPC   H8Y 3917   5.655   6.356   7.154 -1.2174  2.0165 -0.1470
   29SAPC   C39 3918   5.662   6.188   7.289  0.3546  0.3881  0.2411
   29SAPC   H9X 3919   5.763   6.216   7.325  1.0792 -1.7712  0.0235
   29SAPC   H9Y 3920   5.687   6.119   7.206 -0.2193  0.2423  0.1861
   29SAPC  C310 3921   5.586   6.124   7.400  1.2867 -0.1062  0.6846
   29SAPC  H10X 3922   5.626   6.021   7.410  2.3788  0.2595  0.2630
   29SAPC  H10Y 3923   5.479   6.111   7.374  1.3298 -1.0319  0.9513
   29SAPC  C311 3924   5.600   6.200   7.533 -0.2228  0.4376 -0.6962
   29SAPC  H11X 3925   5.604   6.311   7.521  1.6647  0.6042  1.0310
   29SAPC  H11Y 3926   5.692   6.171   7.588 -1.8086  0.2899  2.0689
   29SAPC  C312 3927   5.480   6.171   7.629 -0.0512  0.4943 -0.0237
   29SAPC  H12X 3928   5.463   6.061   7.635 -2.4193  0.8068  0.0416
   29SAPC  H12Y 3929   5.389   6.227   7.601  1.1090  2.2323 -0.4545
   29SAPC  C313 3930   5.517   6.213   7.781  0.7898 -0.0136 -0.1598
   29SAPC  H13X 3931   5.540   6.321   7.785 -1.5672  0.5059  1.8154
   29SAPC  H13Y 3932   5.614   6.168   7.810  0.4927  0.3480  1.4729
   29SAPC  C314 3933   5.409   6.182   7.887  0.3369 -0.4926  0.3012
   29SAPC  H14X 3934   5.386   6.073   7.889  0.8019 -0.6036 -0.0647
   29SAPC  H14Y 3935   5.318   6.232   7.848  0.5999 -2.4258 -3.2723
   29SAPC  C315 3936   5.450   6.230   8.028  0.2258  0.0057  0.5513
   29SAPC  H15X 3937   5.357   6.283   8.059  0.1374  0.7419 -0.8800
   29SAPC  H15Y 3938   5.527   6.309   8.012  0.3628 -0.4197 -1.0770
   29SAPC  C316 3939   5.492   6.121   8.126 -0.4575  0.2434  0.0678
   29SAPC  H16X 3940   5.406   6.050   8.133 -0.7353  0.3630 -1.5930
   29SAPC  H16Y 3941   5.493   6.167   8.227 -1.0340 -0.3907  0.3739
   29SAPC  C317 3942   5.624   6.040   8.081 -0.4007 -1.5432 -0.3742
   29SAPC  H17X 3943   5.597   5.993   7.984 -1.2051  0.3345 -1.1110
   29SAPC  H17Y 3944   5.642   5.961   8.157 -0.6417 -1.1209  0.1276
   29SAPC  C318 3945   5.749   6.127   8.049 -0.0241  0.4105  0.0977
   29SAPC  H18X 3946   5.791   6.170   8.142 -0.8524 -0.2460  0.7954
   29SAPC  H18Y 3947   5.740   6.212   7.978 -0.7235  0.9837  0.8587
   29SAPC  H18Z 3948   5.824   6.059   8.003 -0.4884 -0.0489 -0.0006
   30SAPC     N 3949   5.284   5.450   5.739  0.4213 -0.6522  0.2014
   30SAPC   C12 3950   5.251   5.462   5.884  0.0550 -0.0809  0.6130
   30SAPC  H12A 3951   5.188   5.379   5.912 -0.1686  0.5640  2.0919
   30SAPC  H12B 3952   5.188   5.548   5.900 -0.7283 -0.6075  0.4041
   30SAPC   C13 3953   5.347   5.583   5.692  0.1447 -0.4878 -0.4258
   30SAPC  H13A 3954   5.430   5.621   5.750  0.9030 -0.9501 -1.1839
   30SAPC  H13B 3955   5.386   5.572   5.592 -1.8439  0.9127 -1.4397
   30SAPC  H13C 3956   5.267   5.655   5.706  0.0857 -0.5287 -0.5523
   30SAPC   C14 3957   5.377   5.339   5.715 -0.6926 -0.4713  0.6737
   30SAPC  H14A 3958   5.469   5.346   5.770 -0.8816  2.6734  0.7780
   30SAPC  H14B 3959   5.337   5.239   5.728 -1.5179 -0.2025  0.3086
   30SAPC  H14C 3960   5.410   5.342   5.612  0.8994 -1.2167  1.1422
   30SAPC   C15 3961   5.172   5.417   5.654  0.3576  0.1612 -0.3470
   30SAPC  H15A 3962   5.129   5.320   5.673  2.0839 -0.5764  0.0507
   30SAPC  H15B 3963   5.099   5.497   5.656  3.3277  3.0960 -0.0709
   30SAPC  H15C 3964   5.212   5.406   5.555  2.9119 -4.3369  0.8883
   30SAPC   C11 3965   5.365   5.467   5.985  0.0222  0.0233  0.6478
   30SAPC  H11A 3966   5.398   5.363   6.009 -0.5320 -0.1805  0.5396
   30SAPC  H11B 3967   5.321   5.498   6.083 -3.3958 -1.6184 -0.2138
   30SAPC     P 3968   5.616   5.506   5.915  0.2909 -0.2164 -0.3649
   30SAPC   O13 3969   5.616   5.367   5.871 -0.3916  0.4776  0.1959
   30SAPC   O14 3970   5.674   5.603   5.818 -0.4435 -0.1213 -0.6894
   30SAPC   O12 3971   5.470   5.561   5.952 -0.3710  0.0640  0.5711
   30SAPC   O11 3972   5.694   5.515   6.047 -0.5415  0.1143 -0.1553
   30SAPC    C1 3973   5.668   5.604   6.155 -0.4439  0.3146 -0.1637
   30SAPC    HA 3974   5.738   5.690   6.143 -0.9358  0.5741 -1.2735
   30SAPC    HB 3975   5.570   5.653   6.139 -0.1922  0.3338 -1.9090
   30SAPC    C2 3976   5.701   5.542   6.293  0.8687 -0.8595 -1.0650
   30SAPC    HS 3977   5.809   5.515   6.294  0.9803 -0.3980 -0.5308
   30SAPC   O21 3978   5.616   5.437   6.310  0.4086 -0.1513  0.3646
   30SAPC   C21 3979   5.658   5.310   6.314 -0.0308  0.7838 -0.2949
   30SAPC   O22 3980   5.773   5.275   6.318 -0.0488 -0.2652  0.1437
   30SAPC   C22 3981   5.540   5.219   6.317  0.1959  0.4216  0.6066
   30SAPC   H2R 3982   5.460   5.259   6.250  0.6216 -0.6800 -0.6045
   30SAPC   H2S 3983   5.560   5.123   6.266  1.3248  1.0987 -0.2865
   30SAPC    C3 3984   5.677   5.639   6.413  0.0204 -0.4509  0.0040
   30SAPC    HX 3985   5.573   5.677   6.409 -0.2484 -1.2363 -1.6074
   30SAPC    HY 3986   5.747   5.724   6.398 -1.9097  1.1328 -0.4508
   30SAPC   O31 3987   5.706   5.579   6.537 -0.2866 -0.3536 -0.1485
   30SAPC   C31 3988   5.834   5.552   6.560  0.1015 -1.2443  0.2477
   30SAPC   O32 3989   5.926   5.616   6.504  0.1816  0.3472  0.3008
   30SAPC   C32 3990   5.842   5.461   6.679 -0.8471  0.1193  0.4838
   30SAPC   H2X 3991   5.810   5.360   6.645 -3.3838  0.4553  1.6541
   30SAPC   H2Y 3992   5.764   5.499   6.748 -0.8086 -0.1107  0.6554
   30SAPC   C23 3993   5.494   5.212   6.467  0.0569  0.3748  0.0939
   30SAPC   H3R 3994   5.489   5.317   6.504 -2.1756  0.1557  0.5571
   30SAPC   H3S 3995   5.574   5.157   6.521 -0.1642  0.2156  0.2584
   30SAPC   C24 3996   5.358   5.149   6.500  0.7051 -0.0775 -0.0935
   30SAPC   H4R 3997   5.353   5.137   6.610 -2.0947 -4.1275 -0.4359
   30SAPC   H4S 3998   5.358   5.051   6.448  2.9491  0.2436 -0.8284
   30SAPC   C25 3999   5.252   5.248   6.441  0.2472  0.2125 -0.0619
   30SAPC   H5R 4000   5.248   5.240   6.331  1.6914 -0.2450 -0.1114
   30SAPC   C26 4001   5.184   5.351   6.502  0.2363  0.1902  0.0610
   30SAPC   H6R 4002   5.102   5.401   6.448 -1.0885 -0.1948  1.6393
   30SAPC   C27 4003   5.190   5.384   6.647  0.1511  0.3172 -0.3555
   30SAPC   H7R 4004   5.221   5.299   6.711 -0.4620  0.6241  0.3540
   30SAPC   H7S 4005   5.091   5.417   6.684  0.4036 -0.0445  0.6605
   30SAPC   C28 4006   5.281   5.505   6.651 -0.3515 -0.6868 -0.2637
   30SAPC   H8R 4007   5.266   5.589   6.583 -2.3553  0.2618  1.2289
   30SAPC   C29 4008   5.376   5.531   6.743 -0.8057 -0.2741 -0.4290
   30SAPC   H9R 4009   5.428   5.628   6.746  1.3573 -1.3674 -0.6539
   30SAPC  C210 4010   5.414   5.437   6.856 -0.3591  0.1362  0.0740
   30SAPC  H10R 4011   5.333   5.362   6.873 -1.1779  1.4584  2.6086
   30SAPC  H10S 4012   5.414   5.500   6.948 -0.2118  1.3041 -0.7048
   30SAPC  C211 4013   5.542   5.359   6.843  0.6781 -0.4012 -0.4042
   30SAPC  H11R 4014   5.567   5.335   6.739 -1.9898  0.4023 -1.3284
   30SAPC  C212 4015   5.614   5.299   6.942  0.6550  0.2306 -0.2600
   30SAPC  H12R 4016   5.704   5.242   6.915  0.5429 -0.3875  0.6191
   30SAPC  C213 4017   5.575   5.296   7.091  0.1499  0.1361  0.4450
   30SAPC  H13R 4018   5.468   5.327   7.101  0.5556  1.0602  2.4074
   30SAPC  H13S 4019   5.630   5.378   7.143 -1.2283  2.0611 -0.9700
   30SAPC  C214 4020   5.594   5.159   7.161 -0.0474 -0.2231  0.1344
   30SAPC  H14R 4021   5.501   5.108   7.190  0.9699 -2.2103  0.0803
   30SAPC  C215 4022   5.712   5.110   7.198  0.3061  0.1829 -1.3837
   30SAPC  H15R 4023   5.719   5.016   7.254  1.3163  0.2936 -1.3122
   30SAPC  C216 4024   5.851   5.171   7.178 -0.2904  0.0260 -0.6049
   30SAPC  H16R 4025   5.867   5.203   7.073  1.6076  0.5584 -0.1852
   30SAPC  H16S 4026   5.923   5.088   7.189 -0.3218 -0.3212 -2.7003
   30SAPC  C217 4027   5.884   5.288   7.275 -0.4379  0.4243 -0.1695
   30SAPC  H17R 4028   5.792   5.351   7.279 -1.1341 -0.5329 -0.7520
   30SAPC  H17S 4029   5.973   5.346   7.244 -0.7886 -0.3330 -2.7806
   30SAPC  C218 4030   5.924   5.238   7.420 -1.0118 -0.3311  0.4494
   30SAPC  H18R 4031   6.033   5.218   7.416 -0.9805 -0.4932  1.8288
   30SAPC  H18S 4032   5.867   5.144   7.432  1.5060 -1.8984  0.6414
   30SAPC  C219 4033   5.905   5.340   7.531  0.0504 -0.2091  0.2226
   30SAPC  H19R 4034   5.806   5.388   7.514  0.3088  0.4196  0.4481
   30SAPC  H19S 4035   5.981   5.420   7.517  1.3684 -0.8738  3.0332
   30SAPC  C220 4036   5.921   5.284   7.670 -0.3433 -0.3442 -0.0642
   30SAPC  H20R 4037   5.848   5.201   7.677 -1.1952  0.3594 -0.4293
   30SAPC  H20S 4038   5.903   5.365   7.745 -1.2910  0.2795 -0.9353
   30SAPC  H20T 4039   6.024   5.249   7.693  0.6901  2.7713  0.6117
   30SAPC   C33 4040   5.983   5.454   6.735  0.0745  0.4583  0.2852
   30SAPC   H3X 4041   6.002   5.560   6.763 -2.6328  1.5181 -1.5006
   30SAPC   H3Y 4042   6.057   5.435   6.654 -0.5429 -0.0434 -0.1584
   30SAPC   C34 4043   5.992   5.345   6.833 -0.2561  0.5924 -0.6251
   30SAPC   H4X 4044   5.945   5.249   6.804  0.8886  0.1012 -0.9440
   30SAPC   H4Y 4045   5.939   5.362   6.929 -1.5263 -1.9289 -0.7777
   30SAPC   C35 4046   6.142   5.309   6.865 -0.0552 -0.2020 -0.0882
   30SAPC   H5X 4047   6.199   5.403   6.879  0.3408 -0.8457  3.7140
   30SAPC   H5Y 4048   6.190   5.268   6.774  0.9714  0.6412  0.0526
   30SAPC   C36 4049   6.162   5.207   6.983  0.3529  0.2681 -0.1723
   30SAPC   H6X 4050   6.104   5.114   6.963  0.5874  0.0602  0.1161
   30SAPC   H6Y 4051   6.120   5.262   7.070  2.2117  1.0607  0.2848
   30SAPC   C37 4052   6.302   5.183   7.030 -0.0318 -0.8553 -0.1431
   30SAPC   H7X 4053   6.367   5.271   7.008 -1.3947  0.3931  0.6522
   30SAPC   H7Y 4054   6.333   5.093   6.972 -0.5481 -2.5036  2.0141
   30SAPC   C38 4055   6.301   5.160   7.182  0.1386  0.5854 -0.1671
   30SAPC   H8X 4056   6.241   5.072   7.212 -0.7003  1.9094  2.3846
   30SAPC   H8Y 4057   6.261   5.255   7.223  1.7880  0.9463  0.7142
   30SAPC   C39 4058   6.439   5.132   7.236 -0.3041  0.7231  0.3224
   30SAPC   H9X 4059   6.504   5.158   7.150 -1.7803 -1.6196 -1.6308
   30SAPC   H9Y 4060   6.457   5.023   7.248  1.0972  0.8867 -0.2239
   30SAPC  C310 4061   6.464   5.192   7.376 -0.6289  0.0417  0.2488
   30SAPC  H10X 4062   6.457   5.300   7.353 -1.0637 -0.4660 -2.2385
   30SAPC  H10Y 4063   6.573   5.180   7.395 -0.4613  1.5465  0.3922
   30SAPC  C311 4064   6.377   5.139   7.487 -0.1901  0.4806 -0.1989
   30SAPC  H11X 4065   6.398   5.032   7.508 -1.0974  0.7854  2.8170
   30SAPC  H11Y 4066   6.267   5.149   7.469 -0.0388  1.6678 -0.5052
   30SAPC  C312 4067   6.400   5.215   7.619  0.0652 -0.4398 -0.4741
   30SAPC  H12X 4068   6.372   5.321   7.599 -2.1612 -0.8760  0.0773
   30SAPC  H12Y 4069   6.508   5.208   7.645 -0.0798  0.3472  0.3908
   30SAPC  C313 4070   6.329   5.166   7.749 -0.7588 -0.9579  0.6330
   30SAPC  H13X 4071   6.392   5.088   7.798  0.3359  0.2906  1.2645
   30SAPC  H13Y 4072   6.239   5.113   7.712 -0.2460 -2.0985  0.9590
   30SAPC  C314 4073   6.289   5.270   7.851  0.2736 -0.2242  0.1266
   30SAPC  H14X 4074   6.231   5.350   7.801 -0.8523 -0.1323  1.5197
   30SAPC  H14Y 4075   6.373   5.324   7.900 -0.3313  0.4427  0.4392
   30SAPC  C315 4076   6.195   5.218   7.958 -0.6901  0.6225 -1.0202
   30SAPC  H15X 4077   6.254   5.157   8.030 -1.2555  0.2281 -0.8764
   30SAPC  H15Y 4078   6.109   5.163   7.913  0.3999 -1.6965 -0.4300
   30SAPC  C316 4079   6.128   5.325   8.046  0.5990  0.6650 -0.1998
   30SAPC  H16X 4080   6.053   5.278   8.113  0.6143 -0.2390 -0.8010
   30SAPC  H16Y 4081   6.081   5.392   7.971  0.1847  2.0139  1.2082
   30SAPC  C317 4082   6.215   5.397   8.148  0.1277 -0.1041  0.2631
   30SAPC  H17X 4083   6.287   5.464   8.096  0.2314  0.7098  1.3954
   30SAPC  H17Y 4084   6.272   5.328   8.213  0.9530  1.5949  1.4360
   30SAPC  C318 4085   6.143   5.485   8.246  0.8533  0.1162  0.9430
   30SAPC  H18X 4086   6.219   5.526   8.317  1.8177  0.0911 -0.0370
   30SAPC  H18Y 4087   6.070   5.428   8.306 -1.7121  1.4559 -0.7406
   30SAPC  H18Z 4088   6.092   5.576   8.207 -1.5216 -2.0040 -1.2350
   31SAPC     N 4089   1.872   6.712   6.030  0.4155 -0.2329 -0.6031
   31SAPC   C12 4090   1.789   6.653   6.151 -0.1582  0.2749 -0.3448
   31SAPC  H12A 4091   1.726   6.576   6.108 -1.5514  2.0239 -1.6035
   31SAPC  H12B 4092   1.716   6.727   6.182  0.0425 -0.0221  0.9178
   31SAPC   C13 4093   1.961   6.806   6.088  0.6875 -0.6364 -0.2799
   31SAPC  H13A 4094   1.911   6.880   6.148  3.8132  1.5206 -0.0807
   31SAPC  H13B 4095   2.032   6.758   6.154  1.7900  0.4905 -0.6217
   31SAPC  H13C 4096   2.027   6.865   6.026  1.5930 -0.0582  1.1761
   31SAPC   C14 4097   1.955   6.604   5.972  0.4758  0.4746 -0.2311
   31SAPC  H14A 4098   1.894   6.528   5.926  0.1070  0.3593  0.4418
   31SAPC  H14B 4099   2.022   6.644   5.897  0.9932 -3.0915 -1.8994
   31SAPC  H14C 4100   2.012   6.554   6.049  0.9354 -2.1232 -2.1013
   31SAPC   C15 4101   1.784   6.778   5.929 -0.5061  0.4589 -0.7127
   31SAPC  H15A 4102   1.849   6.788   5.844 -0.0288  0.3152 -0.3667
   31SAPC  H15B 4103   1.706   6.710   5.899  2.5457 -3.0180 -1.3378
   31SAPC  H15C 4104   1.738   6.870   5.963 -1.7085 -0.8541  1.4733
   31SAPC   C11 4105   1.865   6.589   6.270 -0.1890 -0.1949  0.4979
   31SAPC  H11A 4106   1.785   6.550   6.337  0.4839  0.4736  1.7208
   31SAPC  H11B 4107   1.907   6.665   6.339 -1.3203  0.6673  0.2647
   31SAPC     P 4108   2.093   6.457   6.278  0.0803 -0.3625  0.7157
   31SAPC   O13 4109   2.112   6.311   6.303  0.2040 -0.4762  0.3094
   31SAPC   O14 4110   2.184   6.521   6.176 -0.1509 -0.6336 -0.2865
   31SAPC   O12 4111   1.949   6.481   6.228  0.0071  0.3773  0.1316
   31SAPC   O11 4112   2.100   6.538   6.417 -0.4423  0.1199 -0.2908
   31SAPC    C1 4113   2.019   6.485   6.528 -0.1166 -0.1334  0.7317
   31SAPC    HA 4114   1.913   6.489   6.495 -0.3561 -0.4850  1.4187
   31SAPC    HB 4115   2.048   6.380   6.553  0.7570 -0.0237  0.2107
   31SAPC    C2 4116   2.026   6.576   6.652  0.3520  0.4069 -0.1798
   31SAPC    HS 4117   1.974   6.669   6.622  0.1742  0.6064  0.7091
   31SAPC   O21 4118   2.167   6.588   6.693 -0.4108 -0.5175  0.0442
   31SAPC   C21 4119   2.193   6.706   6.747 -0.5927  0.9625  0.6373
   31SAPC   O22 4120   2.121   6.804   6.755  0.0830 -0.3668  0.3423
   31SAPC   C22 4121   2.341   6.709   6.780 -0.0514  0.0690 -0.4282
   31SAPC   H2R 4122   2.398   6.677   6.690 -0.3638  0.5538 -0.8023
   31SAPC   H2S 4123   2.374   6.808   6.817  1.9844 -0.9137  0.5271
   31SAPC    C3 4124   1.948   6.503   6.759 -0.0961 -0.3991  0.3848
   31SAPC    HX 4125   2.001   6.409   6.786 -0.6495 -0.9402 -0.3466
   31SAPC    HY 4126   1.847   6.474   6.726 -0.1350 -1.2987  1.2497
   31SAPC   O31 4127   1.952   6.590   6.873 -0.9248  0.1646 -0.0379
   31SAPC   C31 4128   1.844   6.667   6.895 -0.2962  0.7909 -0.5473
   31SAPC   O32 4129   1.741   6.658   6.831  0.3213 -0.0310  0.1063
   31SAPC   C32 4130   1.874   6.745   7.021  0.2689  0.5384 -0.1225
   31SAPC   H2X 4131   1.948   6.826   7.003  0.1888  0.3994 -1.1333
   31SAPC   H2Y 4132   1.915   6.667   7.088  1.0511  0.4814 -0.6626
   31SAPC   C23 4133   2.380   6.614   6.898  0.1944 -0.0657  0.6070
   31SAPC   H3R 4134   2.353   6.513   6.861  1.6621 -0.6831  1.1769
   31SAPC   H3S 4135   2.331   6.658   6.988 -2.6134  1.3346 -1.4306
   31SAPC   C24 4136   2.530   6.607   6.919 -0.0607  1.2671 -0.0860
   31SAPC   H4R 4137   2.577   6.557   6.831  1.7830 -0.0722  1.5688
   31SAPC   H4S 4138   2.548   6.535   7.002 -0.7630  1.1740 -0.0114
   31SAPC   C25 4139   2.601   6.736   6.943 -0.5867 -0.1046  0.5778
   31SAPC   H5R 4140   2.594   6.802   6.855  2.8632  1.4976  1.3441
   31SAPC   C26 4141   2.688   6.772   7.045  1.6458  0.9414 -0.2378
   31SAPC   H6R 4142   2.748   6.865   7.048  1.5043  1.0039  2.3744
   31SAPC   C27 4143   2.723   6.682   7.168  0.7510 -0.7582  0.0443
   31SAPC   H7R 4144   2.834   6.682   7.164  0.8288  0.6828  1.2883
   31SAPC   H7S 4145   2.692   6.579   7.141  0.4112 -0.1245 -2.2573
   31SAPC   C28 4146   2.684   6.736   7.311 -0.3063 -0.1515  0.3201
   31SAPC   H8R 4147   2.743   6.824   7.340 -2.8009  2.0246 -0.7597
   31SAPC   C29 4148   2.587   6.693   7.391 -0.8929 -0.3593 -0.3695
   31SAPC   H9R 4149   2.579   6.736   7.492  1.3401 -0.7293  0.0132
   31SAPC  C210 4150   2.498   6.573   7.375 -0.3637  0.2899 -0.0465
   31SAPC  H10R 4151   2.482   6.561   7.266  1.7033 -0.3020 -0.3353
   31SAPC  H10S 4152   2.400   6.591   7.424  0.0742 -1.3735  1.5535
   31SAPC  C211 4153   2.559   6.451   7.429 -0.2078  0.6236 -0.8892
   31SAPC  H11R 4154   2.647   6.411   7.378 -0.0220 -0.3220  0.1125
   31SAPC  C212 4155   2.520   6.378   7.542  0.3665 -0.1897 -0.9441
   31SAPC  H12R 4156   2.576   6.288   7.572 -1.4948 -1.1949 -0.3618
   31SAPC  C213 4157   2.405   6.403   7.639  0.2760  0.1135 -0.3694
   31SAPC  H13R 4158   2.320   6.411   7.568  0.6295 -1.2524 -0.9938
   31SAPC  H13S 4159   2.421   6.504   7.682  2.7182 -0.0281 -0.8280
   31SAPC  C214 4160   2.360   6.301   7.742  0.4106 -0.1359 -0.1101
   31SAPC  H14R 4161   2.406   6.315   7.841 -1.4272 -0.3053  0.8044
   31SAPC  C215 4162   2.283   6.192   7.726  0.3920  0.2431  0.2943
   31SAPC  H15R 4163   2.277   6.120   7.809 -0.3878  0.7778  0.7074
   31SAPC  C216 4164   2.224   6.147   7.599  0.2858  0.1231  0.2325
   31SAPC  H16R 4165   2.211   6.233   7.529  0.4458  0.2810  0.3954
   31SAPC  H16S 4166   2.128   6.099   7.627  0.1118 -0.1013 -0.6953
   31SAPC  C217 4167   2.311   6.049   7.522 -0.3682  0.4030  0.2087
   31SAPC  H17R 4168   2.419   6.075   7.530 -0.5770  1.0841  0.9109
   31SAPC  H17S 4169   2.290   6.050   7.413 -0.9809 -0.4162  0.3048
   31SAPC  C218 4170   2.295   5.906   7.569 -0.3706 -0.4425  0.5162
   31SAPC  H18R 4171   2.192   5.867   7.553  0.0489 -1.3993  0.1272
   31SAPC  H18S 4172   2.327   5.910   7.676  2.4272  0.6164 -0.2717
   31SAPC  C219 4173   2.391   5.811   7.494 -0.2170 -0.2349 -1.2113
   31SAPC  H19R 4174   2.495   5.847   7.510 -0.1574 -0.7743 -0.3204
   31SAPC  H19S 4175   2.370   5.823   7.386 -0.8261 -3.8820 -1.6281
   31SAPC  C220 4176   2.376   5.659   7.532 -0.0108 -0.2813  0.1035
   31SAPC  H20R 4177   2.272   5.621   7.525  0.1541 -0.4738 -1.7746
   31SAPC  H20S 4178   2.416   5.630   7.632 -3.2580  0.7134  1.8280
   31SAPC  H20T 4179   2.441   5.608   7.457  0.1103  0.7258 -0.4907
   31SAPC   C33 4180   1.749   6.810   7.087  0.1471 -0.4850  0.0200
   31SAPC   H3X 4181   1.657   6.764   7.046  0.0284 -0.6223  0.4371
   31SAPC   H3Y 4182   1.751   6.919   7.067  1.5980 -0.3701  0.6120
   31SAPC   C34 4183   1.751   6.804   7.240 -0.1613  0.0456  0.9557
   31SAPC   H4X 4184   1.848   6.852   7.264  0.3307  0.1515 -1.0595
   31SAPC   H4Y 4185   1.767   6.700   7.275  0.7005  0.5082  2.0000
   31SAPC   C35 4186   1.632   6.862   7.325  0.4255  1.1531  0.8006
   31SAPC   H5X 4187   1.539   6.811   7.292  0.5924  0.8360  0.8194
   31SAPC   H5Y 4188   1.617   6.969   7.300 -1.3567  0.6229 -0.6118
   31SAPC   C36 4189   1.648   6.853   7.478 -0.0724 -0.2956  0.1623
   31SAPC   H6X 4190   1.600   6.937   7.533 -1.1394 -0.6061 -0.2629
   31SAPC   H6Y 4191   1.757   6.851   7.502  0.0133  0.7253 -0.1308
   31SAPC   C37 4192   1.585   6.726   7.535  1.0983  0.0941 -0.2343
   31SAPC   H7X 4193   1.651   6.640   7.512  0.9002 -0.3733  0.9078
   31SAPC   H7Y 4194   1.485   6.711   7.489  1.0013 -0.0024  0.0086
   31SAPC   C38 4195   1.565   6.731   7.689 -0.0921 -0.3310  0.2633
   31SAPC   H8X 4196   1.505   6.819   7.718  1.1786 -0.3734  3.5580
   31SAPC   H8Y 4197   1.672   6.734   7.720  0.8912  0.2426 -2.8548
   31SAPC   C39 4198   1.483   6.613   7.735 -0.0131  1.1312 -0.5092
   31SAPC   H9X 4199   1.536   6.516   7.723 -2.4647 -0.3913  0.2782
   31SAPC   H9Y 4200   1.391   6.596   7.675  0.1783  0.6302 -0.6734
   31SAPC  C310 4201   1.444   6.636   7.882 -0.0326  0.7007 -0.1698
   31SAPC  H10X 4202   1.371   6.719   7.888  0.3089  0.9497  0.6571
   31SAPC  H10Y 4203   1.532   6.677   7.937 -0.1011 -0.4050  0.7867
   31SAPC  C311 4204   1.383   6.506   7.947 -0.0605  0.0141 -1.0336
   31SAPC  H11X 4205   1.466   6.433   7.948  0.9467  1.1421  0.5034
   31SAPC  H11Y 4206   1.297   6.468   7.887 -0.8914 -1.0339  0.7393
   31SAPC  C312 4207   1.329   6.527   8.091 -0.5329  0.3066 -0.1753
   31SAPC  H12X 4208   1.255   6.448   8.116 -1.2172  1.4473  1.6585
   31SAPC  H12Y 4209   1.253   6.608   8.099 -3.1013 -1.8115 -1.4023
   31SAPC  C313 4210   1.429   6.549   8.206 -0.1936  0.3763  0.3725
   31SAPC  H13X 4211   1.491   6.639   8.189 -0.7796  0.3661 -2.2959
   31SAPC  H13Y 4212   1.505   6.468   8.204  0.0233  0.5631 -2.7522
   31SAPC  C314 4213   1.361   6.557   8.345  0.1056 -0.2647 -0.5003
   31SAPC  H14X 4214   1.442   6.555   8.421 -0.1977 -2.2213 -0.2009
   31SAPC  H14Y 4215   1.299   6.466   8.357 -0.3460  0.1778  0.6415
   31SAPC  C315 4216   1.278   6.681   8.363  0.5001  0.3196 -0.4827
   31SAPC  H15X 4217   1.201   6.713   8.290  1.6409  0.2930 -1.7363
   31SAPC  H15Y 4218   1.354   6.762   8.362  0.4401  0.4388 -3.6703
   31SAPC  C316 4219   1.220   6.681   8.509 -0.2783  0.0090 -0.2303
   31SAPC  H16X 4220   1.164   6.588   8.533  0.8728 -1.0563 -1.4779
   31SAPC  H16Y 4221   1.144   6.763   8.515  0.5376  0.8806 -1.2707
   31SAPC  C317 4222   1.316   6.703   8.631  0.5776  0.6808  0.7651
   31SAPC  H17X 4223   1.330   6.813   8.628  1.7400  0.5950  2.2076
   31SAPC  H17Y 4224   1.412   6.649   8.618  0.1758 -0.1983  1.3754
   31SAPC  C318 4225   1.258   6.660   8.757  0.0958 -0.5505 -0.0937
   31SAPC  H18X 4226   1.225   6.555   8.766 -0.7682 -0.2784  0.0569
   31SAPC  H18Y 4227   1.163   6.715   8.780  0.1163 -0.4737 -0.1915
   31SAPC  H18Z 4228   1.327   6.698   8.835  1.5046 -0.4885 -1.3204
   32SAPC     N 4229   1.842   1.673   5.985  0.7010 -0.9460  0.1003
   32SAPC   C12 4230   1.980   1.646   6.054  0.9994 -0.0400  0.2380
   32SAPC  H12A 4231   2.042   1.732   6.036  0.5291 -0.0444 -1.6177
   32SAPC  H12B 4232   2.032   1.562   6.009 -1.7415  0.0725 -3.6773
   32SAPC   C13 4233   1.740   1.568   6.005  0.2130  0.1677  0.1052
   32SAPC  H13A 4234   1.655   1.578   5.939 -0.9861  2.4210  1.8310
   32SAPC  H13B 4235   1.781   1.469   5.994 -1.7267 -0.5170 -1.3571
   32SAPC  H13C 4236   1.705   1.581   6.106 -0.1782  0.2314 -0.0373
   32SAPC   C14 4237   1.779   1.813   6.016 -0.3611 -0.2403  0.0983
   32SAPC  H14A 4238   1.710   1.830   5.935 -0.3889  0.5049  0.2783
   32SAPC  H14B 4239   1.725   1.800   6.108 -1.7531 -1.6986 -0.8592
   32SAPC  H14C 4240   1.857   1.888   6.015  0.0475 -0.6549 -0.7566
   32SAPC   C15 4241   1.872   1.676   5.836 -0.1442  0.1958 -0.4198
   32SAPC  H15A 4242   1.919   1.583   5.809 -2.2091 -1.2281  0.6156
   32SAPC  H15B 4243   1.778   1.679   5.784 -0.7277  0.4600  0.6222
   32SAPC  H15C 4244   1.935   1.761   5.810  0.1218  1.1102  2.7690
   32SAPC   C11 4245   1.975   1.616   6.208  0.5956 -0.3552  0.7189
   32SAPC  H11A 4246   1.902   1.535   6.229 -2.3146  1.8260 -0.3724
   32SAPC  H11B 4247   1.925   1.701   6.259 -1.3063 -0.8774 -0.1798
   32SAPC     P 4248   2.178   1.459   6.237 -0.0995 -0.3215  0.1578
   32SAPC   O13 4249   2.112   1.396   6.118 -0.1460  0.0535  0.0086
   32SAPC   O14 4250   2.322   1.485   6.237 -0.3243 -0.5285  0.3052
   32SAPC   O12 4251   2.106   1.596   6.265 -0.4678  0.3177  0.0403
   32SAPC   O11 4252   2.136   1.373   6.368  0.0721 -0.7529 -0.5193
   32SAPC    C1 4253   2.025   1.399   6.457 -0.0108 -0.4408  0.6806
   32SAPC    HA 4254   2.010   1.509   6.460  1.9796 -0.1451  2.9758
   32SAPC    HB 4255   1.933   1.345   6.425  0.8470 -1.3230 -0.3628
   32SAPC    C2 4256   2.058   1.358   6.601 -1.1242 -0.2493  0.5248
   32SAPC    HS 4257   1.959   1.351   6.651 -1.3435 -3.6073 -0.1833
   32SAPC   O21 4258   2.149   1.459   6.663  0.0549 -0.0539  0.0167
   32SAPC   C21 4259   2.090   1.569   6.691 -0.4869 -0.6911 -0.0794
   32SAPC   O22 4260   1.970   1.592   6.667  0.1372 -0.1543 -0.2289
   32SAPC   C22 4261   2.195   1.669   6.749 -0.1610  0.3392  0.2028
   32SAPC   H2R 4262   2.295   1.642   6.710 -1.3789 -1.0528 -2.1924
   32SAPC   H2S 4263   2.171   1.765   6.698 -0.9099 -0.6928 -1.4690
   32SAPC    C3 4264   2.133   1.224   6.604 -0.1790  0.5944 -0.2001
   32SAPC    HX 4265   2.231   1.237   6.553 -0.2749  0.0134 -0.5365
   32SAPC    HY 4266   2.081   1.151   6.538  0.5080 -0.3311  0.2692
   32SAPC   O31 4267   2.143   1.169   6.734 -0.1713  0.2361 -0.0937
   32SAPC   C31 4268   2.268   1.168   6.789  0.2768  0.1496 -0.0721
   32SAPC   O32 4269   2.365   1.234   6.757 -0.1294 -0.4464 -0.0985
   32SAPC   C32 4270   2.277   1.065   6.901  1.1328 -0.7335 -0.1834
   32SAPC   H2X 4271   2.386   1.050   6.917  1.1293 -0.2565  0.3049
   32SAPC   H2Y 4272   2.218   0.975   6.872 -1.0281  0.8875 -1.1340
   32SAPC   C23 4273   2.175   1.680   6.897 -0.3083 -0.2388 -0.4937
   32SAPC   H3R 4274   2.077   1.711   6.938  0.1980  1.6737 -0.6449
   32SAPC   H3S 4275   2.246   1.759   6.930  1.9838 -1.8072 -1.3695
   32SAPC   C24 4276   2.221   1.544   6.962  0.7807  0.3495  0.0403
   32SAPC   H4R 4277   2.282   1.579   7.049  0.6461  2.0130 -0.5063
   32SAPC   H4S 4278   2.290   1.489   6.896  0.6864 -1.6028  1.4585
   32SAPC   C25 4279   2.104   1.456   7.004  0.3213  1.1301  0.4476
   32SAPC   H5R 4280   2.053   1.398   6.926 -0.0771  0.9567  0.8361
   32SAPC   C26 4281   2.054   1.457   7.126 -0.4875 -0.2727 -0.3269
   32SAPC   H6R 4282   1.963   1.396   7.136 -0.5787 -0.3075 -1.2442
   32SAPC   C27 4283   2.094   1.525   7.256 -0.3771 -0.3768 -0.6683
   32SAPC   H7R 4284   2.162   1.612   7.240  0.3881 -0.8105  0.1504
   32SAPC   H7S 4285   2.148   1.455   7.322 -1.9219 -1.5464 -0.5889
   32SAPC   C28 4286   1.987   1.571   7.342  0.1201  0.0027 -0.1197
   32SAPC   H8R 4287   1.940   1.666   7.312 -0.4856  0.7401  2.7888
   32SAPC   C29 4288   1.947   1.527   7.467  0.4306 -0.1313  0.8557
   32SAPC   H9R 4289   1.861   1.576   7.515  0.7853 -0.5857  1.9729
   32SAPC  C210 4290   2.003   1.404   7.538 -0.2766 -0.4908  0.5181
   32SAPC  H10R 4291   2.096   1.437   7.589 -0.7239  0.6980  0.6145
   32SAPC  H10S 4292   2.030   1.327   7.462  0.9261  0.0403  0.3841
   32SAPC  C211 4293   1.908   1.340   7.636  0.0787 -0.5763 -0.8436
   32SAPC  H11R 4294   1.826   1.286   7.586 -0.9158  0.4788 -0.4028
   32SAPC  C212 4295   1.921   1.341   7.777  0.0666 -0.4383  0.1262
   32SAPC  H12R 4296   1.844   1.291   7.837  0.9542 -0.8992  0.9086
   32SAPC  C213 4297   2.021   1.419   7.854 -0.6779 -0.4266  0.7266
   32SAPC  H13R 4298   2.086   1.493   7.803  1.5469 -0.0951  3.7410
   32SAPC  H13S 4299   2.102   1.350   7.888 -0.6006 -1.0062 -0.5731
   32SAPC  C214 4300   1.968   1.510   7.968 -0.0273 -0.7481  0.6532
   32SAPC  H14R 4301   1.932   1.599   7.915  1.3751 -1.3768 -1.4954
   32SAPC  C215 4302   1.968   1.501   8.099  0.8497 -0.8118  0.1585
   32SAPC  H15R 4303   1.920   1.584   8.152  1.9743 -1.2495  1.9459
   32SAPC  C216 4304   2.013   1.394   8.198 -0.1724 -0.4040 -0.8503
   32SAPC  H16R 4305   2.104   1.424   8.253 -1.7188 -2.0765  2.9647
   32SAPC  H16S 4306   2.039   1.308   8.132 -0.9038 -0.4734 -1.0616
   32SAPC  C217 4307   1.908   1.362   8.300  0.1815 -0.8152 -0.0659
   32SAPC  H17R 4308   1.953   1.273   8.349  2.0431  0.0578 -0.0862
   32SAPC  H17S 4309   1.816   1.332   8.244 -1.1564  3.0864 -0.2509
   32SAPC  C218 4310   1.883   1.474   8.396  0.0979 -0.9067 -0.2495
   32SAPC  H18R 4311   1.854   1.570   8.348 -3.0917  0.6850  4.2548
   32SAPC  H18S 4312   1.973   1.482   8.459  0.4788 -2.1984 -0.6027
   32SAPC  C219 4313   1.763   1.439   8.493  0.2693  0.0726  0.1763
   32SAPC  H19R 4314   1.671   1.424   8.432  1.6385 -1.7140 -1.5949
   32SAPC  H19S 4315   1.759   1.516   8.573  1.1656  0.6872 -0.3561
   32SAPC  C220 4316   1.788   1.299   8.552  0.5541  0.0588  0.2234
   32SAPC  H20R 4317   1.892   1.295   8.590  0.3941 -1.4131  0.5580
   32SAPC  H20S 4318   1.769   1.214   8.483 -1.5485  1.7735 -1.4880
   32SAPC  H20T 4319   1.718   1.280   8.636  2.1554 -1.6599  1.2456
   32SAPC   C33 4320   2.216   1.115   7.038 -0.0761  0.3671 -0.3562
   32SAPC   H3X 4321   2.107   1.134   7.027 -0.2256 -0.1271  0.2302
   32SAPC   H3Y 4322   2.266   1.208   7.074 -0.5842  0.4406  0.1779
   32SAPC   C34 4323   2.233   1.009   7.141 -0.4878 -0.7595  0.2252
   32SAPC   H4X 4324   2.342   0.989   7.140 -0.0287  1.4708  0.7067
   32SAPC   H4Y 4325   2.180   0.920   7.102  1.8368 -1.4916 -1.4731
   32SAPC   C35 4326   2.198   1.077   7.273  0.4040 -0.2573 -0.3482
   32SAPC   H5X 4327   2.094   1.116   7.280  0.7391  0.5307  0.5583
   32SAPC   H5Y 4328   2.244   1.176   7.297 -1.4143 -0.1455  3.3976
   32SAPC   C36 4329   2.239   1.001   7.400 -0.6008  0.5401  0.2789
   32SAPC   H6X 4330   2.349   1.008   7.409 -0.5466  3.6518 -1.3626
   32SAPC   H6Y 4331   2.209   0.898   7.372 -0.5171  0.7695 -0.6874
   32SAPC   C37 4332   2.170   1.053   7.531 -0.0266  0.0280  0.1387
   32SAPC   H7X 4333   2.059   1.048   7.534  0.0385 -1.4629  1.9209
   32SAPC   H7Y 4334   2.201   1.159   7.541 -0.4468 -0.0608  3.7544
   32SAPC   C38 4335   2.224   0.994   7.657  0.4104  0.4461 -0.1596
   32SAPC   H8X 4336   2.335   0.999   7.657  0.3684  1.5898  0.0980
   32SAPC   H8Y 4337   2.196   0.887   7.661  0.2234  0.5072  0.2098
   32SAPC   C39 4338   2.165   1.058   7.783 -0.6371 -0.1374 -0.9602
   32SAPC   H9X 4339   2.054   1.054   7.770 -0.7420  1.6252 -0.8220
   32SAPC   H9Y 4340   2.202   1.162   7.786  2.1712 -1.0230 -1.6593
   32SAPC  C310 4341   2.210   0.981   7.902  0.0091 -0.0074 -0.6301
   32SAPC  H10X 4342   2.321   0.972   7.900 -0.1060 -1.8188 -0.8285
   32SAPC  H10Y 4343   2.167   0.879   7.891 -1.3060  0.5479 -0.7249
   32SAPC  C311 4344   2.169   1.044   8.033 -0.1748 -0.1060  0.3082
   32SAPC  H11X 4345   2.130   1.147   8.016 -0.3603 -0.3434 -0.8223
   32SAPC  H11Y 4346   2.260   1.053   8.095 -0.3376  0.5291  0.4604
   32SAPC  C312 4347   2.051   0.978   8.100 -0.3369  0.7446 -0.4529
   32SAPC  H12X 4348   1.998   0.906   8.036 -2.5705 -0.0265  2.0929
   32SAPC  H12Y 4349   1.968   1.047   8.127 -1.3448 -0.0273 -1.5056
   32SAPC  C313 4350   2.092   0.908   8.232  0.4047  0.1170 -0.2239
   32SAPC  H13X 4351   2.130   0.989   8.297  0.8599  0.6114 -1.1042
   32SAPC  H13Y 4352   2.177   0.837   8.218  0.5832  0.3024 -0.0751
   32SAPC  C314 4353   1.982   0.825   8.299  0.8439  0.2608  0.1342
   32SAPC  H14X 4354   1.895   0.893   8.308  0.4069  0.0672 -2.0173
   32SAPC  H14Y 4355   2.026   0.784   8.392  2.5422  1.9988  0.1636
   32SAPC  C315 4356   1.929   0.708   8.212 -0.2825  1.0092 -0.4155
   32SAPC  H15X 4357   2.015   0.638   8.220 -0.1470  1.2238  0.0632
   32SAPC  H15Y 4358   1.916   0.736   8.105  2.1744  1.0326 -0.7551
   32SAPC  C316 4359   1.803   0.647   8.277  0.8412 -0.1367  0.2118
   32SAPC  H16X 4360   1.765   0.567   8.209 -1.4483 -0.0958  1.3370
   32SAPC  H16Y 4361   1.729   0.726   8.302  0.7605 -0.3285  0.5835
   32SAPC  C317 4362   1.831   0.579   8.410 -0.1315  0.2011  0.4069
   32SAPC  H17X 4363   1.882   0.652   8.476  0.1764 -1.8239  2.5320
   32SAPC  H17Y 4364   1.901   0.493   8.406 -1.7105 -1.1703  1.3475
   32SAPC  C318 4365   1.715   0.523   8.488 -0.5610 -0.1730  0.2360
   32SAPC  H18X 4366   1.658   0.454   8.421  0.1674 -0.7104  0.1637
   32SAPC  H18Y 4367   1.645   0.609   8.497  0.4419  0.8322 -1.1104
   32SAPC  H18Z 4368   1.744   0.482   8.587 -0.1149  0.5366  0.4040
   33POPC     N 4369   5.007   3.371  10.985 -0.3252  0.7427  0.5635
   33POPC   C12 4370   4.930   3.379  10.855 -0.1500  0.2331  0.4853
   33POPC  H12A 4371   4.824   3.372  10.874 -0.5550  2.0806 -0.8330
   33POPC  H12B 4372   4.955   3.288  10.803  2.1945  1.9066 -1.5821
   33POPC   C13 4373   4.943   3.276  11.076  0.5199  0.2558 -0.8248
   33POPC  H13A 4374   4.911   3.179  11.040 -1.1899  0.0950  0.9238
   33POPC  H13B 4375   4.998   3.273  11.169  0.6203  0.6112 -0.8731
   33POPC  H13C 4376   4.842   3.308  11.099  0.1431 -0.7358 -1.0442
   33POPC   C14 4377   5.152   3.336  10.972  0.1967  0.2452 -0.0995
   33POPC  H14A 4378   5.159   3.239  10.924  1.9937  1.0244 -1.5373
   33POPC  H14B 4379   5.196   3.396  10.894  0.0065  0.1098 -0.3153
   33POPC  H14C 4380   5.211   3.339  11.062  1.1246 -0.9342 -0.6341
   33POPC   C15 4381   4.987   3.496  11.058  0.7541 -0.7375  0.3728
   33POPC  H15A 4382   4.883   3.523  11.076  1.6933  2.5693  1.7053
   33POPC  H15B 4383   5.038   3.575  11.005  1.1916 -0.8239  0.6622
   33POPC  H15C 4384   5.029   3.496  11.158 -3.0668 -1.2279  2.1692
   33POPC   C11 4385   4.937   3.502  10.766 -0.3627  0.4610 -0.2342
   33POPC  H11A 4386   4.925   3.597  10.823  1.8586  0.6699 -0.0266
   33POPC  H11B 4387   4.864   3.503  10.682  2.3468 -0.7712 -2.7718
   33POPC     P 4388   5.103   3.466  10.568 -0.0390  0.1530  0.0879
   33POPC   O13 4389   5.251   3.462  10.568 -0.0378 -0.3085  0.1790
   33POPC   O14 4390   5.041   3.550  10.467 -0.7357  0.0805 -0.2643
   33POPC   O12 4391   5.067   3.512  10.710  0.2141 -0.5057 -0.4085
   33POPC   O11 4392   5.039   3.324  10.558  0.4598 -0.4435  0.1161
   33POPC    C1 4393   5.114   3.208  10.526  0.3005 -0.2120 -0.9506
   33POPC    HA 4394   5.207   3.206  10.588 -0.1420  3.8742  0.1754
   33POPC    HB 4395   5.064   3.118  10.568 -0.2282 -0.0219 -1.1628
   33POPC    C2 4396   5.138   3.181  10.377 -0.9522  0.3657  0.6098
   33POPC    HS 4397   5.186   3.272  10.336  0.5121 -0.9474 -0.7268
   33POPC   O21 4398   5.015   3.145  10.307 -1.0632  0.1033 -0.5988
   33POPC   C21 4399   4.980   3.224  10.211  0.2399  0.0958 -0.2591
   33POPC   O22 4400   5.045   3.311  10.150 -0.2657  0.2910  0.1057
   33POPC   C22 4401   4.833   3.212  10.182  1.1790 -0.1579 -0.0276
   33POPC   H2R 4402   4.802   3.315  10.154 -2.5711 -1.0829  0.2437
   33POPC   H2S 4403   4.771   3.174  10.266  0.6407 -2.6161 -1.4254
   33POPC    C3 4404   5.233   3.057  10.373  0.7906 -0.3334  0.9185
   33POPC    HX 4405   5.165   2.970  10.387 -1.8292  1.2578 -1.0253
   33POPC    HY 4406   5.306   3.063  10.456 -0.7483  0.7601  2.2607
   33POPC   O31 4407   5.306   3.043  10.251  0.9851 -0.0052 -0.8478
   33POPC   C31 4408   5.416   3.122  10.246  0.8653 -0.4451  0.1810
   33POPC   O32 4409   5.441   3.212  10.324  0.0604 -0.1553  0.3665
   33POPC   C32 4410   5.509   3.090  10.129  0.2332 -0.1449 -0.1097
   33POPC   H2X 4411   5.459   3.024  10.054 -0.4519  0.2308  0.0109
   33POPC   H2Y 4412   5.599   3.047  10.178 -0.0748 -0.8500 -0.1344
   33POPC   C23 4413   4.801   3.122  10.065 -0.9299  0.1339  0.5737
   33POPC   H3R 4414   4.690   3.129  10.060 -1.1767 -2.2304  1.1760
   33POPC   H3S 4415   4.835   3.018  10.087 -1.1501  0.1368  0.9494
   33POPC   C24 4416   4.873   3.151   9.930  0.0657  0.2418 -0.3998
   33POPC   H4R 4417   4.980   3.127   9.949 -0.5443 -1.5227  1.2884
   33POPC   H4S 4418   4.861   3.256   9.898 -0.4691  1.1209  2.4179
   33POPC   C25 4419   4.825   3.062   9.818  0.0678  0.4833  0.3728
   33POPC   H5R 4420   4.717   3.039   9.803 -0.1036  0.0245  2.1379
   33POPC   H5S 4421   4.862   2.958   9.831 -0.2046  0.1425 -1.2633
   33POPC   C26 4422   4.884   3.116   9.690 -0.4667  0.0143 -0.5283
   33POPC   H6R 4423   4.994   3.128   9.696 -0.5828  1.1170 -0.3304
   33POPC   H6S 4424   4.838   3.216   9.672 -0.2732 -0.1968 -2.3720
   33POPC   C27 4425   4.840   3.033   9.567  0.0989 -0.1235 -0.3508
   33POPC   H7R 4426   4.734   3.058   9.544 -0.8320 -0.7028  2.7699
   33POPC   H7S 4427   4.851   2.925   9.586  0.7697  0.3344  2.2087
   33POPC   C28 4428   4.926   3.061   9.444 -0.1450 -0.0430  0.2227
   33POPC   H8R 4429   5.025   3.027   9.479  0.3424  1.7272  0.5992
   33POPC   H8S 4430   4.927   3.172   9.438  0.1528 -0.0547  0.0629
   33POPC   C29 4431   4.883   2.990   9.316 -0.1476  0.3679  0.1544
   33POPC   H91 4432   4.848   2.887   9.337 -1.2860  1.1615  2.4331
   33POPC  C210 4433   4.881   3.048   9.190  0.3142 -0.8064  0.1827
   33POPC  H101 4434   4.831   3.001   9.105  1.0242 -0.1234 -0.6283
   33POPC  C211 4435   4.915   3.190   9.164 -0.4178 -0.2998 -0.3577
   33POPC  H11R 4436   5.024   3.186   9.144 -0.6479  1.3395 -2.1487
   33POPC  H11S 4437   4.888   3.252   9.252  0.3012 -0.2186 -0.1906
   33POPC  C212 4438   4.839   3.259   9.044  0.4944 -0.6323 -0.5648
   33POPC  H12R 4439   4.856   3.194   8.955 -1.4127 -1.4918 -0.3510
   33POPC  H12S 4440   4.882   3.359   9.024 -1.4327  0.1238 -1.1753
   33POPC  C213 4441   4.683   3.262   9.072 -0.0407  0.6983  0.2655
   33POPC  H13R 4442   4.653   3.321   9.162 -0.6439 -0.1358  0.6260
   33POPC  H13S 4443   4.659   3.155   9.087  2.2900  0.1974  0.8070
   33POPC  C214 4444   4.605   3.319   8.955 -0.3476  0.1873 -0.4045
   33POPC  H14R 4445   4.645   3.272   8.863 -0.7110  2.3900 -1.7461
   33POPC  H14S 4446   4.629   3.426   8.938 -0.5010  0.1564 -0.8445
   33POPC  C215 4447   4.456   3.278   8.969 -0.7014 -0.7344 -0.2120
   33POPC  H15R 4448   4.459   3.179   9.018 -1.5805  0.0048  1.4448
   33POPC  H15S 4449   4.415   3.282   8.866  0.1989 -0.4332 -0.5677
   33POPC  C216 4450   4.380   3.382   9.054  0.2673  0.0173  0.0263
   33POPC  H16R 4451   4.412   3.483   9.018  1.0584 -0.6249 -1.1627
   33POPC  H16S 4452   4.394   3.369   9.163  3.1014 -0.7746 -0.3365
   33POPC  C217 4453   4.229   3.364   9.032  0.6077  0.6223  0.5420
   33POPC  H17R 4454   4.196   3.258   9.029 -1.2929  1.1994 -1.4002
   33POPC  H17S 4455   4.196   3.392   8.930  2.1272 -0.3781 -0.2562
   33POPC  C218 4456   4.137   3.434   9.132  0.4072 -0.2514  0.6571
   33POPC  H18R 4457   4.146   3.397   9.236 -2.0934  0.1516  1.0612
   33POPC  H18S 4458   4.032   3.406   9.111  0.5028  0.4881 -0.9166
   33POPC  H18T 4459   4.146   3.544   9.127 -1.3238  0.1798  4.2355
   33POPC   C33 4460   5.548   3.220  10.049 -0.3119 -0.1735 -0.1284
   33POPC   H3X 4461   5.654   3.205  10.016 -0.6760 -1.5906 -0.7304
   33POPC   H3Y 4462   5.553   3.307  10.117  0.6769 -0.5120  0.2556
   33POPC   C34 4463   5.459   3.255   9.930 -0.2673  0.8352 -0.7937
   33POPC   H4X 4464   5.460   3.167   9.862 -0.2236  2.4191 -2.9442
   33POPC   H4Y 4465   5.493   3.339   9.866  1.7796  1.9051  1.5511
   33POPC   C35 4466   5.310   3.291   9.966 -0.3185 -0.3752  0.8081
   33POPC   H5X 4467   5.304   3.392  10.011  0.3073 -0.1040  0.3075
   33POPC   H5Y 4468   5.264   3.219  10.038  1.4196 -1.1765  1.1749
   33POPC   C36 4469   5.220   3.276   9.834 -0.6238  0.0945  0.4023
   33POPC   H6X 4470   5.125   3.315   9.875  0.0820  2.2007  0.1320
   33POPC   H6Y 4471   5.227   3.165   9.831  0.3907  0.0971  1.6726
   33POPC   C37 4472   5.254   3.364   9.719 -0.2189  0.4663  0.5381
   33POPC   H7X 4473   5.357   3.345   9.681 -0.8876  0.7579 -1.5197
   33POPC   H7Y 4474   5.248   3.473   9.740 -1.6492  0.3431  0.8481
   33POPC   C38 4475   5.174   3.339   9.591  0.9656 -0.0093 -0.3378
   33POPC   H8X 4476   5.072   3.383   9.601  1.2079  0.8263 -1.3643
   33POPC   H8Y 4477   5.159   3.232   9.567 -1.0767 -0.6070  2.9166
   33POPC   C39 4478   5.243   3.399   9.474 -0.0137 -0.0879  0.5863
   33POPC   H9X 4479   5.333   3.336   9.456 -1.6815 -1.9779 -1.6920
   33POPC   H9Y 4480   5.261   3.508   9.486 -1.9012  0.4269 -0.7279
   33POPC  C310 4481   5.164   3.392   9.337  0.1958 -0.1410 -0.0883
   33POPC  H10X 4482   5.055   3.387   9.357  0.1492  2.6321  0.6106
   33POPC  H10Y 4483   5.186   3.295   9.287 -0.4008  0.6728 -2.0239
   33POPC  C311 4484   5.177   3.511   9.235  0.0347 -0.1164 -0.0577
   33POPC  H11X 4485   5.277   3.519   9.188 -0.6455  0.7339 -1.4338
   33POPC  H11Y 4486   5.157   3.604   9.292  0.1804  0.0557 -0.2863
   33POPC  C312 4487   5.074   3.513   9.119  0.2085 -0.3125  0.8772
   33POPC  H12X 4488   4.971   3.515   9.160  0.2015 -0.0264  0.8489
   33POPC  H12Y 4489   5.091   3.413   9.073  2.3730 -0.0044  0.8862
   33POPC  C313 4490   5.109   3.624   9.014  0.2197  0.2766  0.1189
   33POPC  H13X 4491   5.219   3.628   8.999  0.2503 -1.8697 -0.5634
   33POPC  H13Y 4492   5.069   3.726   9.032  1.0089  0.7023 -0.5007
   33POPC  C314 4493   5.047   3.585   8.877 -0.1084 -0.5362 -0.2086
   33POPC  H14X 4494   4.936   3.587   8.879 -0.1302 -0.9420 -0.6228
   33POPC  H14Y 4495   5.069   3.477   8.863 -1.2685 -1.2237  2.5608
   33POPC  C315 4496   5.096   3.672   8.755  0.0854 -0.0207  0.0656
   33POPC  H15X 4497   5.043   3.635   8.665  0.9182 -1.4633  0.1263
   33POPC  H15Y 4498   5.207   3.663   8.743  0.1341 -0.8894  0.9843
   33POPC  C316 4499   5.074   3.826   8.769  0.0104 -0.9053 -0.0354
   33POPC  H16X 4500   5.127   3.874   8.855  1.6470 -0.2744 -1.3476
   33POPC  H16Y 4501   4.964   3.846   8.771  0.0752 -0.5691  0.2969
   33POPC  H16Z 4502   5.107   3.883   8.680 -0.6310 -0.6672 -0.1328
   34POPC     N 4503   3.660   4.871  11.187 -0.1812  0.4616  0.6549
   34POPC   C12 4504   3.713   4.811  11.060 -1.4528  0.0261  0.1676
   34POPC  H12A 4505   3.716   4.705  11.080  1.9922  0.0642  0.3900
   34POPC  H12B 4506   3.810   4.857  11.049 -0.5219 -1.5853  1.3769
   34POPC   C13 4507   3.739   4.829  11.309  0.3973 -0.2474 -0.8836
   34POPC  H13A 4508   3.836   4.876  11.312  0.5783 -0.6354  2.0997
   34POPC  H13B 4509   3.688   4.849  11.402 -0.5089  1.5843 -1.7161
   34POPC  H13C 4510   3.764   4.724  11.306 -0.0956 -0.4199  0.3397
   34POPC   C14 4511   3.673   5.021  11.190 -0.5802  0.4899 -0.3898
   34POPC  H14A 4512   3.681   5.060  11.290 -1.0302  0.5642 -0.3793
   34POPC  H14B 4513   3.763   5.051  11.139 -0.5280  0.2315 -0.4500
   34POPC  H14C 4514   3.588   5.074  11.148 -1.5630 -0.7962 -0.1041
   34POPC   C15 4515   3.523   4.831  11.228  0.4282  0.1022 -0.1272
   34POPC  H15A 4516   3.497   4.868  11.326  0.6853  2.5993 -0.9281
   34POPC  H15B 4517   3.526   4.723  11.230 -0.9203  0.0591  1.1208
   34POPC  H15C 4518   3.448   4.860  11.155 -0.4770  2.2754  1.5301
   34POPC   C11 4519   3.624   4.826  10.936 -0.4676 -0.5929 -0.2554
   34POPC  H11A 4520   3.683   4.808  10.843  1.1958 -0.1999  0.6791
   34POPC  H11B 4521   3.599   4.934  10.946  1.6336 -0.2536  2.2489
   34POPC     P 4522   3.533   4.585  10.919  0.6543 -0.0687  0.0826
   34POPC   O13 4523   3.400   4.525  10.924  0.8785  0.0802  0.1506
   34POPC   O14 4524   3.633   4.521  11.012  0.3526 -0.3147  0.2170
   34POPC   O12 4525   3.509   4.744  10.942 -0.1817  0.2948 -0.3287
   34POPC   O11 4526   3.591   4.580  10.772  0.2668  0.4152 -0.3712
   34POPC    C1 4527   3.584   4.469  10.687 -0.1803 -0.3153  0.3575
   34POPC    HA 4528   3.580   4.371  10.740  1.1420 -1.2380 -1.1167
   34POPC    HB 4529   3.680   4.466  10.631  0.0089  2.3486  0.4258
   34POPC    C2 4530   3.467   4.469  10.591 -0.1584 -0.0690 -0.3835
   34POPC    HS 4531   3.391   4.405  10.640 -0.2555  0.4017  0.0757
   34POPC   O21 4532   3.492   4.409  10.461  0.2681  0.4223  0.0947
   34POPC   C21 4533   3.519   4.280  10.469 -1.0827 -0.1544  0.3186
   34POPC   O22 4534   3.520   4.213  10.571 -0.5040 -0.0844 -0.0716
   34POPC   C22 4535   3.547   4.229  10.333 -0.3351 -0.5716  0.0422
   34POPC   H2R 4536   3.572   4.121  10.339  2.5829 -0.1085 -1.8546
   34POPC   H2S 4537   3.634   4.285  10.292 -1.0562  1.8900  1.6013
   34POPC    C3 4538   3.399   4.605  10.569  0.0201 -0.5282  0.3074
   34POPC    HX 4539   3.483   4.669  10.535 -0.0332  0.4079  1.8547
   34POPC    HY 4540   3.362   4.655  10.661 -2.2130  2.6960 -2.0763
   34POPC   O31 4541   3.295   4.608  10.468 -0.4567 -0.5329  0.0124
   34POPC   C31 4542   3.183   4.547  10.508 -0.0458  0.0798 -0.4093
   34POPC   O32 4543   3.164   4.486  10.615 -0.3994  0.2150 -0.5627
   34POPC   C32 4544   3.081   4.545  10.388 -0.1208  0.6353 -0.0187
   34POPC   H2X 4545   3.048   4.649  10.369  1.4110  0.8307 -1.9076
   34POPC   H2Y 4546   3.007   4.468  10.416  0.8678  0.0360  1.0405
   34POPC   C23 4547   3.419   4.244  10.237 -0.1173 -0.2326 -0.2797
   34POPC   H3R 4548   3.395   4.352  10.253  0.2621  0.1018 -1.8115
   34POPC   H3S 4549   3.340   4.172  10.269 -1.9146  0.3174 -3.1124
   34POPC   C24 4550   3.461   4.229  10.090  0.2405 -0.6743 -0.2416
   34POPC   H4R 4551   3.360   4.237  10.043 -0.7143  1.1267  1.9375
   34POPC   H4S 4552   3.504   4.128  10.073  1.3528 -0.1934 -0.3230
   34POPC   C25 4553   3.543   4.343  10.036 -0.9174  0.0157 -0.9630
   34POPC   H5R 4554   3.651   4.315  10.041 -1.1366 -0.6622  0.7948
   34POPC   H5S 4555   3.524   4.436  10.094 -0.5700 -0.9227  0.7096
   34POPC   C26 4556   3.517   4.374   9.896  0.2753 -0.0786 -0.2027
   34POPC   H6R 4557   3.586   4.449   9.854 -0.3071  1.5852  1.6486
   34POPC   H6S 4558   3.418   4.422   9.882 -0.4884 -1.7689 -0.9380
   34POPC   C27 4559   3.540   4.256   9.803 -0.1950 -0.5631  0.2238
   34POPC   H7R 4560   3.481   4.171   9.844 -0.6782  0.4692  1.7900
   34POPC   H7S 4561   3.646   4.223   9.795 -0.5142 -1.0948 -2.5692
   34POPC   C28 4562   3.475   4.277   9.663  0.1827  0.1510 -0.3671
   34POPC   H8R 4563   3.506   4.368   9.608  0.4155  1.3334  1.6389
   34POPC   H8S 4564   3.366   4.288   9.682  0.1533 -0.3077 -0.2598
   34POPC   C29 4565   3.484   4.153   9.581 -0.6507 -0.1349 -0.6083
   34POPC   H91 4566   3.532   4.069   9.634  1.2439 -0.2664 -2.4043
   34POPC  C210 4567   3.471   4.131   9.451 -0.7762 -0.2834 -0.1640
   34POPC  H101 4568   3.513   4.036   9.416  0.3490  0.4174 -0.7912
   34POPC  C211 4569   3.440   4.245   9.351 -0.1894  0.0777  0.3751
   34POPC  H11R 4570   3.427   4.333   9.416 -1.9793 -0.7173  1.1467
   34POPC  H11S 4571   3.341   4.219   9.308  0.3005 -3.4012  1.0074
   34POPC  C212 4572   3.550   4.271   9.239  0.4025  0.4806  0.2137
   34POPC  H12R 4573   3.649   4.274   9.289  0.4070  0.9075  0.1813
   34POPC  H12S 4574   3.535   4.372   9.196  1.9471  1.3070  1.5442
   34POPC  C213 4575   3.555   4.165   9.127  0.7644  0.3197  0.6471
   34POPC  H13R 4576   3.556   4.063   9.169 -0.6048  0.8607  2.0987
   34POPC  H13S 4577   3.647   4.173   9.066  0.7098 -0.1010  0.5125
   34POPC  C214 4578   3.435   4.180   9.025 -0.2815 -0.0930 -0.0940
   34POPC  H14R 4579   3.445   4.277   8.972 -3.5276 -1.4811 -3.7553
   34POPC  H14S 4580   3.345   4.186   9.089 -0.3276  0.9602 -0.2450
   34POPC  C215 4581   3.436   4.077   8.916  0.8321  0.0947 -0.3513
   34POPC  H15R 4582   3.509   4.109   8.838  2.3269 -0.4189  0.7845
   34POPC  H15S 4583   3.338   4.081   8.865  0.3534  0.0117  0.5525
   34POPC  C216 4584   3.457   3.936   8.964 -0.2236 -0.1927 -0.2335
   34POPC  H16R 4585   3.382   3.913   9.043 -3.0185  0.2367 -2.6350
   34POPC  H16S 4586   3.559   3.925   9.007 -0.9453 -1.1785  1.3296
   34POPC  C217 4587   3.431   3.836   8.850 -0.1364  0.1613 -0.0360
   34POPC  H17R 4588   3.485   3.884   8.765  1.0175  0.8013  1.0169
   34POPC  H17S 4589   3.323   3.837   8.825 -0.3752 -0.3499  0.9488
   34POPC  C218 4590   3.490   3.692   8.870  0.6521 -0.1653 -0.0508
   34POPC  H18R 4591   3.422   3.634   8.935  0.2548  0.4534  0.0978
   34POPC  H18S 4592   3.581   3.700   8.933  0.6943 -0.0696 -0.1237
   34POPC  H18T 4593   3.501   3.649   8.768 -0.7660 -0.1891 -0.2171
   34POPC   C33 4594   3.145   4.516  10.252 -0.1772  0.2325 -0.4406
   34POPC   H3X 4595   3.196   4.417  10.250  0.1913  0.3129  2.3147
   34POPC   H3Y 4596   3.215   4.602  10.235 -0.9256  1.2678  1.4842
   34POPC   C34 4597   3.056   4.517  10.129  0.0221  0.3721  0.1368
   34POPC   H4X 4598   2.983   4.601  10.125 -1.5873 -0.9328  0.7297
   34POPC   H4Y 4599   2.992   4.426  10.133 -1.2044  0.9306 -3.2759
   34POPC   C35 4600   3.134   4.499  10.000 -0.0447  0.0388 -0.3355
   34POPC   H5X 4601   3.191   4.406  10.018 -0.8196  0.0144  2.5628
   34POPC   H5Y 4602   3.214   4.574   9.981 -0.1571  0.0789 -0.6515
   34POPC   C36 4603   3.056   4.479   9.870  0.4966  0.3100 -0.2836
   34POPC   H6X 4604   2.996   4.569   9.842 -0.8568 -0.8273 -1.1763
   34POPC   H6Y 4605   2.987   4.394   9.888 -0.2872  0.7507 -1.0850
   34POPC   C37 4606   3.141   4.456   9.749 -0.0108  0.0413 -0.3962
   34POPC   H7X 4607   3.178   4.351   9.749 -1.2113 -0.4328 -2.0494
   34POPC   H7Y 4608   3.227   4.525   9.757 -0.9298  1.2148 -0.3152
   34POPC   C38 4609   3.073   4.473   9.614 -0.1820 -0.4871 -0.5859
   34POPC   H8X 4610   3.079   4.581   9.591 -0.3437 -0.6331 -1.3348
   34POPC   H8Y 4611   2.965   4.448   9.622 -0.2175  0.0085  0.6182
   34POPC   C39 4612   3.144   4.410   9.497 -0.1920  0.6043  0.6003
   34POPC   H9X 4613   3.142   4.300   9.514 -0.7705  0.4884 -0.1879
   34POPC   H9Y 4614   3.248   4.450   9.505 -1.1240  2.8209  3.2711
   34POPC  C310 4615   3.065   4.441   9.371 -0.0003  0.0575 -0.2739
   34POPC  H10X 4616   3.043   4.550   9.370 -0.3534 -0.0127 -1.5208
   34POPC  H10Y 4617   2.971   4.385   9.394 -1.0723  0.9643 -2.2025
   34POPC  C311 4618   3.125   4.397   9.237 -0.3312 -0.1687 -0.5699
   34POPC  H11X 4619   3.143   4.289   9.253 -1.1176 -0.3968 -1.1729
   34POPC  H11Y 4620   3.228   4.435   9.225 -0.9691  2.5882  1.5629
   34POPC  C312 4621   3.044   4.416   9.105  0.7595  0.2451 -0.1665
   34POPC  H12X 4622   3.036   4.524   9.081  2.4902  0.5073  0.2998
   34POPC  H12Y 4623   2.945   4.368   9.117  1.8594 -2.6219 -1.5376
   34POPC  C313 4624   3.119   4.360   8.981 -0.3315  0.0626 -0.2281
   34POPC  H13X 4625   3.135   4.251   8.999 -1.4762  0.1756  1.7717
   34POPC  H13Y 4626   3.217   4.411   8.993 -0.6437  0.2115  2.2637
   34POPC  C314 4627   3.059   4.386   8.841 -0.0306  0.1681 -1.7741
   34POPC  H14X 4628   3.043   4.494   8.819 -1.5430  0.3863  0.1271
   34POPC  H14Y 4629   2.961   4.338   8.818  0.9998 -2.8763 -0.2855
   34POPC  C315 4630   3.151   4.328   8.736 -0.5826  0.1193  0.4447
   34POPC  H15X 4631   3.099   4.314   8.638  1.8004  3.0038 -1.3975
   34POPC  H15Y 4632   3.180   4.227   8.773  0.9838  1.1248  2.0683
   34POPC  C316 4633   3.286   4.403   8.709  0.1593  0.2353  0.4395
   34POPC  H16X 4634   3.267   4.506   8.672 -0.4079 -0.3467 -0.9462
   34POPC  H16Y 4635   3.345   4.356   8.628 -0.1362  1.3690 -0.4653
   34POPC  H16Z 4636   3.351   4.408   8.799  0.6112  2.8070  0.0585
   35POPC     N 4637   3.590   2.280  11.378  1.0086 -0.3179 -0.7631
   35POPC   C12 4638   3.515   2.307  11.251 -0.3320 -0.2046  0.7017
   35POPC  H12A 4639   3.507   2.414  11.259 -0.3349 -0.1802  0.3892
   35POPC  H12B 4640   3.414   2.266  11.252 -0.8967  1.1546  1.1515
   35POPC   C13 4641   3.632   2.140  11.379 -0.3693 -0.4832 -0.3508
   35POPC  H13A 4642   3.636   2.104  11.481  2.0877 -0.8693 -0.5199
   35POPC  H13B 4643   3.567   2.071  11.326 -0.3721 -0.1396 -0.7977
   35POPC  H13C 4644   3.726   2.139  11.327  1.2368  1.2954  2.3142
   35POPC   C14 4645   3.722   2.361  11.384 -0.5499 -0.3786  0.0502
   35POPC  H14A 4646   3.785   2.330  11.466 -0.9515 -0.8852  0.1638
   35POPC  H14B 4647   3.783   2.340  11.297 -1.1916 -1.3287 -0.1742
   35POPC  H14C 4648   3.712   2.469  11.390  0.9336 -0.2678  1.1784
   35POPC   C15 4649   3.504   2.317  11.494 -0.2104 -0.2898 -0.0469
   35POPC  H15A 4650   3.558   2.305  11.587  0.7189  0.6018 -0.4484
   35POPC  H15B 4651   3.419   2.251  11.501  0.6521 -1.3877  0.4364
   35POPC  H15C 4652   3.481   2.420  11.473  0.9286  0.2848  1.3506
   35POPC   C11 4653   3.589   2.258  11.118 -0.2874  0.0619 -0.9958
   35POPC  H11A 4654   3.526   2.293  11.033  0.8818  0.5151 -1.7043
   35POPC  H11B 4655   3.578   2.148  11.112 -1.0599  0.0348  0.6472
   35POPC     P 4656   3.746   2.427  11.004  0.2801 -0.4085  0.5224
   35POPC   O13 4657   3.870   2.495  11.048 -0.0146 -0.6870  0.3269
   35POPC   O14 4658   3.632   2.516  10.980  0.3843 -0.1327  0.1280
   35POPC   O12 4659   3.715   2.306  11.105 -0.4016 -0.2371 -0.0579
   35POPC   O11 4660   3.783   2.336  10.876 -0.2159 -0.1711  0.2687
   35POPC    C1 4661   3.902   2.382  10.801  0.3250  0.0152 -0.1295
   35POPC    HA 4662   3.996   2.360  10.856 -0.1887 -2.6635 -0.1564
   35POPC    HB 4663   3.900   2.489  10.772 -0.6327  0.5288  1.6671
   35POPC    C2 4664   3.916   2.296  10.670 -0.2625  0.2024  0.3073
   35POPC    HS 4665   4.022   2.312  10.640 -1.0561  2.1188 -1.7906
   35POPC   O21 4666   3.823   2.352  10.574 -0.0644  0.1546  0.0753
   35POPC   C21 4667   3.865   2.446  10.492 -0.3619  0.0524  0.2516
   35POPC   O22 4668   3.976   2.495  10.495  0.6127  0.7641 -0.4827
   35POPC   C22 4669   3.752   2.479  10.388  0.5879 -0.1584  0.1226
   35POPC   H2R 4670   3.671   2.533  10.441 -1.5616 -1.9089 -1.1862
   35POPC   H2S 4671   3.716   2.380  10.354 -1.5583  0.4240  0.5581
   35POPC    C3 4672   3.907   2.139  10.689 -0.3767  0.5359  0.3601
   35POPC    HX 4673   3.821   2.127  10.758 -0.0644 -2.6261  0.3615
   35POPC    HY 4674   3.991   2.094  10.747 -0.4508  0.0646  0.1061
   35POPC   O31 4675   3.872   2.071  10.569  0.0216  0.4018  0.7050
   35POPC   C31 4676   3.970   2.076  10.478 -0.3050  0.2816 -0.6115
   35POPC   O32 4677   4.081   2.115  10.512 -0.2497 -0.0011 -0.2834
   35POPC   C32 4678   3.937   2.010  10.343 -0.2619  0.3265 -0.2588
   35POPC   H2X 4679   3.901   1.907  10.366 -0.1346  0.2591 -0.3600
   35POPC   H2Y 4680   4.038   2.005  10.297  0.2985  1.1995  0.8330
   35POPC   C23 4681   3.797   2.567  10.268  0.2501 -0.6202  0.3733
   35POPC   H3R 4682   3.905   2.549  10.250  0.2555  0.5232 -0.8896
   35POPC   H3S 4683   3.788   2.673  10.301 -0.0318 -0.6857  0.5163
   35POPC   C24 4684   3.717   2.551  10.144  0.2842 -0.1852  0.4954
   35POPC   H4R 4685   3.729   2.638  10.076  0.6084  1.0789  2.0888
   35POPC   H4S 4686   3.615   2.537  10.185  1.2204 -2.0505  2.3758
   35POPC   C25 4687   3.737   2.423  10.058 -0.0392  0.7043 -0.2478
   35POPC   H5R 4688   3.715   2.338  10.125 -1.8023 -0.8236 -2.6147
   35POPC   H5S 4689   3.843   2.418  10.022 -0.4042 -0.5748 -1.2313
   35POPC   C26 4690   3.633   2.406   9.946  0.2278  0.7569  0.7282
   35POPC   H6R 4691   3.650   2.476   9.861  2.9037 -1.6871 -0.9129
   35POPC   H6S 4692   3.533   2.414   9.994 -0.4516 -1.7555 -0.1515
   35POPC   C27 4693   3.632   2.260   9.906  0.0715  0.1744  0.7587
   35POPC   H7R 4694   3.623   2.187   9.990 -2.0448 -1.0698 -0.4387
   35POPC   H7S 4695   3.732   2.240   9.863 -1.2636 -0.8099 -2.1854
   35POPC   C28 4696   3.525   2.222   9.797 -0.7690  1.0418  0.2969
   35POPC   H8R 4697   3.424   2.254   9.832 -2.0210  0.7724 -2.7399
   35POPC   H8S 4698   3.529   2.113   9.777 -3.0303  1.3774 -2.7533
   35POPC   C29 4699   3.556   2.285   9.666  0.1617 -0.3076 -0.1220
   35POPC   H91 4700   3.539   2.394   9.664  2.3328  0.2881  3.7386
   35POPC  C210 4701   3.583   2.218   9.549  0.2123  0.0252 -0.8614
   35POPC  H101 4702   3.604   2.282   9.462 -1.4438  1.9995  0.1125
   35POPC  C211 4703   3.593   2.066   9.525  1.0287  0.8862 -0.0682
   35POPC  H11R 4704   3.494   2.030   9.490  1.1048  1.5821 -1.0799
   35POPC  H11S 4705   3.622   2.005   9.613 -3.0052 -1.6738 -0.2496
   35POPC  C212 4706   3.691   2.028   9.410 -0.3426  0.1266 -0.5873
   35POPC  H12R 4707   3.710   1.919   9.411 -0.4019  0.1103 -0.9612
   35POPC  H12S 4708   3.776   2.098   9.423 -0.1224 -0.0853 -0.8868
   35POPC  C213 4709   3.634   2.065   9.270 -1.0884  0.2747  0.0045
   35POPC  H13R 4710   3.608   2.173   9.259 -1.3519  0.4910  2.2213
   35POPC  H13S 4711   3.550   1.995   9.252 -0.0306 -1.2570  0.8183
   35POPC  C214 4712   3.741   2.030   9.160 -0.9246  0.0101  0.4969
   35POPC  H14R 4713   3.746   1.919   9.153  3.2776  0.1220 -0.5997
   35POPC  H14S 4714   3.845   2.062   9.184  0.3991 -1.7048 -2.3959
   35POPC  C215 4715   3.719   2.085   9.015 -0.6033 -0.4702 -0.5071
   35POPC  H15R 4716   3.695   2.194   9.017 -1.6153 -0.6531 -1.6315
   35POPC  H15S 4717   3.627   2.040   8.972 -1.3054  0.9815 -0.6116
   35POPC  C216 4718   3.848   2.067   8.930  0.1248  0.1273  0.2898
   35POPC  H16R 4719   3.872   1.960   8.913 -1.0157 -0.1188  0.1487
   35POPC  H16S 4720   3.936   2.112   8.980 -0.3468 -0.4427  1.7029
   35POPC  C217 4721   3.840   2.150   8.805 -0.5442  0.1221  0.4013
   35POPC  H17R 4722   3.825   2.258   8.828 -2.7161  1.5153 -5.6124
   35POPC  H17S 4723   3.745   2.135   8.749  0.1459 -0.1394 -0.7275
   35POPC  C218 4724   3.961   2.113   8.712  0.7217  0.6851 -0.3336
   35POPC  H18R 4725   3.959   2.178   8.621  1.1386 -0.1425 -0.9448
   35POPC  H18S 4726   3.962   2.006   8.684  0.9591  0.2584  1.2135
   35POPC  H18T 4727   4.058   2.127   8.765  0.4528  2.8982 -0.3062
   35POPC   C33 4728   3.844   2.072  10.242  0.0975 -0.3479 -0.0584
   35POPC   H3X 4729   3.872   2.176  10.214  1.5354 -0.2881  1.4414
   35POPC   H3Y 4730   3.745   2.071  10.292  0.9378  0.5090  1.7244
   35POPC   C34 4731   3.822   1.985  10.115  0.2837 -0.2191  0.4123
   35POPC   H4X 4732   3.735   2.023  10.057 -0.1363 -0.7967  0.6640
   35POPC   H4Y 4733   3.791   1.880  10.130 -1.3266  0.6111  4.0827
   35POPC   C35 4734   3.949   1.975  10.026 -0.3873  0.2920  0.4273
   35POPC   H5X 4735   4.026   1.912  10.075  1.0214  1.2205 -0.5259
   35POPC   H5Y 4736   3.991   2.076  10.005  1.0214 -0.6318 -1.5352
   35POPC   C36 4737   3.905   1.926   9.888  0.1419 -0.1481  0.4824
   35POPC   H6X 4738   3.836   1.997   9.838  0.1065 -1.1308 -0.9458
   35POPC   H6Y 4739   3.852   1.830   9.905 -2.3166  0.5297 -2.3896
   35POPC   C37 4740   4.028   1.922   9.794  0.7589  0.2695 -0.1045
   35POPC   H7X 4741   4.105   1.857   9.841 -0.9216 -1.6260  0.1265
   35POPC   H7Y 4742   4.075   2.023   9.792  1.3603  0.0529  1.4244
   35POPC   C38 4743   3.983   1.869   9.658  0.1481  0.8124 -1.0058
   35POPC   H8X 4744   3.911   1.943   9.616 -0.4912  1.6683  1.4597
   35POPC   H8Y 4745   3.932   1.771   9.670  2.4065 -0.3199 -0.0592
   35POPC   C39 4746   4.104   1.855   9.564  0.1742  0.4814 -0.1584
   35POPC   H9X 4747   4.173   1.774   9.597  0.1709 -0.5815 -2.5420
   35POPC   H9Y 4748   4.158   1.951   9.573  0.5228  0.1424  2.1269
   35POPC  C310 4749   4.056   1.815   9.424 -0.0578  0.4105  0.1289
   35POPC  H10X 4750   3.994   1.899   9.385 -2.0916 -1.4674 -0.8716
   35POPC  H10Y 4751   3.994   1.724   9.433 -0.6921  0.9153  0.9623
   35POPC  C311 4752   4.165   1.788   9.324 -0.0054  0.1571 -0.0096
   35POPC  H11X 4753   4.230   1.700   9.345  0.3178  0.7768  1.7740
   35POPC  H11Y 4754   4.230   1.877   9.339  0.3328  0.3484 -2.2682
   35POPC  C312 4755   4.119   1.788   9.180  0.2345  0.8610  0.0679
   35POPC  H12X 4756   4.046   1.868   9.156 -0.8885 -0.8278 -2.7349
   35POPC  H12Y 4757   4.062   1.695   9.162  1.0877 -0.2554  2.6023
   35POPC  C313 4758   4.229   1.801   9.076 -1.2238 -0.3994 -0.0721
   35POPC  H13X 4759   4.284   1.705   9.070  2.1949  1.2644  1.5594
   35POPC  H13Y 4760   4.306   1.879   9.098 -0.1312 -1.3672 -0.3562
   35POPC  C314 4761   4.172   1.831   8.937 -0.3626  0.3357  0.5388
   35POPC  H14X 4762   4.131   1.934   8.923  1.5906  1.0570 -0.2144
   35POPC  H14Y 4763   4.093   1.756   8.920  0.4208 -0.6325  1.0538
   35POPC  C315 4764   4.277   1.801   8.815  1.1617  0.4649 -0.3080
   35POPC  H15X 4765   4.319   1.700   8.836 -1.3613 -0.2544  1.8645
   35POPC  H15Y 4766   4.365   1.869   8.807 -1.1748  3.8571  0.5394
   35POPC  C316 4767   4.205   1.785   8.690  1.4987 -0.5638 -0.2774
   35POPC  H16X 4768   4.174   1.881   8.643 -0.1811 -0.3818  1.1034
   35POPC  H16Y 4769   4.116   1.721   8.703  2.2782 -1.9579 -1.5665
   35POPC  H16Z 4770   4.263   1.730   8.613 -1.6974 -2.6267 -1.3950
   36POPC     N 4771   4.644   0.364  11.048  0.3751  0.3504  0.0113
   36POPC   C12 4772   4.682   0.380  10.901 -0.0685 -0.3498 -0.2209
   36POPC  H12A 4773   4.654   0.479  10.869  0.8497 -0.4892 -1.4990
   36POPC  H12B 4774   4.615   0.314  10.848 -1.4035  1.1690 -0.4946
   36POPC   C13 4775   4.494   0.382  11.064  0.1393 -0.6847  0.2568
   36POPC  H13A 4776   4.440   0.335  10.983  1.7252  1.6766 -2.3771
   36POPC  H13B 4777   4.464   0.327  11.152  0.9136  1.1478  1.7294
   36POPC  H13C 4778   4.462   0.484  11.073 -0.6502 -0.7245 -1.5519
   36POPC   C14 4779   4.680   0.228  11.102 -0.2352 -0.1942 -0.2433
   36POPC  H14A 4780   4.777   0.195  11.071  0.4284 -0.9398  2.3691
   36POPC  H14B 4781   4.690   0.242  11.209  1.8042  1.7976 -0.6239
   36POPC  H14C 4782   4.609   0.154  11.070  1.6562 -2.6255  0.8867
   36POPC   C15 4783   4.710   0.466  11.133 -0.3636  0.5825  0.1922
   36POPC  H15A 4784   4.818   0.456  11.132 -0.3762  0.4308 -1.1303
   36POPC  H15B 4785   4.671   0.467  11.234 -1.5636 -1.2146 -0.2109
   36POPC  H15C 4786   4.701   0.563  11.086  2.2715  0.1665 -1.3705
   36POPC   C11 4787   4.830   0.380  10.866 -0.1221  0.0753 -0.3362
   36POPC  H11A 4788   4.829   0.386  10.755  0.2588  1.6954 -0.2820
   36POPC  H11B 4789   4.875   0.286  10.903 -4.1272 -1.1718  1.8697
   36POPC     P 4790   5.053   0.501  10.931 -0.2750  0.1946  0.0511
   36POPC   O13 4791   5.105   0.430  11.052 -0.0407 -0.2062 -0.1548
   36POPC   O14 4792   5.098   0.644  10.923 -0.0648 -0.1031 -0.2195
   36POPC   O12 4793   4.897   0.498  10.908  0.0361 -0.0971  0.0572
   36POPC   O11 4794   5.116   0.430  10.799  0.0454  0.0212  0.0166
   36POPC    C1 4795   5.111   0.500  10.680 -0.0841  0.2693 -0.3655
   36POPC    HA 4796   5.217   0.513  10.650 -0.0530  2.3070  0.4754
   36POPC    HB 4797   5.049   0.591  10.689  0.4596  0.6145 -0.0802
   36POPC    C2 4798   5.049   0.423  10.557  0.5004 -0.0271 -1.1522
   36POPC    HS 4799   4.944   0.391  10.577  1.1148 -1.9614 -0.8836
   36POPC   O21 4800   5.133   0.314  10.519  0.4358  0.3085  0.4669
   36POPC   C21 4801   5.082   0.189  10.543  0.4583  0.4026  0.4086
   36POPC   O22 4802   4.982   0.171  10.611 -0.6479 -0.1875 -0.0172
   36POPC   C22 4803   5.172   0.091  10.476  0.0700  0.6018  0.1003
   36POPC   H2R 4804   5.230   0.027  10.546  1.2216  3.1184  1.5600
   36POPC   H2S 4805   5.252   0.126  10.406 -0.0862  2.8083  0.9452
   36POPC    C3 4806   5.047   0.524  10.442 -0.0765 -0.4723 -0.3042
   36POPC    HX 4807   5.148   0.566  10.420 -0.1913  0.3525  0.6751
   36POPC    HY 4808   4.993   0.616  10.471  1.2975  0.1163  0.4786
   36POPC   O31 4809   4.986   0.474  10.326  0.1003 -0.5936  0.5005
   36POPC   C31 4810   4.851   0.459  10.321  0.1140 -0.0877  0.2895
   36POPC   O32 4811   4.776   0.499  10.406 -0.6639  0.1833  0.0175
   36POPC   C32 4812   4.808   0.387  10.201  0.4137 -0.3845 -0.0087
   36POPC   H2X 4813   4.851   0.285  10.212  0.0845 -0.4550  0.6368
   36POPC   H2Y 4814   4.837   0.442  10.108 -0.4755  0.1659  0.0279
   36POPC   C23 4815   5.086  -0.007  10.387  0.2024  0.3133 -1.0040
   36POPC   H3R 4816   4.982  -0.017  10.425 -0.3465 -1.8278 -2.8123
   36POPC   H3S 4817   5.133  -0.107  10.400 -1.0072  0.0730  2.9028
   36POPC   C24 4818   5.090   0.036  10.243 -0.2176 -0.0874  0.3223
   36POPC   H4R 4819   5.194   0.025  10.208  0.8336  0.0762  3.1302
   36POPC   H4S 4820   5.052   0.139  10.225 -0.5702 -0.4409 -1.1089
   36POPC   C25 4821   5.010  -0.061  10.151  0.3815  0.1212 -0.0697
   36POPC   H5R 4822   4.906  -0.066  10.190  1.4058 -3.7667  2.7779
   36POPC   H5S 4823   5.056  -0.158  10.177  0.2593  0.6168  2.2428
   36POPC   C26 4824   5.008  -0.041   9.999  0.2930  0.5990  0.4120
   36POPC   H6R 4825   4.944  -0.119   9.952  1.1272 -0.6199  1.2292
   36POPC   H6S 4826   5.110  -0.077   9.975 -0.3920 -3.6995  2.7809
   36POPC   C27 4827   4.978   0.103   9.962  0.1046 -0.1875 -0.4793
   36POPC   H7R 4828   5.050   0.174  10.009 -0.3906  0.0622 -0.0891
   36POPC   H7S 4829   4.874   0.126   9.993  0.2808 -1.2189  0.9410
   36POPC   C28 4830   4.984   0.130   9.805  0.3533  0.3877  0.3135
   36POPC   H8R 4831   5.089   0.095   9.791  0.1882 -1.3235  2.7033
   36POPC   H8S 4832   4.983   0.240   9.793  0.7974  0.4709  0.9754
   36POPC   C29 4833   4.886   0.062   9.722 -0.2999 -0.1004  0.4712
   36POPC   H91 4834   4.784   0.086   9.757 -0.5094  2.0276 -1.3437
   36POPC  C210 4835   4.906  -0.001   9.606 -0.4302  0.4111  0.1082
   36POPC  H101 4836   4.825  -0.051   9.550  1.6203 -1.7469 -1.1414
   36POPC  C211 4837   5.040  -0.025   9.538  0.1049  1.4081 -0.4462
   36POPC  H11R 4838   5.068  -0.132   9.549 -2.5119  0.5058 -1.7622
   36POPC  H11S 4839   5.118   0.047   9.570 -0.4944  0.8184  2.6103
   36POPC  C212 4840   5.016   0.002   9.389 -0.1338  0.1075 -0.2549
   36POPC  H12R 4841   4.926  -0.060   9.370 -0.6529  0.8367 -0.2329
   36POPC  H12S 4842   5.087  -0.049   9.321  1.1200 -0.1946  1.2061
   36POPC  C213 4843   5.001   0.151   9.356  0.3756  0.4769 -0.1294
   36POPC  H13R 4844   5.089   0.213   9.380 -1.5505  3.1195  0.6112
   36POPC  H13S 4845   4.924   0.197   9.422  0.2483 -1.5963  1.2609
   36POPC  C214 4846   4.966   0.177   9.201  0.5452 -0.3801 -1.0138
   36POPC  H14R 4847   4.958   0.287   9.185  0.4854 -0.5181 -2.0121
   36POPC  H14S 4848   4.865   0.138   9.177  0.5278 -1.6822  0.9701
   36POPC  C215 4849   5.067   0.128   9.095  0.1820  0.2292 -0.0244
   36POPC  H15R 4850   5.071   0.017   9.095  0.5564  0.2393  0.1391
   36POPC  H15S 4851   5.169   0.158   9.127 -0.6177  0.1293  2.8819
   36POPC  C216 4852   5.038   0.176   8.945  0.5753 -0.1021 -0.8223
   36POPC  H16R 4853   5.122   0.236   8.904  0.8371  0.8302  0.9409
   36POPC  H16S 4854   4.961   0.255   8.955  1.0421  0.0676  4.2900
   36POPC  C217 4855   5.007   0.060   8.856 -0.0415 -0.3548  0.2431
   36POPC  H17R 4856   4.920   0.001   8.892  0.6044 -0.3702  1.8389
   36POPC  H17S 4857   5.094  -0.008   8.850 -0.5525 -0.8944 -2.2862
   36POPC  C218 4858   4.971   0.113   8.721  0.1200  0.0422  0.7207
   36POPC  H18R 4859   4.882   0.180   8.723 -0.5314 -0.8202  0.6945
   36POPC  H18S 4860   4.945   0.041   8.641 -0.8919  0.0205  1.0563
   36POPC  H18T 4861   5.054   0.172   8.675 -0.1799  0.0733  0.2106
   36POPC   C33 4862   4.659   0.368  10.198  0.1634  0.4316 -0.6302
   36POPC   H3X 4863   4.599   0.460  10.181  0.0679  0.8172  1.5280
   36POPC   H3Y 4864   4.626   0.308  10.285 -0.6141 -0.1457 -1.2992
   36POPC   C34 4865   4.611   0.266  10.091 -0.1664  0.4195 -0.4536
   36POPC   H4X 4866   4.502   0.249  10.104 -0.1791 -0.8830 -1.9011
   36POPC   H4Y 4867   4.665   0.169  10.091  0.7063  0.8985  0.3339
   36POPC   C35 4868   4.614   0.325   9.950  0.6572 -0.0092 -1.0600
   36POPC   H5X 4869   4.721   0.334   9.920  1.2345 -0.6712  0.6514
   36POPC   H5Y 4870   4.570   0.426   9.944  0.5416  0.1170  1.2097
   36POPC   C36 4871   4.555   0.224   9.853 -0.2624 -0.8884 -0.3544
   36POPC   H6X 4872   4.447   0.216   9.878 -0.5213  0.6657 -0.8555
   36POPC   H6Y 4873   4.602   0.125   9.868  1.3014  0.0320  1.2613
   36POPC   C37 4874   4.576   0.254   9.705  0.6662 -0.3723 -0.5662
   36POPC   H7X 4875   4.683   0.279   9.686  0.5307 -0.0604 -0.9214
   36POPC   H7Y 4876   4.515   0.346   9.693 -1.4101 -1.4235  1.1992
   36POPC   C38 4877   4.529   0.130   9.628 -0.3423 -0.4402 -0.3352
   36POPC   H8X 4878   4.421   0.126   9.653 -0.5835 -3.6099 -1.3098
   36POPC   H8Y 4879   4.575   0.033   9.659  0.7093 -0.2012 -1.0913
   36POPC   C39 4880   4.554   0.161   9.486 -0.5008  0.0948 -0.0807
   36POPC   H9X 4881   4.659   0.148   9.451 -0.8205 -1.0603 -0.6700
   36POPC   H9Y 4882   4.537   0.269   9.467  4.1134  1.0455 -0.0047
   36POPC  C310 4883   4.472   0.070   9.398  0.3530 -0.4692 -1.2575
   36POPC  H10X 4884   4.372   0.109   9.426 -0.1338 -1.3386 -1.7584
   36POPC  H10Y 4885   4.475  -0.038   9.424  0.7498  0.0392  1.0292
   36POPC  C311 4886   4.495   0.087   9.249  0.2371 -0.7740 -0.0174
   36POPC  H11X 4887   4.522   0.192   9.224 -0.0982 -0.7939 -0.4866
   36POPC  H11Y 4888   4.400   0.058   9.198 -2.1635  2.9495  1.8840
   36POPC  C312 4889   4.607  -0.000   9.193 -0.0858  0.0331 -0.4866
   36POPC  H12X 4890   4.580  -0.106   9.211 -1.2103  0.5502  1.0877
   36POPC  H12Y 4891   4.694   0.031   9.255 -0.6380  2.2932 -0.7420
   36POPC  C313 4892   4.637   0.038   9.047  0.8053  0.2718  0.4671
   36POPC  H13X 4893   4.746   0.025   9.028  1.0905 -0.2253  2.2305
   36POPC  H13Y 4894   4.615   0.145   9.029 -1.3591 -0.3366 -0.9983
   36POPC  C314 4895   4.567  -0.050   8.937 -0.0662  0.2622  0.2591
   36POPC  H14X 4896   4.615  -0.150   8.942  1.3038  0.7310 -2.0122
   36POPC  H14Y 4897   4.606  -0.004   8.844  1.1644 -1.0052  0.1028
   36POPC  C315 4898   4.418  -0.065   8.947  0.5633  0.3057 -0.0475
   36POPC  H15X 4899   4.365   0.030   8.969 -0.7379 -0.2612 -0.6177
   36POPC  H15Y 4900   4.397  -0.116   9.043  0.2797  1.5832  0.5863
   36POPC  C316 4901   4.348  -0.143   8.843 -0.6689 -0.1424  0.3217
   36POPC  H16X 4902   4.356  -0.091   8.745 -0.9394  0.4969  0.6311
   36POPC  H16Y 4903   4.241  -0.165   8.860 -1.9991  4.8150 -0.0912
   36POPC  H16Z 4904   4.407  -0.234   8.820 -0.3155  0.8755 -3.4789
   37POPC     N 4905   4.085   0.984   6.126  0.2235  0.6606  0.6448
   37POPC   C12 4906   4.124   0.840   6.142 -0.5120  0.0608  0.2196
   37POPC  H12A 4907   4.229   0.824   6.126 -0.3169 -1.5068  2.5743
   37POPC  H12B 4908   4.094   0.776   6.060  1.4773 -2.1436  1.1110
   37POPC   C13 4909   3.937   0.984   6.143 -0.5371  0.1018  0.2927
   37POPC  H13A 4910   3.890   1.068   6.095  0.9540  0.1235 -1.2164
   37POPC  H13B 4911   3.906   0.895   6.089 -0.5635  0.0504  0.3931
   37POPC  H13C 4912   3.916   0.992   6.249  0.6168  0.7109  0.4892
   37POPC   C14 4913   4.162   1.072   6.224 -0.1439 -0.6555 -0.3511
   37POPC  H14A 4914   4.187   1.013   6.311 -2.3033  0.9386  1.4739
   37POPC  H14B 4915   4.250   1.117   6.181 -0.2858  0.9547  0.9364
   37POPC  H14C 4916   4.089   1.151   6.239 -1.2521 -1.7411  0.1504
   37POPC   C15 4917   4.123   1.031   5.990  0.3639  0.7242  0.1278
   37POPC  H15A 4918   4.058   0.990   5.915  0.7983  0.8023 -0.2957
   37POPC  H15B 4919   4.224   1.009   5.957  0.4041  1.3543 -0.1857
   37POPC  H15C 4920   4.116   1.138   5.981  2.1252  0.8297 -0.5421
   37POPC   C11 4921   4.083   0.768   6.277 -0.1437  0.7582  0.0964
   37POPC  H11A 4922   4.122   0.664   6.265 -1.0663  0.2642  1.1978
   37POPC  H11B 4923   3.973   0.773   6.289 -0.0325  0.3415  1.4582
   37POPC     P 4924   4.141   0.781   6.537 -0.0017 -0.0356  0.2291
   37POPC   O13 4925   4.225   0.872   6.623  0.2699  0.0051 -0.3368
   37POPC   O14 4926   4.181   0.637   6.538  0.7521 -0.2601 -0.2000
   37POPC   O12 4927   4.154   0.836   6.383 -0.1505 -0.2061 -0.5330
   37POPC   O11 4928   3.990   0.790   6.560  0.3623 -0.2073  0.2885
   37POPC    C1 4929   3.923   0.914   6.587 -0.4064  0.3441 -0.3904
   37POPC    HA 4930   3.863   0.927   6.495  1.9476  0.8051 -1.9547
   37POPC    HB 4931   3.990   1.002   6.579  0.3749 -0.2472 -0.5026
   37POPC    C2 4932   3.842   0.919   6.721 -0.9144 -0.6901 -0.2987
   37POPC    HS 4933   3.780   1.010   6.713  2.0256  1.3436 -1.5808
   37POPC   O21 4934   3.931   0.923   6.831 -0.4884  0.0626  0.6988
   37POPC   C21 4935   4.001   1.031   6.835 -0.3454  0.6399  0.0245
   37POPC   O22 4936   3.981   1.137   6.778  0.3357 -0.0052 -0.3044
   37POPC   C22 4937   4.103   1.017   6.953 -0.5144  0.5123 -0.5476
   37POPC   H2R 4938   4.181   1.095   6.937 -1.3391  2.0406  2.3595
   37POPC   H2S 4939   4.144   0.914   6.948 -0.3760  0.5886 -1.2084
   37POPC    C3 4940   3.747   0.803   6.742 -0.0446 -0.0953 -0.1541
   37POPC    HX 4941   3.805   0.709   6.747  1.0003  0.4767 -1.1018
   37POPC    HY 4942   3.684   0.798   6.650  1.2567 -0.5370 -1.0374
   37POPC   O31 4943   3.675   0.823   6.867  0.0554 -0.8187  0.5199
   37POPC   C31 4944   3.547   0.838   6.855  0.5914 -0.4027  0.4464
   37POPC   O32 4945   3.479   0.847   6.754  0.2961 -0.6490  0.0168
   37POPC   C32 4946   3.485   0.845   6.992  0.0354  0.3026  0.6080
   37POPC   H2X 4947   3.559   0.884   7.065  0.1210 -1.8679  1.7308
   37POPC   H2Y 4948   3.464   0.744   7.032  2.5380  0.4619  2.5583
   37POPC   C23 4949   4.057   1.053   7.097 -0.4261 -0.2202 -0.2336
   37POPC   H3R 4950   3.996   0.976   7.149  1.0492  0.2476  2.3350
   37POPC   H3S 4951   3.998   1.147   7.091  1.1101  0.7378 -1.0992
   37POPC   C24 4952   4.170   1.095   7.192  0.1371 -0.4038 -0.8798
   37POPC   H4R 4953   4.211   1.196   7.171  2.0751 -1.0635 -0.4531
   37POPC   H4S 4954   4.250   1.020   7.205  1.0975  0.8114  0.4358
   37POPC   C25 4955   4.103   1.099   7.330 -0.7293 -0.8171  0.2428
   37POPC   H5R 4956   4.066   0.996   7.351 -1.8894 -1.0468 -2.4979
   37POPC   H5S 4957   4.013   1.164   7.322 -1.0363 -1.4007 -1.3566
   37POPC   C26 4958   4.206   1.128   7.439  0.5365  0.3584  0.2104
   37POPC   H6R 4959   4.246   1.231   7.424 -0.5040  1.2422  2.8978
   37POPC   H6S 4960   4.295   1.063   7.431  1.1079  1.2364 -0.9622
   37POPC   C27 4961   4.138   1.135   7.575  0.1359  0.2152  0.1217
   37POPC   H7R 4962   4.039   1.185   7.562  0.7395  2.2428  2.5812
   37POPC   H7S 4963   4.195   1.194   7.650  0.6047 -0.1976  0.0931
   37POPC   C28 4964   4.106   1.005   7.634  0.0941 -0.4360  0.8819
   37POPC   H8R 4965   4.203   0.953   7.648 -0.1796 -1.3598 -0.4433
   37POPC   H8S 4966   4.049   0.956   7.552 -1.1544  2.7441 -0.2951
   37POPC   C29 4967   4.021   1.016   7.758  0.5315  0.4930 -0.0897
   37POPC   H91 4968   3.913   1.031   7.750  0.5327  0.7541  0.3585
   37POPC  C210 4969   4.069   1.000   7.887 -0.0323  0.2070 -0.5490
   37POPC  H101 4970   3.997   1.019   7.967  0.5706  2.6352 -0.5123
   37POPC  C211 4971   4.214   0.973   7.928  0.0640  1.1197 -0.5854
   37POPC  H11R 4972   4.252   1.055   7.993 -0.9623 -0.5801  2.3592
   37POPC  H11S 4973   4.281   0.978   7.839 -3.2975  2.1065 -3.2827
   37POPC  C212 4974   4.226   0.839   8.013 -0.0225  0.3688  0.2991
   37POPC  H12R 4975   4.181   0.753   7.959 -1.0874  1.2277 -0.2071
   37POPC  H12S 4976   4.191   0.839   8.119  1.4544 -0.0443  0.8163
   37POPC  C213 4977   4.373   0.798   8.031 -0.5818  0.5423  0.3319
   37POPC  H13R 4978   4.410   0.880   8.097 -0.4810  0.2796  0.6021
   37POPC  H13S 4979   4.432   0.797   7.937  0.8229  1.6978  1.1714
   37POPC  C214 4980   4.379   0.673   8.126 -0.0175 -0.1628  0.3212
   37POPC  H14R 4981   4.314   0.590   8.090  1.5176 -1.2747  0.0143
   37POPC  H14S 4982   4.337   0.701   8.225  0.2525  0.9826  0.1258
   37POPC  C215 4983   4.525   0.616   8.141 -0.3154 -0.2772 -0.5931
   37POPC  H15R 4984   4.594   0.685   8.194 -1.5148  0.8499 -0.4462
   37POPC  H15S 4985   4.580   0.614   8.045  0.3073 -0.9420 -0.2314
   37POPC  C216 4986   4.528   0.478   8.210  0.0124  0.3769 -0.1016
   37POPC  H16R 4987   4.463   0.407   8.155  2.2924 -1.8235 -0.1362
   37POPC  H16S 4988   4.494   0.481   8.316 -1.0239 -0.7760 -0.3776
   37POPC  C217 4989   4.671   0.412   8.227  0.1851 -0.2964 -0.0392
   37POPC  H17R 4990   4.743   0.479   8.280 -0.1255 -0.2027  0.2656
   37POPC  H17S 4991   4.710   0.385   8.126 -1.4131 -0.7090 -0.5803
   37POPC  C218 4992   4.665   0.280   8.292 -0.3488  0.0579 -0.0542
   37POPC  H18R 4993   4.599   0.213   8.234 -0.0360  0.9005 -1.4158
   37POPC  H18S 4994   4.629   0.283   8.397  3.0191 -1.2151  1.2817
   37POPC  H18T 4995   4.766   0.233   8.286  0.3727  0.7975  3.5760
   37POPC   C33 4996   3.358   0.931   7.014 -0.2522  0.4522  0.4018
   37POPC   H3X 4997   3.279   0.902   6.941 -0.6375  0.6129  0.7462
   37POPC   H3Y 4998   3.384   1.038   7.002 -1.0645  0.7523  1.1484
   37POPC   C34 4999   3.318   0.919   7.161 -0.0940  0.3380  0.0578
   37POPC   H4X 5000   3.396   0.967   7.223  1.4254 -2.5535  0.5438
   37POPC   H4Y 5001   3.333   0.816   7.200  1.9332  1.0578  1.2956
   37POPC   C35 5002   3.173   0.964   7.185 -0.1913  0.5697 -0.2575
   37POPC   H5X 5003   3.097   0.912   7.123  0.5257  1.0299 -1.5634
   37POPC   H5Y 5004   3.179   1.070   7.152 -1.6382 -0.1784 -3.2184
   37POPC   C36 5005   3.138   0.960   7.337  0.7083 -0.2394 -0.4559
   37POPC   H6X 5006   3.131   0.855   7.373  1.7340 -0.0570  0.3123
   37POPC   H6Y 5007   3.040   1.013   7.344  0.7228 -0.2853  0.1572
   37POPC   C37 5008   3.231   1.039   7.429  0.2338  0.9147 -0.4128
   37POPC   H7X 5009   3.243   1.141   7.389 -0.0828  1.1479  0.0793
   37POPC   H7Y 5010   3.338   1.007   7.431 -0.0043  0.0608 -0.8084
   37POPC   C38 5011   3.197   1.040   7.579  0.2974 -0.0848 -0.4341
   37POPC   H8X 5012   3.164   0.941   7.615  2.0598  0.0647  1.8619
   37POPC   H8Y 5013   3.124   1.118   7.608  3.0815  3.1027 -1.3525
   37POPC   C39 5014   3.333   1.077   7.648 -0.2977  0.5752  0.7701
   37POPC   H9X 5015   3.376   1.173   7.613  2.9980 -0.8178  0.6863
   37POPC   H9Y 5016   3.408   1.004   7.612  1.0862  3.0733 -1.8754
   37POPC  C310 5017   3.344   1.088   7.801  0.0823  0.5837 -1.2036
   37POPC  H10X 5018   3.281   1.173   7.835  1.6417  1.0476  0.6920
   37POPC  H10Y 5019   3.446   1.085   7.844 -0.6838 -0.7959  0.6491
   37POPC  C311 5020   3.281   0.970   7.878 -1.0830  0.3371 -1.4579
   37POPC  H11X 5021   3.319   0.874   7.836 -3.1192 -0.1774 -2.2384
   37POPC  H11Y 5022   3.172   0.965   7.856 -1.5260 -1.9978  0.7859
   37POPC  C312 5023   3.322   0.948   8.026  0.2382  1.0223 -0.2051
   37POPC  H12X 5024   3.430   0.922   8.021 -0.0504 -0.0930 -1.0830
   37POPC  H12Y 5025   3.268   0.855   8.053  1.5154  0.0291 -0.9781
   37POPC  C313 5026   3.290   1.056   8.131 -0.1769 -0.0708  0.4733
   37POPC  H13X 5027   3.182   1.082   8.134 -0.1145  0.5351 -1.2801
   37POPC  H13Y 5028   3.352   1.144   8.104 -0.8077 -0.1950 -1.5144
   37POPC  C314 5029   3.335   1.006   8.271 -0.2119  0.1788 -0.4538
   37POPC  H14X 5030   3.446   0.999   8.268 -0.1835  0.8501 -1.9764
   37POPC  H14Y 5031   3.286   0.907   8.282  0.4758 -0.1266 -0.1014
   37POPC  C315 5032   3.287   1.107   8.374  0.2012  0.8256 -0.5882
   37POPC  H15X 5033   3.177   1.107   8.384  0.2219  0.9151 -0.3472
   37POPC  H15Y 5034   3.316   1.208   8.337  0.0394  0.6002 -1.3432
   37POPC  C316 5035   3.354   1.088   8.510 -0.2500 -0.1487 -0.8795
   37POPC  H16X 5036   3.350   0.988   8.559  1.0713  1.2770  2.4684
   37POPC  H16Y 5037   3.297   1.150   8.583  2.4665  2.7174 -0.9727
   37POPC  H16Z 5038   3.461   1.119   8.508 -0.6543  1.2731 -3.0684
   38POPC     N 5039   4.456   4.848   6.053  0.1662 -0.1286  0.4670
   38POPC   C12 5040   4.487   4.918   6.186  0.8312  0.6989  0.2977
   38POPC  H12A 5041   4.452   4.856   6.267 -1.8865 -0.8849 -1.9058
   38POPC  H12B 5042   4.437   5.013   6.173  0.1820 -0.0116 -3.7607
   38POPC   C13 5043   4.548   4.738   6.039  0.3518  0.1283  0.2054
   38POPC  H13A 5044   4.645   4.773   6.070 -1.0661  2.5003  2.2522
   38POPC  H13B 5045   4.519   4.670   6.118  1.1968  0.7991  1.1068
   38POPC  H13C 5046   4.548   4.694   5.940  1.7542 -0.4359  0.4313
   38POPC   C14 5047   4.311   4.810   6.054 -0.3659  0.4693  0.0913
   38POPC  H14A 5048   4.284   4.735   6.126 -1.2451 -1.3701 -2.0398
   38POPC  H14B 5049   4.250   4.899   6.065  1.1130  1.4171  0.8707
   38POPC  H14C 5050   4.280   4.773   5.957  1.5131 -0.0562 -0.3435
   38POPC   C15 5051   4.472   4.942   5.935 -0.2208 -0.5096  0.0089
   38POPC  H15A 5052   4.393   5.015   5.939  0.4641  0.2104  2.9716
   38POPC  H15B 5053   4.466   4.887   5.842 -1.1960 -1.1315  0.4237
   38POPC  H15C 5054   4.571   4.985   5.943 -0.6665  0.2925  1.6084
   38POPC   C11 5055   4.637   4.946   6.217  0.0056 -0.2295  0.0190
   38POPC  H11A 5056   4.638   5.013   6.305 -1.0095 -0.5977  0.3298
   38POPC  H11B 5057   4.684   5.011   6.140 -1.7586  0.5522 -0.4485
   38POPC     P 5058   4.733   4.776   6.397  0.1656  0.3307 -0.1707
   38POPC   O13 5059   4.862   4.710   6.386 -0.6636  0.5919  0.0198
   38POPC   O14 5060   4.606   4.706   6.432 -0.4568 -0.4241 -0.3483
   38POPC   O12 5061   4.713   4.831   6.251  0.0189  0.4495  0.1353
   38POPC   O11 5062   4.749   4.906   6.484  0.1350 -0.4391  0.0835
   38POPC    C1 5063   4.866   4.990   6.498  0.6133  0.3783  0.3030
   38POPC    HA 5064   4.829   5.087   6.539 -0.9163  0.4146 -1.0341
   38POPC    HB 5065   4.900   5.023   6.398 -5.3009  2.8490 -1.3812
   38POPC    C2 5066   4.962   4.931   6.599  0.0285 -0.1106  0.1518
   38POPC    HS 5067   4.994   4.829   6.570  2.1392 -0.0003  1.8762
   38POPC   O21 5068   4.890   4.937   6.725 -0.4547 -0.1995  0.1561
   38POPC   C21 5069   4.853   4.825   6.787  0.2480  0.6823 -0.2708
   38POPC   O22 5070   4.888   4.712   6.761  0.7231 -0.6690  0.1277
   38POPC   C22 5071   4.771   4.870   6.912 -0.0057 -0.9374 -0.2673
   38POPC   H2R 5072   4.680   4.922   6.874  0.3727 -1.3945 -1.8576
   38POPC   H2S 5073   4.832   4.952   6.957  0.7602  0.2856 -3.3279
   38POPC    C3 5074   5.088   5.019   6.604 -0.5057  0.0979 -0.1123
   38POPC    HX 5075   5.056   5.125   6.609  0.3447  0.3775 -0.3521
   38POPC    HY 5076   5.148   5.016   6.510  0.7336 -0.0739  0.6623
   38POPC   O31 5077   5.172   4.990   6.719  0.0721 -0.1705 -0.2696
   38POPC   C31 5078   5.257   4.899   6.693  0.6003 -0.5041 -0.1667
   38POPC   O32 5079   5.272   4.838   6.586  0.1311  0.4788  0.2559
   38POPC   C32 5080   5.348   4.886   6.816 -0.6241 -0.4233  0.9890
   38POPC   H2X 5081   5.377   4.989   6.846 -2.5438  0.7864 -1.0545
   38POPC   H2Y 5082   5.440   4.838   6.776 -1.6137 -0.2478 -1.6663
   38POPC   C23 5083   4.749   4.755   7.008  0.1023 -0.7682  0.2586
   38POPC   H3R 5084   4.729   4.786   7.113 -0.3113 -1.4661  0.3917
   38POPC   H3S 5085   4.841   4.697   7.027  1.4698  1.5867  1.2707
   38POPC   C24 5086   4.627   4.665   6.974 -0.4712  0.4369  0.0707
   38POPC   H4R 5087   4.628   4.648   6.864 -1.3929  1.4766 -0.1234
   38POPC   H4S 5088   4.527   4.709   6.993 -1.6685 -1.9759 -0.2752
   38POPC   C25 5089   4.631   4.539   7.059  0.1929  0.0960 -0.3084
   38POPC   H5R 5090   4.727   4.489   7.034  0.1364 -1.0659  1.5464
   38POPC   H5S 5091   4.545   4.472   7.035 -0.1352 -0.5239  2.2700
   38POPC   C26 5092   4.605   4.543   7.210  0.4270  0.6700  0.2219
   38POPC   H6R 5093   4.511   4.602   7.213 -0.6777 -1.1058  2.0528
   38POPC   H6S 5094   4.681   4.601   7.267  3.3758 -1.4691 -1.2218
   38POPC   C27 5095   4.586   4.415   7.286  0.1356 -0.4152 -0.6186
   38POPC   H7R 5096   4.668   4.341   7.277  1.0369  0.7053 -2.1860
   38POPC   H7S 5097   4.496   4.363   7.248  1.9163 -1.9875 -2.9806
   38POPC   C28 5098   4.557   4.448   7.437 -0.4653  0.1159  0.1538
   38POPC   H8R 5099   4.503   4.372   7.497 -0.0599 -0.5612 -0.3221
   38POPC   H8S 5100   4.482   4.529   7.450 -1.3635 -1.0396  2.9765
   38POPC   C29 5101   4.665   4.503   7.523  0.4828  0.3448  0.2605
   38POPC   H91 5102   4.692   4.604   7.489 -1.0192  0.4721 -0.6342
   38POPC  C210 5103   4.717   4.440   7.627  0.3146  0.9853 -0.2777
   38POPC  H101 5104   4.789   4.494   7.690  0.5401  0.4220 -0.0459
   38POPC  C211 5105   4.684   4.300   7.678  0.1433  0.3220  0.1407
   38POPC  H11R 5106   4.772   4.237   7.703 -1.5369 -2.8345 -1.3625
   38POPC  H11S 5107   4.633   4.239   7.601 -1.2963 -0.5576  1.7293
   38POPC  C212 5108   4.606   4.314   7.813 -0.7889 -0.5493  0.3682
   38POPC  H12R 5109   4.518   4.377   7.787  0.9172  2.7368  1.9553
   38POPC  H12S 5110   4.663   4.373   7.888  0.4876  1.6497 -2.1630
   38POPC  C213 5111   4.548   4.174   7.862 -0.4098 -0.0087  0.3663
   38POPC  H13R 5112   4.520   4.125   7.766  0.4462  1.3910 -0.6440
   38POPC  H13S 5113   4.455   4.187   7.922  0.0325  1.1930  0.8152
   38POPC  C214 5114   4.654   4.078   7.933 -0.2322 -0.7097 -0.4002
   38POPC  H14R 5115   4.695   4.113   8.029 -0.4581 -0.9867 -0.2004
   38POPC  H14S 5116   4.745   4.068   7.871  1.6491  2.4500  1.5967
   38POPC  C215 5117   4.577   3.944   7.952 -0.6031  0.2878 -0.0009
   38POPC  H15R 5118   4.503   3.917   7.874 -0.2941 -0.6039 -0.0018
   38POPC  H15S 5119   4.528   3.946   8.051  1.6760  1.4228  1.1766
   38POPC  C216 5120   4.680   3.833   7.969  0.4383  0.2350  0.4552
   38POPC  H16R 5121   4.745   3.850   8.057  1.2224  0.1022 -0.0821
   38POPC  H16S 5122   4.745   3.839   7.878 -1.9768 -0.0038 -1.3838
   38POPC  C217 5123   4.624   3.688   7.982  0.1305  0.0359  0.0082
   38POPC  H17R 5124   4.535   3.666   7.920  0.3000 -3.4117  0.8286
   38POPC  H17S 5125   4.588   3.668   8.085  1.2250  3.3133  1.1506
   38POPC  C218 5126   4.726   3.586   7.940  0.2309 -0.8310 -0.3449
   38POPC  H18R 5127   4.824   3.610   7.987 -1.3794  1.7466  1.9829
   38POPC  H18S 5128   4.737   3.587   7.830  1.5003  1.3037 -0.2487
   38POPC  H18T 5129   4.688   3.483   7.961  1.0035 -0.7286  1.7725
   38POPC   C33 5130   5.301   4.803   6.934  0.9174  0.8118 -0.3881
   38POPC   H3X 5131   5.385   4.748   6.980 -0.6373 -0.7729  0.6828
   38POPC   H3Y 5132   5.234   4.717   6.911  0.5839  0.8140  0.5102
   38POPC   C34 5133   5.226   4.895   7.031  0.4607  0.6504 -0.0425
   38POPC   H4X 5134   5.140   4.940   6.979  1.3978  1.0661 -1.2658
   38POPC   H4Y 5135   5.298   4.970   7.069 -0.4603  1.1916  0.6774
   38POPC   C35 5136   5.172   4.821   7.154  0.3532 -0.0245 -0.1389
   38POPC   H5X 5137   5.122   4.733   7.109 -0.7583  1.1470 -1.2666
   38POPC   H5Y 5138   5.097   4.885   7.206 -0.9862 -0.9799 -0.8181
   38POPC   C36 5139   5.281   4.788   7.257 -0.6840  0.1260 -0.1876
   38POPC   H6X 5140   5.347   4.874   7.283 -0.6068  0.9040 -2.6372
   38POPC   H6Y 5141   5.358   4.736   7.195  0.8229  0.4542  1.3438
   38POPC   C37 5142   5.236   4.690   7.365  0.3301  0.4159 -0.2270
   38POPC   H7X 5143   5.326   4.645   7.411 -0.3743  0.4395  1.2460
   38POPC   H7Y 5144   5.173   4.619   7.307  1.2268 -0.1960 -0.4600
   38POPC   C38 5145   5.149   4.748   7.479 -1.0157  0.6554 -0.3752
   38POPC   H8X 5146   5.063   4.809   7.442 -0.9040  1.7163  1.0265
   38POPC   H8Y 5147   5.224   4.807   7.535  0.6169  0.7466 -2.5158
   38POPC   C39 5148   5.082   4.643   7.564 -0.1002  0.1234  0.1330
   38POPC   H9X 5149   5.158   4.579   7.615 -1.3035 -1.2999  0.1920
   38POPC   H9Y 5150   5.006   4.582   7.510 -0.5092 -0.6782  1.5535
   38POPC  C310 5151   5.005   4.716   7.675  0.2086  0.6924 -0.0206
   38POPC  H10X 5152   4.946   4.634   7.722  1.5738  0.3466  1.1755
   38POPC  H10Y 5153   4.937   4.786   7.622 -0.0415  1.0586  0.7674
   38POPC  C311 5154   5.080   4.799   7.778  0.1159  0.8426 -0.5827
   38POPC  H11X 5155   5.127   4.882   7.722 -0.1223 -0.2028 -2.4065
   38POPC  H11Y 5156   5.164   4.740   7.821 -0.4474 -0.1906 -0.8488
   38POPC  C312 5157   4.995   4.849   7.890 -0.2395 -0.4922 -0.8088
   38POPC  H12X 5158   4.914   4.781   7.923  0.5913 -1.0869  0.0735
   38POPC  H12Y 5159   4.938   4.937   7.853  0.1733  2.6517  4.7729
   38POPC  C313 5160   5.079   4.890   8.020  0.7616  0.5012  0.2274
   38POPC  H13X 5161   5.154   4.970   8.001  2.2910 -0.8095  0.6680
   38POPC  H13Y 5162   5.132   4.800   8.055  0.2574  0.3066  0.5011
   38POPC  C314 5163   4.977   4.939   8.125  0.5573 -0.1455  0.5028
   38POPC  H14X 5164   5.025   4.926   8.225  2.0416  1.7645  0.0893
   38POPC  H14Y 5165   4.886   4.875   8.126  0.1595  0.3789 -0.8334
   38POPC  C315 5166   4.935   5.084   8.109 -0.1668  0.3592  0.2017
   38POPC  H15X 5167   4.897   5.095   8.005  1.9260 -2.8518 -1.0495
   38POPC  H15Y 5168   5.022   5.153   8.110  0.4974 -0.4250 -0.8367
   38POPC  C316 5169   4.832   5.137   8.213  0.2036 -0.5283 -0.0329
   38POPC  H16X 5170   4.842   5.248   8.217  0.0902 -0.5255  0.2242
   38POPC  H16Y 5171   4.850   5.096   8.315 -0.3553 -1.4774 -0.3119
   38POPC  H16Z 5172   4.732   5.105   8.178 -0.5259  0.5181  1.0112
   39POPC     N 5173   1.277   1.602   6.117 -0.6460  0.1904  0.0341
   39POPC   C12 5174   1.338   1.664   5.990  0.2476 -0.2859 -0.5453
   39POPC  H12A 5175   1.251   1.685   5.930  0.3326  0.8206 -0.3010
   39POPC  H12B 5176   1.390   1.593   5.928 -2.1065 -1.9780 -0.7306
   39POPC   C13 5177   1.384   1.563   6.217  0.3962  0.0455 -0.5174
   39POPC  H13A 5178   1.341   1.545   6.315 -0.5460 -1.3698 -1.1742
   39POPC  H13B 5179   1.425   1.469   6.185  1.4369  0.4482 -0.4041
   39POPC  H13C 5180   1.458   1.642   6.224 -0.5691  0.8556  1.3379
   39POPC   C14 5181   1.189   1.694   6.189 -0.5332 -0.7225 -0.2280
   39POPC  H14A 5182   1.241   1.789   6.196 -0.6097 -0.6526 -0.6248
   39POPC  H14B 5183   1.104   1.707   6.124 -1.2998 -1.5322  0.5743
   39POPC  H14C 5184   1.171   1.662   6.291  1.0351 -0.9065  0.0239
   39POPC   C15 5185   1.201   1.479   6.083 -0.7893  0.1538  0.3955
   39POPC  H15A 5186   1.266   1.402   6.043  0.1550 -0.0014  2.1196
   39POPC  H15B 5187   1.118   1.488   6.014 -0.5203  0.0065  0.0469
   39POPC  H15C 5188   1.156   1.434   6.170 -1.7473 -2.9328 -1.5316
   39POPC   C11 5189   1.410   1.800   5.990  0.2168  0.2163  0.1597
   39POPC  H11A 5190   1.428   1.830   5.884 -0.8946  2.4027  0.5320
   39POPC  H11B 5191   1.510   1.776   6.031  0.7604  0.9012 -0.7433
   39POPC     P 5192   1.386   2.059   6.064 -0.1841  0.7524 -0.4980
   39POPC   O13 5193   1.267   2.140   6.109 -0.3396 -0.2042 -0.4252
   39POPC   O14 5194   1.457   2.098   5.943 -0.6159  0.1493  0.4807
   39POPC   O12 5195   1.335   1.905   6.050 -0.7110 -0.3312  0.4563
   39POPC   O11 5196   1.488   2.051   6.181  0.0218  0.1096 -0.0851
   39POPC    C1 5197   1.473   1.962   6.298  0.5476 -0.8019 -0.2186
   39POPC    HA 5198   1.476   1.852   6.280 -0.2539 -0.8760  0.0352
   39POPC    HB 5199   1.371   1.977   6.341  0.4438 -1.1501 -0.3427
   39POPC    C2 5200   1.574   1.997   6.420 -0.1072 -0.1332 -0.0659
   39POPC    HS 5201   1.567   1.919   6.499  1.4537 -0.6688 -0.4042
   39POPC   O21 5202   1.544   2.128   6.471  0.0073  0.0946 -0.4422
   39POPC   C21 5203   1.431   2.148   6.526  0.0407  0.5565 -0.4361
   39POPC   O22 5204   1.350   2.061   6.563 -0.3049  0.4752  0.0604
   39POPC   C22 5205   1.412   2.301   6.529 -0.3264 -0.4807 -0.3301
   39POPC   H2R 5206   1.319   2.333   6.477  0.6602  2.6128 -0.4069
   39POPC   H2S 5207   1.491   2.366   6.485  0.9345 -0.8834  1.2228
   39POPC    C3 5208   1.724   1.995   6.368  0.2552  0.4209  0.5447
   39POPC    HX 5209   1.721   2.039   6.267  0.8125  1.5036  0.9819
   39POPC    HY 5210   1.760   1.891   6.355  1.2860  0.7876  0.3734
   39POPC   O31 5211   1.809   2.077   6.452 -0.2863  0.0660 -0.0552
   39POPC   C31 5212   1.862   2.034   6.560 -0.1021  0.3690  0.4400
   39POPC   O32 5213   1.859   1.917   6.601  0.0439  0.7021  0.0030
   39POPC   C32 5214   1.949   2.140   6.620  0.3873  0.2275  0.0093
   39POPC   H2X 5215   2.035   2.144   6.551 -0.6432 -0.7461 -1.3971
   39POPC   H2Y 5216   1.894   2.237   6.612  1.3385  0.7932  0.1636
   39POPC   C23 5217   1.428   2.355   6.672 -0.1234 -0.2489 -0.0001
   39POPC   H3R 5218   1.346   2.304   6.727 -0.5886  0.0172 -0.4303
   39POPC   H3S 5219   1.404   2.463   6.669 -1.3580 -0.5163 -0.5836
   39POPC   C24 5220   1.561   2.320   6.735  0.2048  0.3660 -0.6797
   39POPC   H4R 5221   1.640   2.362   6.670  2.0122  1.6066  2.1038
   39POPC   H4S 5222   1.575   2.210   6.744  0.0815  0.4635  1.3559
   39POPC   C25 5223   1.560   2.379   6.870  0.3931 -1.0034 -0.0173
   39POPC   H5R 5224   1.525   2.305   6.946  0.2460 -2.2514 -1.2645
   39POPC   H5S 5225   1.492   2.467   6.865 -2.1344 -2.6045  2.9176
   39POPC   C26 5226   1.700   2.425   6.916 -0.3475 -0.2617  0.1054
   39POPC   H6R 5227   1.739   2.503   6.848  2.3899  0.7036  2.5259
   39POPC   H6S 5228   1.769   2.338   6.914 -0.2074 -0.1356 -0.6837
   39POPC   C27 5229   1.694   2.484   7.061  0.0144 -0.1053  0.3954
   39POPC   H7R 5230   1.675   2.402   7.134  1.7788  0.7126  1.8500
   39POPC   H7S 5231   1.612   2.559   7.053 -0.2111 -0.4586 -0.6889
   39POPC   C28 5232   1.825   2.559   7.110  0.1940 -0.1571 -0.1191
   39POPC   H8R 5233   1.802   2.614   7.203  0.0225 -0.0751 -0.2098
   39POPC   H8S 5234   1.838   2.636   7.031  0.5274  0.8076  0.8510
   39POPC   C29 5235   1.941   2.466   7.138 -0.0982  0.1913 -0.1612
   39POPC   H91 5236   1.976   2.410   7.050  0.0804  0.3002 -0.1601
   39POPC  C210 5237   2.014   2.457   7.253 -0.5657  0.8519 -0.4074
   39POPC  H101 5238   2.103   2.392   7.258  0.3672  2.1893  1.9980
   39POPC  C211 5239   1.982   2.538   7.375  0.5932 -0.6109 -0.3651
   39POPC  H11R 5240   1.880   2.582   7.378  1.0583  0.4697  0.5370
   39POPC  H11S 5241   2.051   2.625   7.378  0.5780 -0.5684 -1.0123
   39POPC  C212 5242   1.992   2.458   7.506  0.1433 -0.2153 -0.7646
   39POPC  H12R 5243   2.096   2.420   7.514  0.8811  1.5176 -1.6690
   39POPC  H12S 5244   1.924   2.369   7.504  0.9326 -0.8195 -1.7410
   39POPC  C213 5245   1.960   2.536   7.636  0.0909 -0.5371 -0.1296
   39POPC  H13R 5246   1.852   2.557   7.646  0.0977 -0.1018 -0.8776
   39POPC  H13S 5247   2.023   2.627   7.621  0.3878 -0.5329  1.0879
   39POPC  C214 5248   1.989   2.456   7.764  1.0382  0.6109  1.0069
   39POPC  H14R 5249   2.095   2.424   7.756  0.7849  0.0563 -0.3381
   39POPC  H14S 5250   1.928   2.363   7.760 -0.5878  1.6536 -3.2614
   39POPC  C215 5251   1.951   2.523   7.892 -0.2448  0.3588  0.1479
   39POPC  H15R 5252   1.870   2.597   7.877 -1.0877 -0.8852 -1.8493
   39POPC  H15S 5253   2.035   2.581   7.936  0.4910  0.4273 -1.3075
   39POPC  C216 5254   1.941   2.418   8.006  0.8296 -0.7518  0.3047
   39POPC  H16R 5255   2.039   2.365   8.009  0.5072 -1.3021  1.9409
   39POPC  H16S 5256   1.861   2.345   7.982 -0.0603  0.4808 -0.6571
   39POPC  C217 5257   1.921   2.474   8.151 -0.3506 -0.4208  0.1795
   39POPC  H17R 5258   1.926   2.381   8.211  1.4015  0.1108  0.9164
   39POPC  H17S 5259   1.821   2.516   8.171 -0.4143 -0.4750 -0.0207
   39POPC  C218 5260   2.023   2.584   8.194 -0.1439 -0.1031  0.2509
   39POPC  H18R 5261   2.006   2.675   8.133  1.4221  0.2552  0.3002
   39POPC  H18S 5262   2.126   2.545   8.177 -0.4257 -0.7315 -0.0359
   39POPC  H18T 5263   2.017   2.616   8.300  0.7452  3.7385 -0.7053
   39POPC   C33 5264   1.991   2.113   6.762 -0.0648 -0.0269 -0.6167
   39POPC   H3X 5265   2.052   2.020   6.767 -0.0671 -0.0161 -0.3498
   39POPC   H3Y 5266   1.894   2.103   6.815 -1.0070  2.1042 -1.8043
   39POPC   C34 5267   2.079   2.225   6.823 -0.1604  0.0039 -0.1967
   39POPC   H4X 5268   2.021   2.318   6.843  1.1271  0.7350  0.2420
   39POPC   H4Y 5269   2.159   2.264   6.756  1.3136  0.5577  1.8068
   39POPC   C35 5270   2.154   2.179   6.945 -0.6719 -0.0537 -0.2915
   39POPC   H5X 5271   2.222   2.263   6.971 -0.6711 -0.3779  0.8149
   39POPC   H5Y 5272   2.228   2.097   6.935 -0.8901 -0.2269 -0.5025
   39POPC   C36 5273   2.067   2.123   7.063  0.6908 -0.4416  0.3840
   39POPC   H6X 5274   2.004   2.038   7.030 -1.4721  0.7763  1.1239
   39POPC   H6Y 5275   1.990   2.190   7.107 -0.3249 -1.7752  0.7231
   39POPC   C37 5276   2.144   2.072   7.189  0.4339 -0.5258  0.2541
   39POPC   H7X 5277   2.202   2.160   7.223  2.9828 -1.8914 -0.2305
   39POPC   H7Y 5278   2.224   2.003   7.153  0.8214  0.1851 -0.2636
   39POPC   C38 5279   2.039   2.011   7.296  0.7619 -0.3411 -0.3479
   39POPC   H8X 5280   1.972   1.939   7.245  0.1258 -0.3453  0.4895
   39POPC   H8Y 5281   1.982   2.096   7.338  0.9363 -0.2203 -0.3531
   39POPC   C39 5282   2.101   1.946   7.412  0.0657  0.4114 -0.7672
   39POPC   H9X 5283   2.201   1.991   7.425  1.2757 -1.6803 -2.2286
   39POPC   H9Y 5284   2.138   1.846   7.381  0.5362  0.2275  0.3501
   39POPC  C310 5285   2.018   1.959   7.541 -0.2069 -0.0356  0.0453
   39POPC  H10X 5286   1.952   1.870   7.554  0.1662 -0.3921 -0.4363
   39POPC  H10Y 5287   1.968   2.057   7.535  1.0670  0.6086 -0.5027
   39POPC  C311 5288   2.093   1.961   7.680  0.4353  0.9750 -0.0101
   39POPC  H11X 5289   2.117   2.066   7.707 -1.6277  1.0346  1.9027
   39POPC  H11Y 5290   2.185   1.900   7.671  0.7965  1.6567 -1.0961
   39POPC  C312 5291   2.010   1.893   7.784  0.0388  0.5389  0.0504
   39POPC  H12X 5292   1.984   1.797   7.735  2.2886  0.0568 -0.3196
   39POPC  H12Y 5293   1.916   1.950   7.797 -0.7849 -0.5406 -0.9738
   39POPC  C313 5294   2.073   1.867   7.926 -0.5966  0.1405 -0.4760
   39POPC  H13X 5295   2.160   1.798   7.925 -1.3766 -1.0134  2.4521
   39POPC  H13Y 5296   1.997   1.816   7.989  1.8663 -1.0341  1.6998
   39POPC  C314 5297   2.117   1.991   8.004  0.5784 -0.6582  0.5923
   39POPC  H14X 5298   2.040   2.065   8.036  0.5441 -1.1330  1.6598
   39POPC  H14Y 5299   2.174   2.056   7.934 -0.3468  1.8978  2.0701
   39POPC  C315 5300   2.201   1.968   8.131  0.5378 -0.9955 -0.2343
   39POPC  H15X 5301   2.226   2.073   8.160 -2.4215  0.4418 -2.2736
   39POPC  H15Y 5302   2.301   1.923   8.113  0.7814 -0.8374  0.6750
   39POPC  C316 5303   2.123   1.897   8.239 -0.2581  0.1373  0.0746
   39POPC  H16X 5304   2.114   1.790   8.211  2.5800 -0.6470  1.7483
   39POPC  H16Y 5305   2.023   1.943   8.257 -0.9239 -1.1148 -0.2651
   39POPC  H16Z 5306   2.180   1.895   8.335  1.0408  1.4659 -0.6394
   40POPC     N 5307   1.748   5.658   6.029 -0.4865  0.3135 -0.2667
   40POPC   C12 5308   1.638   5.753   6.053 -0.0782 -0.4779 -0.6105
   40POPC  H12A 5309   1.550   5.692   6.068  0.1247 -1.5495 -3.1785
   40POPC  H12B 5310   1.611   5.802   5.961  0.0170  2.6763  0.9385
   40POPC   C13 5311   1.885   5.720   6.013  0.2211 -0.5214 -1.0127
   40POPC  H13A 5312   1.874   5.793   5.934 -0.8229 -0.1961 -0.5974
   40POPC  H13B 5313   1.916   5.778   6.099  0.5877  0.1414 -1.5810
   40POPC  H13C 5314   1.962   5.654   5.978 -2.5009 -2.9857 -2.8651
   40POPC   C14 5315   1.767   5.557   6.140  0.3615 -0.0763  0.4161
   40POPC  H14A 5316   1.672   5.510   6.161  0.3226  0.4013  1.3777
   40POPC  H14B 5317   1.843   5.488   6.109  1.7318  2.0284 -1.1862
   40POPC  H14C 5318   1.791   5.608   6.232 -1.4150 -2.5796  2.3961
   40POPC   C15 5319   1.726   5.580   5.901 -0.1284 -0.0127 -0.4140
   40POPC  H15A 5320   1.706   5.657   5.828  0.1612  2.3743  1.9160
   40POPC  H15B 5321   1.629   5.532   5.908 -1.4256  2.5605  0.7542
   40POPC  H15C 5322   1.809   5.516   5.873  1.6913  0.9363  2.4388
   40POPC   C11 5323   1.653   5.867   6.156 -0.2711 -0.2458 -0.2226
   40POPC  H11A 5324   1.693   5.822   6.249 -1.9964 -1.9173 -0.2268
   40POPC  H11B 5325   1.551   5.894   6.190 -0.9032 -1.8258 -0.7406
   40POPC     P 5326   1.672   6.087   6.043 -0.2609 -0.1836  0.2052
   40POPC   O13 5327   1.539   6.050   5.992  0.2691 -0.0542  0.1140
   40POPC   O14 5328   1.768   6.147   5.941  0.2385 -0.3590  0.0556
   40POPC   O12 5329   1.734   5.974   6.121 -0.3865 -0.0257 -0.7628
   40POPC   O11 5330   1.653   6.200   6.157  0.0405 -0.0813  0.5992
   40POPC    C1 5331   1.755   6.225   6.246  0.2788  0.1482 -0.4429
   40POPC    HA 5332   1.746   6.332   6.274  0.4911 -0.3635  1.6943
   40POPC    HB 5333   1.860   6.224   6.208  0.8214  2.3080  0.8293
   40POPC    C2 5334   1.737   6.148   6.384 -0.7205 -0.6424  0.0599
   40POPC    HS 5335   1.761   6.041   6.366 -0.0137 -0.3871 -0.5746
   40POPC   O21 5336   1.599   6.156   6.426  0.4852 -0.0250  0.1852
   40POPC   C21 5337   1.564   6.058   6.505 -0.5428 -0.1819  0.5421
   40POPC   O22 5338   1.637   5.960   6.524  0.5576  0.2464 -1.0467
   40POPC   C22 5339   1.432   6.089   6.581 -0.4378 -0.0946  0.1245
   40POPC   H2R 5340   1.353   6.015   6.557 -0.1708  0.0033 -1.0856
   40POPC   H2S 5341   1.404   6.193   6.551  2.3790  1.2939  1.8285
   40POPC    C3 5342   1.832   6.209   6.493  0.2022  0.1541 -0.1380
   40POPC    HX 5343   1.800   6.309   6.529  3.0425  1.1872 -0.2008
   40POPC    HY 5344   1.925   6.222   6.433  0.1964  0.8342  0.0008
   40POPC   O31 5345   1.871   6.105   6.592 -0.4334  0.6471  0.4080
   40POPC   C31 5346   1.827   6.113   6.708 -0.5187 -0.4613  0.1844
   40POPC   O32 5347   1.782   6.217   6.766 -0.0427  0.5083 -0.2642
   40POPC   C32 5348   1.836   5.979   6.775 -1.0048  0.3379  0.5131
   40POPC   H2X 5349   1.873   5.909   6.698 -1.4388 -0.9177  1.4113
   40POPC   H2Y 5350   1.736   5.944   6.807 -0.4307 -0.9038  1.0283
   40POPC   C23 5351   1.460   6.079   6.731  0.6458 -0.0356 -0.1316
   40POPC   H3R 5352   1.541   6.149   6.760  0.7453 -0.2988  0.2249
   40POPC   H3S 5353   1.497   5.977   6.755  0.3331  0.4527  2.7177
   40POPC   C24 5354   1.332   6.108   6.816  0.6256 -0.4034  0.3468
   40POPC   H4R 5355   1.277   6.193   6.769 -2.5736 -1.8991  1.0840
   40POPC   H4S 5356   1.373   6.153   6.909  3.8938 -1.4860 -0.4485
   40POPC   C25 5357   1.241   5.991   6.852 -0.1704 -0.1879  0.4612
   40POPC   H5R 5358   1.244   5.936   6.755 -1.3688  0.5181  0.0061
   40POPC   H5S 5359   1.139   6.022   6.881 -1.3172  0.6437 -3.8199
   40POPC   C26 5360   1.306   5.891   6.956 -0.0369  0.5385  0.3892
   40POPC   H6R 5361   1.399   5.847   6.913 -0.3273  0.7157 -0.4416
   40POPC   H6S 5362   1.233   5.811   6.982 -0.5612  1.1392  0.7925
   40POPC   C27 5363   1.346   5.964   7.081 -0.8019 -0.2322 -0.1284
   40POPC   H7R 5364   1.274   6.045   7.106 -0.8116 -0.1675 -0.3647
   40POPC   H7S 5365   1.439   6.022   7.064  0.0971 -1.3676  0.7458
   40POPC   C28 5366   1.369   5.872   7.207 -0.5096 -0.4988 -0.2432
   40POPC   H8R 5367   1.421   5.935   7.282  0.0765  1.0775 -1.8904
   40POPC   H8S 5368   1.432   5.784   7.185  1.3556  0.1781  1.9559
   40POPC   C29 5369   1.241   5.827   7.265 -0.2318 -0.1120 -0.0469
   40POPC   H91 5370   1.153   5.845   7.201  0.7407  1.9976 -0.8871
   40POPC  C210 5371   1.213   5.777   7.387  0.4307  0.5020 -0.1408
   40POPC  H101 5372   1.109   5.760   7.418  0.7038  1.3487  1.3200
   40POPC  C211 5373   1.313   5.763   7.498  0.5555  0.1662 -0.3149
   40POPC  H11R 5374   1.356   5.860   7.534 -0.4110  0.1644  0.9211
   40POPC  H11S 5375   1.400   5.707   7.459 -0.9973 -0.3866 -3.2228
   40POPC  C212 5376   1.251   5.693   7.626  0.2306 -0.0759 -0.0285
   40POPC  H12R 5377   1.190   5.605   7.595  0.1296 -0.1583  0.3889
   40POPC  H12S 5378   1.189   5.775   7.668 -0.5716  0.2044 -1.6643
   40POPC  C213 5379   1.347   5.642   7.738  0.3646 -0.3758 -0.5095
   40POPC  H13R 5380   1.385   5.542   7.709  0.2967 -0.7169  0.5147
   40POPC  H13S 5381   1.289   5.631   7.833  0.9587 -0.5311 -0.1615
   40POPC  C214 5382   1.468   5.736   7.759 -0.1439  0.3802  0.2002
   40POPC  H14R 5383   1.429   5.830   7.804 -0.2511  0.5149 -0.1692
   40POPC  H14S 5384   1.516   5.776   7.666 -2.1857  1.9500 -0.2534
   40POPC  C215 5385   1.578   5.677   7.853  0.6017 -0.6936  0.3844
   40POPC  H15R 5386   1.655   5.755   7.867 -0.8140  0.7812  0.2501
   40POPC  H15S 5387   1.640   5.588   7.827 -0.0204 -1.0902  0.2306
   40POPC  C216 5388   1.518   5.642   7.994 -0.8612  0.2420 -0.5338
   40POPC  H16R 5389   1.497   5.533   7.989 -1.1848  0.1908  1.3382
   40POPC  H16S 5390   1.420   5.691   8.016 -1.3120 -0.9792  0.2804
   40POPC  C217 5391   1.626   5.655   8.104  0.1384 -0.4007  0.4366
   40POPC  H17R 5392   1.717   5.593   8.092 -0.8436 -1.9561  0.6391
   40POPC  H17S 5393   1.577   5.611   8.194 -1.7069  0.9965  0.1976
   40POPC  C218 5394   1.667   5.801   8.142 -0.0179 -0.4087 -0.0405
   40POPC  H18R 5395   1.740   5.843   8.070  0.0182 -0.4728 -0.0422
   40POPC  H18S 5396   1.721   5.803   8.240 -0.3178  0.6657  0.1194
   40POPC  H18T 5397   1.587   5.878   8.144 -0.8537 -1.2628  0.2368
   40POPC   C33 5398   1.915   5.985   6.901  0.4121  0.0365 -0.0233
   40POPC   H3X 5399   1.858   6.044   6.976 -1.7051 -1.4508 -0.3521
   40POPC   H3Y 5400   2.013   6.037   6.904  1.2492 -1.5162  1.1801
   40POPC   C34 5401   1.942   5.845   6.958 -0.2379  0.1256 -0.3441
   40POPC   H4X 5402   2.001   5.781   6.890  0.4075 -2.0457  2.1089
   40POPC   H4Y 5403   1.849   5.788   6.981 -1.0973  1.8659  0.7524
   40POPC   C35 5404   2.001   5.848   7.098 -0.1112 -0.5931  0.3996
   40POPC   H5X 5405   2.073   5.933   7.104 -0.2142 -0.5656  1.2942
   40POPC   H5Y 5406   2.063   5.757   7.117 -1.5050 -1.4234  1.1188
   40POPC   C36 5407   1.889   5.853   7.206  0.1785  0.3847  1.1119
   40POPC   H6X 5408   1.830   5.758   7.207  2.3401 -1.0247  2.4300
   40POPC   H6Y 5409   1.815   5.925   7.165  1.5165  0.0736 -2.1650
   40POPC   C37 5410   1.935   5.901   7.341  0.3193  0.1308 -0.4432
   40POPC   H7X 5411   1.993   5.995   7.329  1.6347 -0.6614 -0.5159
   40POPC   H7Y 5412   2.008   5.832   7.389  1.9238  1.2914 -1.1172
   40POPC   C38 5413   1.824   5.935   7.433  0.5843 -0.4340  0.1947
   40POPC   H8X 5414   1.764   5.844   7.457  1.5384 -0.6187  2.1262
   40POPC   H8Y 5415   1.755   6.008   7.388  2.0459  1.6741  1.2073
   40POPC   C39 5416   1.863   5.993   7.568 -0.1346  0.3544 -0.3012
   40POPC   H9X 5417   1.922   6.086   7.554 -1.9859  1.8446  1.2987
   40POPC   H9Y 5418   1.930   5.928   7.627  0.8588  3.1437  1.8703
   40POPC  C310 5419   1.737   6.012   7.651 -0.8175 -0.0307  0.0791
   40POPC  H10X 5420   1.705   5.920   7.704  0.7827 -0.8130 -0.2541
   40POPC  H10Y 5421   1.653   6.040   7.584 -1.9806 -0.4997  1.3058
   40POPC  C311 5422   1.742   6.123   7.759  0.3892 -0.4917 -0.3711
   40POPC  H11X 5423   1.638   6.152   7.784  0.4270  0.2102 -1.0001
   40POPC  H11Y 5424   1.791   6.204   7.702 -0.6374 -1.7182 -3.1670
   40POPC  C312 5425   1.827   6.094   7.886  0.5572  0.4237  0.0111
   40POPC  H12X 5426   1.922   6.042   7.860 -0.4577 -1.4530 -0.0389
   40POPC  H12Y 5427   1.767   6.027   7.951 -0.9366  1.6549 -0.0298
   40POPC  C313 5428   1.855   6.207   7.980  0.9272 -0.2993 -1.1290
   40POPC  H13X 5429   1.764   6.258   8.018 -0.3525 -1.6698 -2.2328
   40POPC  H13Y 5430   1.911   6.288   7.929  1.7581 -0.2232 -0.1396
   40POPC  C314 5431   1.943   6.164   8.102 -0.3509  0.1454 -0.1456
   40POPC  H14X 5432   2.040   6.121   8.069  0.3328  2.3058 -1.0953
   40POPC  H14Y 5433   1.884   6.087   8.157  0.3303  0.8048  1.5871
   40POPC  C315 5434   1.974   6.276   8.205 -0.7226 -0.0113  0.4735
   40POPC  H15X 5435   1.878   6.323   8.233 -0.0208  2.3813 -0.8714
   40POPC  H15Y 5436   2.038   6.351   8.155 -0.7961 -0.9001 -1.0135
   40POPC  C316 5437   2.041   6.224   8.341 -0.0810 -1.0090  0.3201
   40POPC  H16X 5438   2.065   6.309   8.407  0.2288  0.1831 -1.2655
   40POPC  H16Y 5439   2.138   6.181   8.307  0.4168 -0.2869  0.8057
   40POPC  H16Z 5440   1.986   6.145   8.397  0.1697 -1.8903 -0.6416
   41CHL1    C3 5441   5.082   2.108  10.153 -0.0943  0.2871  0.3301
   41CHL1    H3 5442   4.990   2.163  10.123  0.1374 -0.8514 -2.8520
   41CHL1    O3 5443   5.094   2.100  10.296 -0.2299 -0.2887  0.2442
   41CHL1   H3' 5444   5.141   2.018  10.311  0.9074  0.2755 -0.0599
   41CHL1    C4 5445   5.070   1.969  10.083  0.2427  0.3532  0.5205
   41CHL1   H4A 5446   5.159   1.909  10.110  1.3269  1.9689  0.6594
   41CHL1   H4B 5447   4.981   1.924  10.132 -0.3137  2.1272  1.2455
   41CHL1    C5 5448   5.057   1.973   9.932 -0.0660 -0.4996  0.1462
   41CHL1    C6 5449   4.953   1.918   9.862 -0.4954  0.2223 -0.2349
   41CHL1    H6 5450   4.879   1.861   9.920  0.5132 -0.1939  0.6875
   41CHL1    C7 5451   4.950   1.916   9.712  0.1913  0.1632 -0.2412
   41CHL1   H7A 5452   4.923   1.815   9.675 -0.9748 -1.3287  4.1607
   41CHL1   H7B 5453   4.875   1.991   9.680 -0.1468  0.4492  1.1503
   41CHL1    C8 5454   5.082   1.959   9.644 -0.3059  0.2476  0.0593
   41CHL1    H8 5455   5.159   1.879   9.645  2.0664  2.2242 -3.8558
   41CHL1   C14 5456   5.045   1.996   9.495 -0.8353 -0.4794 -0.3240
   41CHL1   H14 5457   4.982   2.088   9.502  1.7007  1.2219  2.4243
   41CHL1   C15 5458   4.971   1.893   9.403  0.1072  0.0441 -0.3518
   41CHL1  H15A 5459   5.016   1.801   9.445 -1.9397  0.1022  2.1994
   41CHL1  H15B 5460   4.862   1.880   9.417  0.3944 -1.8902  0.3087
   41CHL1   C16 5461   5.020   1.922   9.255 -0.2945 -0.3751 -0.6082
   41CHL1  H16A 5462   5.091   1.841   9.229  1.4170  0.2084  1.9543
   41CHL1  H16B 5463   4.928   1.939   9.194 -1.0310  3.7047  1.3186
   41CHL1   C17 5464   5.110   2.052   9.271  0.8233 -0.1108 -0.7383
   41CHL1   H17 5465   5.033   2.132   9.278 -0.8386 -1.7526  0.8058
   41CHL1   C13 5466   5.180   2.036   9.414  0.8156 -0.4665  0.5614
   41CHL1   C18 5467   5.282   1.917   9.402  0.1878 -0.2956  0.2079
   41CHL1  H18A 5468   5.324   1.897   9.503  1.6204  1.9840  0.1307
   41CHL1  H18B 5469   5.235   1.820   9.375 -0.5518 -0.5405  2.1596
   41CHL1  H18C 5470   5.369   1.938   9.337  1.1911 -0.2538  1.5236
   41CHL1   C12 5471   5.240   2.163   9.478 -0.3525  0.3398  0.5989
   41CHL1  H12A 5472   5.336   2.193   9.431  0.4201  0.2981  2.0766
   41CHL1  H12B 5473   5.173   2.251   9.465  0.5220  0.9587  0.2280
   41CHL1   C11 5474   5.266   2.137   9.634  0.3535  0.5846 -0.4128
   41CHL1  H11A 5475   5.356   2.072   9.634  0.4966  0.7235 -2.1601
   41CHL1  H11B 5476   5.284   2.231   9.691  3.3108  0.1572 -0.4677
   41CHL1    C9 5477   5.147   2.078   9.712  0.1760 -1.1841 -0.1592
   41CHL1    H9 5478   5.072   2.160   9.713 -0.4268 -1.7263  0.1554
   41CHL1   C10 5479   5.172   2.054   9.866  0.1165 -0.1169 -0.5750
   41CHL1   C19 5480   5.304   1.967   9.871  0.3769 -0.5137 -0.0850
   41CHL1  H19A 5481   5.325   1.942   9.978 -1.8274 -0.3321  0.4507
   41CHL1  H19B 5482   5.299   1.874   9.811  0.4786 -0.4937 -0.1231
   41CHL1  H19C 5483   5.392   2.024   9.837  1.2303 -1.1149  1.0396
   41CHL1    C1 5484   5.199   2.193   9.942 -0.2855 -0.5464 -0.4707
   41CHL1   H1A 5485   5.291   2.244   9.907  0.1094 -0.6317  0.4289
   41CHL1   H1B 5486   5.110   2.254   9.916  1.2023  1.4717 -1.0909
   41CHL1    C2 5487   5.202   2.187  10.095 -0.4631 -0.6500 -0.1064
   41CHL1   H2A 5488   5.198   2.290  10.137 -2.2955 -1.0496  0.8389
   41CHL1   H2B 5489   5.296   2.139  10.130 -0.0123  0.0867 -0.2762
   41CHL1   C20 5490   5.200   2.070   9.160 -0.4287 -0.3365 -0.4971
   41CHL1   H20 5491   5.283   1.997   9.165 -1.2691 -1.2448  1.1502
   41CHL1   C21 5492   5.268   2.213   9.152 -0.5178  0.1872 -0.8518
   41CHL1  H21A 5493   5.320   2.213   9.054 -0.3885  0.7735 -0.7853
   41CHL1  H21B 5494   5.350   2.233   9.225 -1.0397 -0.2881 -0.1225
   41CHL1  H21C 5495   5.192   2.293   9.160 -0.4104  0.2758 -0.6916
   41CHL1   C22 5496   5.127   2.054   9.025  0.1714  0.0008  0.5219
   41CHL1  H22A 5497   5.207   2.058   8.947 -1.8113  1.3567 -1.5714
   41CHL1  H22B 5498   5.076   1.956   9.013  0.0243  0.2899 -1.5835
   41CHL1   C23 5499   5.029   2.171   8.980  0.1859  0.8408 -0.2736
   41CHL1  H23A 5500   4.941   2.171   9.048  0.2932  2.4479 -0.0818
   41CHL1  H23B 5501   5.083   2.268   8.986  1.2597  0.4586 -2.6590
   41CHL1   C24 5502   4.984   2.147   8.839 -0.6712  0.0178  0.1486
   41CHL1  H24A 5503   5.069   2.163   8.768  0.0702  1.9938  1.4032
   41CHL1  H24B 5504   4.949   2.042   8.826  0.5082 -0.6139  1.7542
   41CHL1   C25 5505   4.871   2.240   8.784 -0.1387  0.0131  0.3729
   41CHL1   H25 5506   4.911   2.344   8.777  1.0767 -0.5046 -0.7279
   41CHL1   C26 5507   4.834   2.194   8.643 -0.0273 -0.3603  0.7026
   41CHL1  H26A 5508   4.747   2.127   8.660 -0.5198  0.3214  0.9336
   41CHL1  H26B 5509   4.801   2.280   8.581  0.6952 -0.0470  0.7383
   41CHL1  H26C 5510   4.911   2.140   8.585 -1.1132 -1.3387  0.1533
   41CHL1   C27 5511   4.745   2.267   8.870 -0.5024  0.3789  0.2783
   41CHL1  H27A 5512   4.678   2.343   8.824  2.3281  2.0563 -1.4180
   41CHL1  H27B 5513   4.685   2.175   8.889  0.2730 -0.7073 -2.0882
   41CHL1  H27C 5514   4.785   2.295   8.970  1.0304 -0.7512  0.0180
   42CHL1    C3 5515   5.531   3.629   9.910  0.0626  0.2114  0.9442
   42CHL1    H3 5516   5.451   3.556   9.887 -1.5471  2.6580 -1.9556
   42CHL1    O3 5517   5.544   3.655  10.047  0.7624 -0.1602 -0.6150
   42CHL1   H3' 5518   5.556   3.572  10.094 -2.8450 -0.9539 -0.7904
   42CHL1    C4 5519   5.665   3.583   9.850 -0.2675  1.0518 -0.4501
   42CHL1   H4A 5520   5.738   3.665   9.869  1.4031 -0.4888  0.0347
   42CHL1   H4B 5521   5.698   3.490   9.901 -0.4473  0.8667 -0.6664
   42CHL1    C5 5522   5.648   3.567   9.701 -0.9680 -0.8297  1.3280
   42CHL1    C6 5523   5.668   3.450   9.644  0.6097 -0.1502  0.7109
   42CHL1    H6 5524   5.697   3.361   9.702  1.3572 -2.2953 -2.6591
   42CHL1    C7 5525   5.649   3.427   9.495  0.4043 -0.2361 -0.1845
   42CHL1   H7A 5526   5.730   3.357   9.465  1.5522  0.3993  1.3197
   42CHL1   H7B 5527   5.548   3.386   9.471  0.7427 -0.9710 -0.3904
   42CHL1    C8 5528   5.644   3.556   9.404 -0.4251  0.1287 -0.1627
   42CHL1    H8 5529   5.749   3.592   9.405  0.0151 -1.0227  2.1390
   42CHL1   C14 5530   5.597   3.533   9.262 -0.8579 -1.1343  0.4588
   42CHL1   H14 5531   5.494   3.490   9.264 -1.3566 -0.3854 -3.0406
   42CHL1   C15 5532   5.680   3.430   9.183 -0.4520 -0.7309 -1.2762
   42CHL1  H15A 5533   5.787   3.421   9.210 -1.0614 -0.1083  1.6666
   42CHL1  H15B 5534   5.634   3.334   9.213 -1.2889  0.3410  1.1220
   42CHL1   C16 5535   5.660   3.462   9.038  0.3168  0.8068  0.4044
   42CHL1  H16A 5536   5.754   3.476   8.982 -2.0374  0.9764 -3.9419
   42CHL1  H16B 5537   5.597   3.387   8.985  0.7984  0.4790  0.2919
   42CHL1   C17 5538   5.569   3.594   9.040  0.9341 -0.7790  0.0546
   42CHL1   H17 5539   5.463   3.566   9.054  0.5101  2.1973  4.6669
   42CHL1   C13 5540   5.592   3.659   9.173  0.1842 -0.1342  0.1428
   42CHL1   C18 5541   5.743   3.721   9.164  0.0293  0.4806  0.7997
   42CHL1  H18A 5542   5.820   3.646   9.138 -1.3537 -1.0388  0.9300
   42CHL1  H18B 5543   5.743   3.799   9.084 -1.2782 -0.2602  0.0546
   42CHL1  H18C 5544   5.776   3.764   9.260  0.4551  1.7540  0.1089
   42CHL1   C12 5545   5.489   3.752   9.250 -0.0449  0.7751 -0.5657
   42CHL1  H12A 5546   5.466   3.838   9.183  0.1819  0.6203 -0.8475
   42CHL1  H12B 5547   5.394   3.696   9.264 -1.0552  1.6244 -3.3239
   42CHL1   C11 5548   5.529   3.785   9.387 -0.1830  0.5649 -0.6994
   42CHL1  H11A 5549   5.624   3.841   9.383  0.0931  0.1338 -0.3084
   42CHL1  H11B 5550   5.464   3.854   9.446 -0.5105 -1.0491  0.9313
   42CHL1    C9 5551   5.556   3.660   9.480  0.4561 -0.0337 -0.0965
   42CHL1    H9 5552   5.453   3.616   9.480 -0.0937  1.2183  0.4097
   42CHL1   C10 5553   5.593   3.693   9.623 -0.3041 -0.1734 -0.9543
   42CHL1   C19 5554   5.702   3.802   9.615 -0.1541  0.2766  0.1223
   42CHL1  H19A 5555   5.787   3.773   9.550  0.8131  0.7576  1.1392
   42CHL1  H19B 5556   5.666   3.899   9.574  0.0347 -0.3175 -1.5413
   42CHL1  H19C 5557   5.744   3.815   9.717 -1.2346 -0.4301  0.6734
   42CHL1    C1 5558   5.468   3.748   9.695  0.2693 -0.0035 -0.1258
   42CHL1   H1A 5559   5.447   3.852   9.661 -2.2689 -0.0891  0.9310
   42CHL1   H1B 5560   5.391   3.671   9.674 -0.7239  0.5559  1.2769
   42CHL1    C2 5561   5.492   3.757   9.843  0.1376  0.9174  0.0099
   42CHL1   H2A 5562   5.394   3.782   9.890 -0.5092 -1.8005  0.2743
   42CHL1   H2B 5563   5.571   3.834   9.853  0.4313  0.8010 -1.2467
   42CHL1   C20 5564   5.573   3.670   8.906  0.0531 -0.2410 -0.4839
   42CHL1   H20 5565   5.678   3.699   8.884 -0.4247  0.0075 -2.6916
   42CHL1   C21 5566   5.499   3.801   8.907  0.4221  0.1332  0.0838
   42CHL1  H21A 5567   5.553   3.870   8.977  0.9903  0.1628 -0.3724
   42CHL1  H21B 5568   5.397   3.797   8.951  0.0928  3.3624 -0.1553
   42CHL1  H21C 5569   5.508   3.845   8.806  2.7239 -1.4759 -0.4753
   42CHL1   C22 5570   5.511   3.571   8.798  0.2442  0.3407 -0.5742
   42CHL1  H22A 5571   5.574   3.480   8.788  2.3161  1.7208 -0.7372
   42CHL1  H22B 5572   5.414   3.541   8.845 -0.0728 -1.2061 -2.1546
   42CHL1   C23 5573   5.507   3.627   8.659  0.5038 -0.7583 -0.1257
   42CHL1  H23A 5574   5.417   3.692   8.657 -0.2443 -1.7594 -0.7030
   42CHL1  H23B 5575   5.595   3.691   8.638 -0.8417  0.5757 -2.0065
   42CHL1   C24 5576   5.479   3.519   8.556  0.5427  0.0398 -0.3956
   42CHL1  H24A 5577   5.545   3.435   8.589 -1.1696 -0.3621  2.2846
   42CHL1  H24B 5578   5.377   3.477   8.563  0.8514 -0.5582  0.6920
   42CHL1   C25 5579   5.514   3.572   8.415 -0.5293 -0.2287  0.3851
   42CHL1   H25 5580   5.533   3.484   8.350  0.5636 -0.1889  0.6210
   42CHL1   C26 5581   5.392   3.647   8.355  0.7713 -0.1581  0.6412
   42CHL1  H26A 5582   5.402   3.671   8.247 -1.4232 -0.8369  0.2399
   42CHL1  H26B 5583   5.296   3.596   8.380  0.9755 -0.3329  1.0783
   42CHL1  H26C 5584   5.381   3.747   8.403 -1.5274  0.2564 -0.6080
   42CHL1   C27 5585   5.648   3.649   8.406  0.1370 -0.3173 -0.2369
   42CHL1  H27A 5586   5.718   3.598   8.477  0.1918 -0.7688 -0.6118
   42CHL1  H27B 5587   5.688   3.647   8.303  2.0714 -0.6474  0.4777
   42CHL1  H27C 5588   5.632   3.752   8.445 -0.6692 -1.4054  2.5519
   43CHL1    C3 5589   0.130   4.093   9.739 -0.3635  0.1744 -0.0107
   43CHL1    H3 5590   0.153   4.202   9.748 -2.2068  0.5381  0.9507
   43CHL1    O3 5591   0.071   4.052   9.862 -0.2452 -0.0130 -0.2619
   43CHL1   H3' 5592  -0.023   4.069   9.851 -0.5746 -0.5863  1.4994
   43CHL1    C4 5593   0.024   4.077   9.620  0.1957 -0.1095  0.2482
   43CHL1   H4A 5594  -0.018   3.975   9.634  0.8007 -0.4348 -0.2895
   43CHL1   H4B 5595  -0.063   4.143   9.644  1.3112  1.5555 -0.1136
   43CHL1    C5 5596   0.076   4.091   9.477  0.0123  0.3735 -0.3289
   43CHL1    C6 5597   0.025   4.185   9.393  0.6813  0.2717  0.2647
   43CHL1    H6 5598  -0.052   4.253   9.433 -0.7787 -1.8753  1.2653
   43CHL1    C7 5599   0.070   4.208   9.254 -0.2435  0.4513 -0.3820
   43CHL1   H7A 5600  -0.012   4.234   9.185  0.4068  0.3617 -1.2090
   43CHL1   H7B 5601   0.146   4.288   9.266  0.4705 -0.2697  0.0288
   43CHL1    C8 5602   0.155   4.083   9.206 -0.7051 -0.0654 -0.6647
   43CHL1    H8 5603   0.091   3.993   9.200 -1.0036  0.1468 -0.7266
   43CHL1   C14 5604   0.227   4.117   9.071  0.3739 -0.1555 -0.2361
   43CHL1   H14 5605   0.286   4.210   9.091 -0.3403  0.2733 -0.0756
   43CHL1   C15 5606   0.131   4.154   8.951  0.5861  0.6422 -0.7998
   43CHL1  H15A 5607   0.030   4.109   8.966  1.0325 -1.6152 -3.6436
   43CHL1  H15B 5608   0.106   4.261   8.933  1.8517  0.6539 -2.7933
   43CHL1   C16 5609   0.198   4.104   8.823 -0.2410  0.2537 -0.2961
   43CHL1  H16A 5610   0.132   4.025   8.782  0.3045  0.9347 -2.6248
   43CHL1  H16B 5611   0.189   4.188   8.752 -3.5474  1.0110  0.8738
   43CHL1   C17 5612   0.340   4.054   8.871 -0.0954 -0.0674 -0.6292
   43CHL1   H17 5613   0.411   4.139   8.880  0.0867 -0.1755 -1.0111
   43CHL1   C13 5614   0.314   4.005   9.019  0.8686 -0.3597 -0.6453
   43CHL1   C18 5615   0.232   3.869   9.009  0.3122 -0.0683 -0.7291
   43CHL1  H18A 5616   0.309   3.792   8.985 -1.3558 -2.9717  2.3277
   43CHL1  H18B 5617   0.198   3.832   9.108 -2.6830 -3.9194 -2.9179
   43CHL1  H18C 5618   0.148   3.878   8.936  0.3876 -0.8470 -0.9242
   43CHL1   C12 5619   0.434   3.998   9.116  0.8115 -0.0854  0.0488
   43CHL1  H12A 5620   0.495   3.912   9.081 -0.3019 -0.0426 -2.1783
   43CHL1  H12B 5621   0.500   4.086   9.106  0.4610  0.2836  0.9359
   43CHL1   C11 5622   0.386   3.969   9.260 -0.0390 -0.4676  0.2734
   43CHL1  H11A 5623   0.359   3.861   9.270  1.3611 -0.7819  0.8246
   43CHL1  H11B 5624   0.465   3.979   9.337  0.4637  2.3582 -0.5162
   43CHL1    C9 5625   0.269   4.052   9.311 -0.2024 -0.5572 -0.4224
   43CHL1    H9 5626   0.317   4.151   9.323 -1.0408 -0.1817 -0.0662
   43CHL1   C10 5627   0.206   4.010   9.452 -0.1895  0.2602  0.2933
   43CHL1   C19 5628   0.171   3.856   9.447  0.0446  0.2976  0.5824
   43CHL1  H19A 5629   0.119   3.834   9.543 -1.1843 -0.7470 -0.2828
   43CHL1  H19B 5630   0.110   3.825   9.360  2.6975 -0.6172 -1.0736
   43CHL1  H19C 5631   0.266   3.799   9.434 -1.3817 -1.8359 -1.0375
   43CHL1    C1 5632   0.309   4.041   9.564  0.0938  0.1860  0.0326
   43CHL1   H1A 5633   0.405   3.989   9.543 -0.8195 -0.6719 -2.3979
   43CHL1   H1B 5634   0.337   4.149   9.561  1.7731 -0.2125  0.2525
   43CHL1    C2 5635   0.258   4.016   9.713 -0.7644  0.1667  0.5417
   43CHL1   H2A 5636   0.336   4.050   9.785 -1.1709  0.6079  0.7859
   43CHL1   H2B 5637   0.239   3.913   9.749  0.2689 -0.2094  0.0391
   43CHL1   C20 5638   0.392   3.947   8.773 -0.4083  0.4173  0.6530
   43CHL1   H20 5639   0.324   3.859   8.769 -0.5097  0.5101  0.3670
   43CHL1   C21 5640   0.538   3.899   8.819 -0.3271  0.4892  0.2314
   43CHL1  H21A 5641   0.586   3.845   8.735  1.1803  0.2984  1.1749
   43CHL1  H21B 5642   0.527   3.817   8.893 -0.5936  0.5157  0.2231
   43CHL1  H21C 5643   0.597   3.986   8.857 -0.8081  1.1140 -0.4252
   43CHL1   C22 5644   0.385   3.998   8.627 -0.7964 -0.3289  0.2830
   43CHL1  H22A 5645   0.276   4.015   8.611 -1.4913  0.5229  4.7370
   43CHL1  H22B 5646   0.433   4.095   8.605 -1.6210  0.6732  2.5978
   43CHL1   C23 5647   0.433   3.883   8.530 -0.4810 -0.0580  0.1469
   43CHL1  H23A 5648   0.539   3.851   8.534 -0.8541 -1.2835  0.7617
   43CHL1  H23B 5649   0.368   3.796   8.551 -2.8743  1.0809 -1.8945
   43CHL1   C24 5650   0.393   3.915   8.384 -0.4366  0.7026 -0.6008
   43CHL1  H24A 5651   0.285   3.934   8.372 -0.2980  2.6837  0.7676
   43CHL1  H24B 5652   0.448   4.008   8.357 -0.9969  0.8727 -1.1643
   43CHL1   C25 5653   0.425   3.804   8.275  0.4716  0.1162 -0.1971
   43CHL1   H25 5654   0.377   3.837   8.181 -0.3127  2.6513  1.0069
   43CHL1   C26 5655   0.571   3.791   8.240 -0.0527 -0.3439 -0.1934
   43CHL1  H26A 5656   0.602   3.894   8.212 -0.5601 -0.1990 -0.2277
   43CHL1  H26B 5657   0.633   3.760   8.327 -0.9736 -1.3412  0.1343
   43CHL1  H26C 5658   0.572   3.726   8.150  0.1504 -1.6973  0.7521
   43CHL1   C27 5659   0.376   3.666   8.320 -0.1312  0.4861 -0.5109
   43CHL1  H27A 5660   0.272   3.666   8.358 -0.1398  2.2544 -0.4639
   43CHL1  H27B 5661   0.386   3.600   8.231  1.2607  0.5310 -0.4036
   43CHL1  H27C 5662   0.444   3.622   8.396 -0.2451  1.5104  0.2046
   44CHL1    C3 5663   5.906   6.222  10.050 -0.5444 -0.2938 -0.6683
   44CHL1    H3 5664   6.013   6.191  10.039 -1.1494 -2.0751 -2.2611
   44CHL1    O3 5665   5.854   6.154  10.161 -0.3326 -0.5361  0.5480
   44CHL1   H3' 5666   5.761   6.178  10.164 -0.5576 -1.2117 -0.5249
   44CHL1    C4 5667   5.886   6.374  10.068 -0.5886 -0.1089  0.7827
   44CHL1   H4A 5668   5.777   6.394  10.082 -0.8295 -1.8967  1.7891
   44CHL1   H4B 5669   5.934   6.403  10.164  2.9945  1.4368 -1.2782
   44CHL1    C5 5670   5.940   6.448   9.943  0.0598 -0.1756 -0.1921
   44CHL1    C6 5671   6.035   6.550   9.964 -0.2696  0.6348 -0.2975
   44CHL1    H6 5672   6.068   6.584  10.064  3.3343  2.5710 -1.9500
   44CHL1    C7 5673   6.083   6.640   9.854 -0.6174 -0.1444  0.0972
   44CHL1   H7A 5674   6.086   6.747   9.885 -0.7417  0.3715 -1.5820
   44CHL1   H7B 5675   6.188   6.610   9.830 -1.3934 -2.8578 -0.1528
   44CHL1    C8 5676   5.993   6.632   9.719 -0.4951  0.1281 -0.2581
   44CHL1    H8 5677   5.902   6.693   9.739 -0.3344  0.3653 -0.2448
   44CHL1   C14 5678   6.067   6.693   9.603 -0.3655 -0.2825  0.0381
   44CHL1   H14 5679   6.158   6.632   9.587  1.2828  1.8107  1.0230
   44CHL1   C15 5680   6.123   6.835   9.617  0.5969 -0.6842  0.6108
   44CHL1  H15A 5681   6.040   6.888   9.668  1.9095  1.9572  0.1547
   44CHL1  H15B 5682   6.214   6.854   9.678  0.9198 -1.4191  0.3732
   44CHL1   C16 5683   6.138   6.881   9.470 -0.8979 -0.6723  0.1666
   44CHL1  H16A 5684   6.076   6.973   9.462 -2.4285 -1.5530  1.3575
   44CHL1  H16B 5685   6.240   6.912   9.441 -1.5975  1.4054 -0.2397
   44CHL1   C17 5686   6.094   6.765   9.375  0.1013 -0.0033  0.8841
   44CHL1   H17 5687   6.176   6.692   9.360 -0.2670 -0.2198 -0.1733
   44CHL1   C13 5688   5.997   6.693   9.468  0.0846  0.7764  0.2307
   44CHL1   C18 5689   5.860   6.771   9.473  0.3711 -0.3670  0.1406
   44CHL1  H18A 5690   5.795   6.736   9.555 -1.0546 -2.2976 -1.6874
   44CHL1  H18B 5691   5.864   6.880   9.495 -2.3789 -0.1576 -0.0480
   44CHL1  H18C 5692   5.809   6.749   9.376 -0.1910 -1.3932  0.6590
   44CHL1   C12 5693   5.966   6.540   9.441  0.6311 -0.6870 -0.5726
   44CHL1  H12A 5694   5.903   6.533   9.350 -2.4683 -0.2540  1.3993
   44CHL1  H12B 5695   6.060   6.483   9.423  0.4274 -1.5305  0.8808
   44CHL1   C11 5696   5.888   6.467   9.550  0.2544  0.2346  0.5670
   44CHL1  H11A 5697   5.780   6.495   9.548  0.5714  1.8083 -3.8558
   44CHL1  H11B 5698   5.882   6.360   9.522 -2.1078 -0.1165  2.1279
   44CHL1    C9 5699   5.958   6.479   9.694 -0.8835  0.7035  0.6712
   44CHL1    H9 5700   6.050   6.426   9.664 -0.5036  1.1217  1.0620
   44CHL1   C10 5701   5.875   6.403   9.807 -0.2786 -0.0887  0.6222
   44CHL1   C19 5702   5.729   6.455   9.808  0.0016  0.3879  0.0589
   44CHL1  H19A 5703   5.683   6.396   9.890  0.6803 -1.6252 -0.9195
   44CHL1  H19B 5704   5.722   6.564   9.826 -0.7220  0.1636  1.2417
   44CHL1  H19C 5705   5.675   6.419   9.717 -0.1106 -1.6332  0.8618
   44CHL1    C1 5706   5.891   6.254   9.793  0.0064 -0.0939 -0.4819
   44CHL1   H1A 5707   5.821   6.221   9.714 -0.1392  0.1750 -0.4676
   44CHL1   H1B 5708   5.998   6.229   9.777  1.3204  2.4599  2.9863
   44CHL1    C2 5709   5.837   6.181   9.922 -0.1344 -0.1198 -0.3020
   44CHL1   H2A 5710   5.845   6.072   9.903 -0.4563 -0.8634  3.1912
   44CHL1   H2B 5711   5.728   6.200   9.937 -0.1039  1.8983 -2.0737
   44CHL1   C20 5712   6.061   6.807   9.229 -0.2367  0.3153 -0.4086
   44CHL1   H20 5713   5.973   6.874   9.237 -1.0584 -0.7549 -0.1758
   44CHL1   C21 5714   6.020   6.682   9.143 -0.6075 -0.0243 -0.2898
   44CHL1  H21A 5715   6.099   6.604   9.131 -0.6198 -0.6310  2.6565
   44CHL1  H21B 5716   5.982   6.721   9.047 -0.1590 -0.7315 -0.7632
   44CHL1  H21C 5717   5.927   6.635   9.180 -0.6168  0.6565  0.5821
   44CHL1   C22 5718   6.180   6.878   9.162  0.2592  0.7902  0.3265
   44CHL1  H22A 5719   6.239   6.944   9.229 -0.1100  0.5427  0.8984
   44CHL1  H22B 5720   6.250   6.803   9.121  1.5325  1.0696  1.9124
   44CHL1   C23 5721   6.139   6.974   9.042 -0.1211  0.3786 -0.0231
   44CHL1  H23A 5722   6.071   6.909   8.982  0.6722  0.3803 -0.9505
   44CHL1  H23B 5723   6.088   7.069   9.069  0.3275  0.2172  1.4635
   44CHL1   C24 5724   6.263   7.015   8.955 -0.9505 -0.5068 -0.7830
   44CHL1  H24A 5725   6.328   7.077   9.021 -1.0003 -0.3122 -0.9168
   44CHL1  H24B 5726   6.312   6.923   8.916 -0.1972  0.6246 -2.6482
   44CHL1   C25 5727   6.228   7.108   8.833 -0.1360  0.5698 -0.4251
   44CHL1   H25 5728   6.167   7.190   8.877  1.1144  1.5957 -0.5515
   44CHL1   C26 5729   6.366   7.148   8.776  0.7414  0.3076 -0.3717
   44CHL1  H26A 5730   6.357   7.221   8.693  2.6218  0.7048 -0.2605
   44CHL1  H26B 5731   6.429   7.198   8.853  1.9320 -0.7763 -0.6268
   44CHL1  H26C 5732   6.426   7.062   8.740  1.2293  1.8494 -3.5387
   44CHL1   C27 5733   6.137   7.034   8.727 -0.0715  0.5073  0.1121
   44CHL1  H27A 5734   6.194   6.946   8.692  0.1934 -0.3459  2.5116
   44CHL1  H27B 5735   6.049   6.984   8.774  1.0022 -2.6807 -1.0638
   44CHL1  H27C 5736   6.121   7.108   8.645  0.0428  1.5674  1.0174
   45CHL1    C3 5737   2.942   4.039  10.083 -0.6273  0.8356  0.3387
   45CHL1    H3 5738   2.953   4.149  10.091 -0.2660  0.7398  1.2923
   45CHL1    O3 5739   2.926   3.965  10.201  0.0883  0.3296 -0.1728
   45CHL1   H3' 5740   2.990   4.002  10.264  1.4403 -1.8011 -0.1942
   45CHL1    C4 5741   2.826   4.003   9.982  0.4300  0.4074 -0.8055
   45CHL1   H4A 5742   2.806   3.894   9.974 -3.8523  1.1261 -2.8561
   45CHL1   H4B 5743   2.741   4.042  10.042  0.8786 -0.9285  0.7922
   45CHL1    C5 5744   2.851   4.056   9.842 -0.1310  0.3723  0.3171
   45CHL1    C6 5745   2.759   4.128   9.778 -0.0152  0.3609  0.5321
   45CHL1    H6 5746   2.662   4.147   9.826  0.2767  1.5753  0.6660
   45CHL1    C7 5747   2.773   4.190   9.639 -0.1115 -0.3446 -0.4049
   45CHL1   H7A 5748   2.678   4.194   9.582  0.3111 -0.1623 -1.1116
   45CHL1   H7B 5749   2.796   4.299   9.648  1.8825 -0.7536 -0.0527
   45CHL1    C8 5750   2.882   4.120   9.553 -0.5680  0.2942 -0.2396
   45CHL1    H8 5751   2.907   4.202   9.482  0.3198  0.6252  0.4392
   45CHL1   C14 5752   2.833   4.007   9.465 -0.4534  0.7464 -0.4698
   45CHL1   H14 5753   2.801   3.920   9.526  2.1469  0.4125  0.5491
   45CHL1   C15 5754   2.723   4.061   9.367 -0.0680  0.6436  0.3112
   45CHL1  H15A 5755   2.623   4.040   9.408 -0.1724 -1.7719 -0.9796
   45CHL1  H15B 5756   2.751   4.167   9.345  3.3375 -0.5247 -1.7914
   45CHL1   C16 5757   2.742   3.976   9.239  0.1493 -0.0740 -0.3500
   45CHL1  H16A 5758   2.706   3.872   9.250 -1.0856  0.5275  2.1285
   45CHL1  H16B 5759   2.698   4.029   9.152 -2.0364  2.2573  1.9807
   45CHL1   C17 5760   2.898   3.977   9.224  0.4409 -0.2804 -0.4111
   45CHL1   H17 5761   2.925   4.076   9.183 -0.5978  0.3444  0.3784
   45CHL1   C13 5762   2.949   3.956   9.370  0.8959 -0.2876  0.1602
   45CHL1   C18 5763   2.960   3.801   9.390  0.0823 -0.4982 -0.1569
   45CHL1  H18A 5764   2.971   3.777   9.498  0.3400 -0.1156 -0.0970
   45CHL1  H18B 5765   2.875   3.756   9.334  0.3478 -1.2917  0.0694
   45CHL1  H18C 5766   3.050   3.763   9.338 -0.1783 -1.2882 -0.0423
   45CHL1   C12 5767   3.083   4.028   9.402  0.1523  0.0159 -0.1645
   45CHL1  H12A 5768   3.165   3.974   9.350 -0.6432 -0.6036 -0.7968
   45CHL1  H12B 5769   3.078   4.137   9.380 -1.1043  0.9558  3.9587
   45CHL1   C11 5770   3.114   4.014   9.554  0.1217  0.0835  0.2453
   45CHL1  H11A 5771   3.132   3.906   9.570 -1.5488 -0.3392 -0.5045
   45CHL1  H11B 5772   3.213   4.058   9.580 -0.7693  1.8503  0.8243
   45CHL1    C9 5773   3.007   4.083   9.640  0.5508 -0.4024 -0.4219
   45CHL1    H9 5774   3.049   4.183   9.668  0.7134 -0.5863  0.0005
   45CHL1   C10 5775   2.986   4.009   9.780  0.7472 -0.0592  0.0641
   45CHL1   C19 5776   2.977   3.856   9.760  0.2800 -0.8351  0.0205
   45CHL1  H19A 5777   2.896   3.839   9.686  0.0359 -0.9621  0.3154
   45CHL1  H19B 5778   3.062   3.812   9.705 -0.6807 -1.1222 -1.2807
   45CHL1  H19C 5779   2.945   3.801   9.851 -2.0314  0.5132  0.1162
   45CHL1    C1 5780   3.108   4.042   9.874  0.1726  0.7331 -0.2020
   45CHL1   H1A 5781   3.199   3.987   9.841  1.2832  1.4873  1.4695
   45CHL1   H1B 5782   3.118   4.152   9.874 -2.5726  1.0434  0.2918
   45CHL1    C2 5783   3.081   3.989  10.018  0.7958  0.1683  0.6076
   45CHL1   H2A 5784   3.161   4.027  10.085  0.2054  0.6504  1.0528
   45CHL1   H2B 5785   3.080   3.878  10.020 -4.2234 -0.1941 -2.8308
   45CHL1   C20 5786   2.952   3.885   9.105  0.1377  0.7576 -0.6871
   45CHL1   H20 5787   2.960   3.780   9.140  0.5623  0.6011 -1.2505
   45CHL1   C21 5788   3.099   3.926   9.069  0.3559 -0.4848  0.1430
   45CHL1  H21A 5789   3.148   3.854   9.001 -0.4225 -0.6327 -0.2827
   45CHL1  H21B 5790   3.165   3.923   9.158  1.3842  0.0923 -0.5702
   45CHL1  H21C 5791   3.097   4.024   9.017  3.1225 -1.3538 -1.8057
   45CHL1   C22 5792   2.858   3.873   8.978 -0.6168  0.8035 -0.7396
   45CHL1  H22A 5793   2.882   3.790   8.908 -1.0432  1.6609 -1.9194
   45CHL1  H22B 5794   2.763   3.842   9.026 -0.4237  2.7193  1.0080
   45CHL1   C23 5795   2.834   3.995   8.907 -0.0002 -0.7150  1.0059
   45CHL1  H23A 5796   2.776   4.071   8.963 -1.7391 -1.3873  0.1982
   45CHL1  H23B 5797   2.931   4.037   8.873  0.2377 -2.3840 -0.5786
   45CHL1   C24 5798   2.765   3.954   8.770  0.7722  0.1368 -0.2583
   45CHL1  H24A 5799   2.785   3.845   8.756 -1.7382 -0.2272 -1.7496
   45CHL1  H24B 5800   2.654   3.957   8.774  0.7816 -0.4409  0.8355
   45CHL1   C25 5801   2.820   4.028   8.648  0.3577  0.2424 -0.3811
   45CHL1   H25 5802   2.930   4.047   8.655  0.4638 -0.2855 -0.5593
   45CHL1   C26 5803   2.781   3.945   8.524  0.7232 -0.0735 -0.2611
   45CHL1  H26A 5804   2.819   3.841   8.530 -0.7161 -0.6926 -1.4085
   45CHL1  H26B 5805   2.670   3.936   8.527  0.7233 -0.0187  2.0892
   45CHL1  H26C 5806   2.810   3.995   8.429 -1.6195  1.3566 -0.2988
   45CHL1   C27 5807   2.755   4.169   8.649  0.6389  0.2475  0.5455
   45CHL1  H27A 5808   2.652   4.148   8.612  1.2935 -2.0516 -0.1379
   45CHL1  H27B 5809   2.754   4.220   8.748 -4.4291  2.6252 -0.4374
   45CHL1  H27C 5810   2.796   4.235   8.570 -0.2980  0.5370  0.2899
   46CHL1    C3 5811   0.691   0.153  10.015  1.1881 -0.8562  0.4611
   46CHL1    H3 5812   0.595   0.110   9.981 -0.3375 -0.4303  3.8428
   46CHL1    O3 5813   0.671   0.173  10.152  0.4425  0.2730 -0.6297
   46CHL1   H3' 5814   0.619   0.250  10.174 -0.5566 -1.0062  1.8644
   46CHL1    C4 5815   0.805   0.050   9.987 -0.4277  0.1576 -0.0338
   46CHL1   H4A 5816   0.894   0.075  10.049 -1.1272  0.8565  0.7183
   46CHL1   H4B 5817   0.775  -0.046  10.034  1.5427  0.5034  2.1164
   46CHL1    C5 5818   0.831   0.030   9.838  0.0940  0.0040  0.4224
   46CHL1    C6 5819   0.822  -0.089   9.774 -0.0881  0.1306  0.0670
   46CHL1    H6 5820   0.801  -0.178   9.835  3.5140 -1.6812 -1.0124
   46CHL1    C7 5821   0.860  -0.115   9.633  0.0893 -0.2771 -0.0317
   46CHL1   H7A 5822   0.936  -0.196   9.624 -2.5015 -3.0566  1.5024
   46CHL1   H7B 5823   0.770  -0.154   9.581  0.5925 -1.4748 -0.0520
   46CHL1    C8 5824   0.927   0.011   9.560  0.5343 -0.0055 -0.6051
   46CHL1    H8 5825   1.035   0.009   9.584  0.6096  0.7196 -0.8737
   46CHL1   C14 5826   0.905   0.000   9.406  0.3147 -0.2557 -0.4788
   46CHL1   H14 5827   0.796  -0.008   9.389  0.5971  0.0014 -2.6318
   46CHL1   C15 5828   0.948  -0.133   9.343 -0.0384 -0.3291 -0.1651
   46CHL1  H15A 5829   1.056  -0.151   9.364 -0.0578  0.1766  0.3896
   46CHL1  H15B 5830   0.895  -0.224   9.381  2.6802 -1.9595 -0.0118
   46CHL1   C16 5831   0.911  -0.103   9.195  0.0461 -0.1785 -0.1244
   46CHL1  H16A 5832   0.988  -0.141   9.124 -1.6698 -1.3916 -1.4100
   46CHL1  H16B 5833   0.811  -0.149   9.182  0.9678 -2.1151 -0.8500
   46CHL1   C17 5834   0.893   0.056   9.183 -0.4742  0.0097 -0.6154
   46CHL1   H17 5835   0.785   0.078   9.169 -0.2398  1.3897 -0.3887
   46CHL1   C13 5836   0.940   0.114   9.320 -0.6604 -0.5329 -0.2913
   46CHL1   C18 5837   1.094   0.146   9.317 -0.3867  0.7835 -0.4052
   46CHL1  H18A 5838   1.148   0.162   9.413  1.8761  3.3998 -1.9825
   46CHL1  H18B 5839   1.137   0.058   9.263 -1.0566  0.1938  0.0042
   46CHL1  H18C 5840   1.117   0.236   9.256  0.5797  1.0767  0.3507
   46CHL1   C12 5841   0.857   0.239   9.376 -0.1906 -0.2826 -0.2165
   46CHL1  H12A 5842   0.877   0.324   9.307  2.2273 -1.2338 -0.7874
   46CHL1  H12B 5843   0.748   0.216   9.370 -0.5969  1.3245  0.3878
   46CHL1   C11 5844   0.886   0.261   9.523 -0.8309  0.4172 -0.3431
   46CHL1  H11A 5845   0.994   0.285   9.532 -0.8404  0.0070  0.9914
   46CHL1  H11B 5846   0.827   0.350   9.555 -1.2471  0.4019 -1.0443
   46CHL1    C9 5847   0.856   0.137   9.608 -0.5756 -0.6126 -0.4751
   46CHL1    H9 5848   0.747   0.126   9.593 -0.9722  0.9804  0.9463
   46CHL1   C10 5849   0.857   0.165   9.762 -0.5178  0.2688  0.2138
   46CHL1   C19 5850   1.003   0.201   9.797  0.5248  0.6039  0.0464
   46CHL1  H19A 5851   1.004   0.239   9.901  1.0153  2.1536 -0.5008
   46CHL1  H19B 5852   1.075   0.122   9.769 -0.9567 -0.0204 -2.2857
   46CHL1  H19C 5853   1.018   0.293   9.737 -0.6098  1.3490  0.8526
   46CHL1    C1 5854   0.752   0.275   9.796 -0.1455  0.3659  0.2174
   46CHL1   H1A 5855   0.794   0.374   9.768 -0.5160  0.3210 -0.5321
   46CHL1   H1B 5856   0.667   0.250   9.729 -0.5887  0.9562  0.5497
   46CHL1    C2 5857   0.714   0.286   9.941 -0.1354  0.7318 -0.8408
   46CHL1   H2A 5858   0.622   0.347   9.957  0.3722  1.2235  0.2930
   46CHL1   H2B 5859   0.797   0.343   9.987 -1.2396  1.6821  0.0336
   46CHL1   C20 5860   0.960   0.109   9.055 -0.4982  0.5033  0.1771
   46CHL1   H20 5861   1.070   0.090   9.057 -0.7936 -1.2719  1.2068
   46CHL1   C21 5862   0.934   0.262   9.035 -0.7289  0.0227  0.2960
   46CHL1  H21A 5863   0.989   0.317   9.115  0.5578  1.8195 -1.7328
   46CHL1  H21B 5864   0.828   0.290   9.051 -0.5187  0.9955  0.0312
   46CHL1  H21C 5865   0.968   0.300   8.937 -1.5809  1.4012  0.5136
   46CHL1   C22 5866   0.915   0.025   8.926 -0.8728 -0.7188 -0.2198
   46CHL1  H22A 5867   0.951  -0.080   8.918  2.1240  0.2381 -0.7070
   46CHL1  H22B 5868   0.805   0.012   8.927 -0.8377 -1.3207 -1.9928
   46CHL1   C23 5869   0.948   0.084   8.792  0.0661 -0.5994  0.4260
   46CHL1  H23A 5870   0.884   0.174   8.780 -1.0180 -1.6221 -2.0755
   46CHL1  H23B 5871   1.055   0.113   8.793 -0.5056  1.7051  0.6802
   46CHL1   C24 5872   0.902   0.006   8.666  0.1871  0.7600  0.3665
   46CHL1  H24A 5873   0.973  -0.075   8.637  0.1173  0.8481 -0.0637
   46CHL1  H24B 5874   0.806  -0.038   8.701 -0.3040  0.2743 -1.4724
   46CHL1   C25 5875   0.865   0.090   8.540 -0.1024  0.1454 -0.0640
   46CHL1   H25 5876   0.786   0.159   8.579 -0.7286 -1.4455  1.6005
   46CHL1   C26 5877   0.974   0.191   8.501 -0.4549 -0.0487  0.0917
   46CHL1  H26A 5878   0.929   0.276   8.444 -0.5515  0.4528  0.8960
   46CHL1  H26B 5879   1.019   0.225   8.597 -2.2213  1.4559  0.4353
   46CHL1  H26C 5880   1.053   0.147   8.436 -0.1122  2.4974 -1.3933
   46CHL1   C27 5881   0.813   0.002   8.423 -0.0988  0.6979  0.4528
   46CHL1  H27A 5882   0.844   0.055   8.330  2.1883 -1.3216 -0.0502
   46CHL1  H27B 5883   0.858  -0.100   8.428  0.3351  0.9431  1.8179
   46CHL1  H27C 5884   0.703  -0.008   8.423 -0.3039  2.7089 -0.1722
   47CHL1    C3 5885   0.399   5.211   9.946 -0.5738 -0.0485  0.8639
   47CHL1    H3 5886   0.312   5.269   9.907 -0.6135 -0.6706 -0.0217
   47CHL1    O3 5887   0.403   5.219  10.083  0.9115  0.2492  0.2032
   47CHL1   H3' 5888   0.314   5.251  10.098  0.2135 -0.0315 -2.7257
   47CHL1    C4 5889   0.378   5.064   9.899 -0.2293  0.6378  0.3476
   47CHL1   H4A 5890   0.452   5.001   9.952  0.8366  1.6732  0.1329
   47CHL1   H4B 5891   0.281   5.030   9.942  0.2746 -0.0901  0.9352
   47CHL1    C5 5892   0.395   5.048   9.748  0.0006 -0.0300 -0.4638
   47CHL1    C6 5893   0.295   4.984   9.684 -0.1442 -0.4158 -0.5463
   47CHL1    H6 5894   0.204   4.946   9.734 -1.6149  1.9645 -1.2508
   47CHL1    C7 5895   0.300   4.962   9.544 -0.2520  0.3239  0.7668
   47CHL1   H7A 5896   0.259   4.862   9.520  1.9317 -0.2373 -0.9495
   47CHL1   H7B 5897   0.226   5.033   9.500  1.0381  1.9319  1.0663
   47CHL1    C8 5898   0.441   4.983   9.479  0.0353 -0.3605 -0.7033
   47CHL1    H8 5899   0.498   4.893   9.510  1.2026  0.5217 -0.2514
   47CHL1   C14 5900   0.432   4.985   9.328  0.5029  0.1880  0.0057
   47CHL1   H14 5901   0.381   5.081   9.304  1.8785  1.5986  2.3506
   47CHL1   C15 5902   0.350   4.865   9.273  0.5181  0.4168 -0.7853
   47CHL1  H15A 5903   0.365   4.767   9.324  1.0639  1.6218  1.4594
   47CHL1  H15B 5904   0.245   4.901   9.284  0.8483  1.7815 -1.8411
   47CHL1   C16 5905   0.392   4.873   9.122 -0.1278  0.1856  0.4335
   47CHL1  H16A 5906   0.427   4.771   9.094 -1.6369  0.4213 -2.6837
   47CHL1  H16B 5907   0.306   4.889   9.055  0.4933 -0.8705 -0.6701
   47CHL1   C17 5908   0.498   4.981   9.114  0.0900 -0.5961 -0.7940
   47CHL1   H17 5909   0.451   5.079   9.090 -1.9505 -1.4061 -0.2852
   47CHL1   C13 5910   0.555   4.997   9.254  0.0716  0.4437  1.1579
   47CHL1   C18 5911   0.649   4.871   9.286  0.1811 -0.6722  0.5098
   47CHL1  H18A 5912   0.693   4.859   9.387  2.1336  3.2253  0.3132
   47CHL1  H18B 5913   0.599   4.777   9.254  1.1599 -0.1378 -3.0898
   47CHL1  H18C 5914   0.731   4.870   9.210  0.4133 -1.3516  0.7632
   47CHL1   C12 5915   0.630   5.130   9.297  0.0941 -0.0467 -0.2092
   47CHL1  H12A 5916   0.734   5.133   9.257 -0.7729 -0.2138 -2.6047
   47CHL1  H12B 5917   0.567   5.217   9.268 -1.3253 -0.5541  1.2107
   47CHL1   C11 5918   0.645   5.136   9.453 -0.1356  0.0410 -0.4686
   47CHL1  H11A 5919   0.727   5.062   9.469  0.8820 -0.0907 -5.0516
   47CHL1  H11B 5920   0.678   5.236   9.487 -1.4042  0.2632  0.1572
   47CHL1    C9 5921   0.515   5.107   9.530  0.8752  0.3885 -0.3052
   47CHL1    H9 5922   0.445   5.191   9.512  0.0484  0.0699  1.2532
   47CHL1   C10 5923   0.519   5.107   9.685 -0.5002 -0.1318 -0.3553
   47CHL1   C19 5924   0.644   5.028   9.732 -0.5305  0.3151  0.3468
   47CHL1  H19A 5925   0.638   4.932   9.676  1.5319  2.1757 -3.4876
   47CHL1  H19B 5926   0.733   5.081   9.691  0.2671 -1.6652 -0.6187
   47CHL1  H19C 5927   0.643   5.014   9.842 -2.5651 -0.0811  0.3218
   47CHL1    C1 5928   0.532   5.250   9.730 -0.3443  0.0670 -0.6577
   47CHL1   H1A 5929   0.622   5.298   9.686  1.8405 -2.4723  0.7867
   47CHL1   H1B 5930   0.444   5.311   9.700 -0.5841  0.9827  1.6875
   47CHL1    C2 5931   0.529   5.275   9.885  0.2629  0.3155  0.3677
   47CHL1   H2A 5932   0.536   5.386   9.893  0.1166  0.3331  0.2306
   47CHL1   H2B 5933   0.616   5.221   9.928  1.1503  1.3629 -0.0676
   47CHL1   C20 5934   0.597   4.957   9.005 -0.3958  0.1275  0.3579
   47CHL1   H20 5935   0.648   4.862   9.029  0.6874  0.5044 -0.3765
   47CHL1   C21 5936   0.714   5.065   8.995  0.2549  0.0894 -0.1414
   47CHL1  H21A 5937   0.682   5.170   9.014  2.5745  1.0876 -1.3311
   47CHL1  H21B 5938   0.759   5.062   8.893 -1.8939 -1.5319 -1.1075
   47CHL1  H21C 5939   0.784   5.033   9.075  1.0373 -0.8872 -1.1850
   47CHL1   C22 5940   0.527   4.944   8.861 -0.8422  0.5874 -1.1743
   47CHL1  H22A 5941   0.442   4.873   8.869  0.4544 -0.7536  2.1578
   47CHL1  H22B 5942   0.503   5.048   8.827  0.2137  1.1408 -0.2956
   47CHL1   C23 5943   0.611   4.894   8.741  0.6178  0.6481  0.4389
   47CHL1  H23A 5944   0.691   4.970   8.730  1.0474 -0.0459 -1.8469
   47CHL1  H23B 5945   0.650   4.794   8.770  0.1735  0.7626  1.4554
   47CHL1   C24 5946   0.539   4.871   8.606  0.1142 -0.5747 -0.0342
   47CHL1  H24A 5947   0.453   4.801   8.619 -1.1455  0.1208 -3.6921
   47CHL1  H24B 5948   0.498   4.973   8.590 -1.4704 -0.7333  2.4348
   47CHL1   C25 5949   0.626   4.834   8.493  0.2905 -0.7524  0.2410
   47CHL1   H25 5950   0.725   4.882   8.511  1.0037 -1.5191 -1.4508
   47CHL1   C26 5951   0.657   4.686   8.493 -0.1083  0.9695  0.4798
   47CHL1  H26A 5952   0.703   4.661   8.395 -0.0885 -0.4680  0.8400
   47CHL1  H26B 5953   0.561   4.631   8.493 -1.3452  2.6861 -4.2800
   47CHL1  H26C 5954   0.725   4.659   8.577 -0.8233 -1.4064  0.3692
   47CHL1   C27 5955   0.571   4.887   8.360 -0.5909  0.4200 -0.4732
   47CHL1  H27A 5956   0.627   4.978   8.328  1.2765  0.3845  2.3386
   47CHL1  H27B 5957   0.593   4.815   8.278 -1.5339  0.8313 -1.1013
   47CHL1  H27C 5958   0.462   4.903   8.371 -0.1435  1.9100  3.1182
   48CHL1    C3 5959   1.296   5.839  10.049 -0.6855 -0.2459 -0.4926
   48CHL1    H3 5960   1.397   5.877  10.073 -1.2643 -1.0763  4.1574
   48CHL1    O3 5961   1.230   5.834  10.176  0.3487  0.1338  0.6644
   48CHL1   H3' 5962   1.287   5.774  10.224  1.3456 -1.6556 -2.5291
   48CHL1    C4 5963   1.228   5.943   9.961 -0.0591  0.3758  0.2540
   48CHL1   H4A 5964   1.118   5.929   9.953  0.0330  0.7901 -4.5991
   48CHL1   H4B 5965   1.237   6.046  10.003  0.3891  0.2739  0.4164
   48CHL1    C5 5966   1.281   5.946   9.818  0.5538 -0.4720  0.0614
   48CHL1    C6 5967   1.318   6.057   9.753  0.4816  0.3295 -0.3901
   48CHL1    H6 5968   1.298   6.158   9.793 -0.6503  0.6290 -1.6018
   48CHL1    C7 5969   1.366   6.063   9.613  0.5241 -0.4907 -0.0330
   48CHL1   H7A 5970   1.330   6.152   9.558  1.2827 -1.3051 -1.9336
   48CHL1   H7B 5971   1.476   6.076   9.626  0.3171 -0.7099  2.4974
   48CHL1    C8 5972   1.336   5.935   9.528  0.0858 -0.7146  0.3311
   48CHL1    H8 5973   1.232   5.946   9.491 -0.7603 -0.7692  2.5962
   48CHL1   C14 5974   1.419   5.930   9.406  0.1364  0.3519  0.1516
   48CHL1   H14 5975   1.521   5.916   9.447  1.1774  2.0901 -1.6614
   48CHL1   C15 5976   1.418   6.061   9.319 -0.0109  0.1739 -0.4742
   48CHL1  H15A 5977   1.311   6.075   9.291 -0.0473 -2.5729 -2.0565
   48CHL1  H15B 5978   1.461   6.150   9.371  0.9042 -0.7479  0.3941
   48CHL1   C16 5979   1.499   6.022   9.197 -0.1017 -0.2158 -0.0604
   48CHL1  H16A 5980   1.441   6.030   9.102 -0.8346  0.9726  0.4652
   48CHL1  H16B 5981   1.593   6.080   9.199  0.3536 -0.8142 -1.8308
   48CHL1   C17 5982   1.528   5.865   9.213 -0.3548 -0.4421 -0.1684
   48CHL1   H17 5983   1.624   5.859   9.269 -0.4699  0.9430  0.2331
   48CHL1   C13 5984   1.410   5.814   9.306 -0.1681 -0.3141 -0.6611
   48CHL1   C18 5985   1.272   5.812   9.242 -0.7828  0.0148  0.6784
   48CHL1  H18A 5986   1.260   5.911   9.192 -1.4659  0.6226  1.9852
   48CHL1  H18B 5987   1.263   5.738   9.160 -0.6313  0.5428  0.1744
   48CHL1  H18C 5988   1.195   5.806   9.322 -1.8097 -0.9226 -0.3457
   48CHL1   C12 5989   1.443   5.690   9.390 -0.3980  0.4761  0.7590
   48CHL1  H12A 5990   1.436   5.599   9.326  0.2848  0.6841  0.3812
   48CHL1  H12B 5991   1.550   5.691   9.418  0.3500 -0.9086 -1.7437
   48CHL1   C11 5992   1.349   5.684   9.512  0.6464 -0.0502  1.1121
   48CHL1  H11A 5993   1.246   5.666   9.475  2.0321 -1.9710 -2.3281
   48CHL1  H11B 5994   1.385   5.586   9.551  2.5562 -1.3529 -3.1917
   48CHL1    C9 5995   1.366   5.805   9.608 -0.5694 -0.2665  1.2692
   48CHL1    H9 5996   1.473   5.817   9.636  0.0014  1.0393 -1.2084
   48CHL1   C10 5997   1.286   5.806   9.741  1.0845  0.0431  0.4500
   48CHL1   C19 5998   1.132   5.786   9.711 -0.4644 -0.3781  0.1012
   48CHL1  H19A 5999   1.070   5.798   9.803  1.0120  0.1378  1.0804
   48CHL1  H19B 6000   1.092   5.845   9.626 -0.8893 -0.4266  0.2630
   48CHL1  H19C 6001   1.121   5.677   9.696 -0.7574 -0.1773 -1.2705
   48CHL1    C1 6002   1.345   5.702   9.839 -0.0382  0.4617  0.0454
   48CHL1   H1A 6003   1.328   5.601   9.796 -1.0724  0.0620  1.3176
   48CHL1   H1B 6004   1.455   5.719   9.839 -0.3544  2.8666 -0.0505
   48CHL1    C2 6005   1.288   5.697   9.984 -0.2040  0.4003  0.6761
   48CHL1   H2A 6006   1.351   5.627  10.043 -0.1041  1.2770  1.6521
   48CHL1   H2B 6007   1.181   5.667   9.978  0.3654 -1.6085  0.0110
   48CHL1   C20 6008   1.541   5.801   9.079  0.1578  0.1135  0.4310
   48CHL1   H20 6009   1.452   5.818   9.015 -0.4571 -2.3426  0.5560
   48CHL1   C21 6010   1.539   5.650   9.101 -0.5138  0.2084 -0.2770
   48CHL1  H21A 6011   1.617   5.634   9.178  1.6635 -1.5915 -2.6685
   48CHL1  H21B 6012   1.578   5.605   9.007 -1.6671 -0.0739 -0.6397
   48CHL1  H21C 6013   1.436   5.619   9.130 -0.3085  0.8164  1.1636
   48CHL1   C22 6014   1.662   5.846   8.996 -0.4215 -0.5176 -0.4737
   48CHL1  H22A 6015   1.671   5.956   9.004  1.7464 -0.7691  2.6772
   48CHL1  H22B 6016   1.755   5.821   9.052 -0.0001  0.4173 -0.7321
   48CHL1   C23 6017   1.668   5.796   8.850  0.4335  0.3790 -0.1816
   48CHL1  H23A 6018   1.695   5.689   8.862  0.2565  0.6029  2.8788
   48CHL1  H23B 6019   1.569   5.809   8.801  0.8473  0.3032 -1.0608
   48CHL1   C24 6020   1.771   5.870   8.768 -0.6424 -0.7891  0.4260
   48CHL1  H24A 6021   1.757   5.979   8.781 -0.5478 -0.5027 -1.5633
   48CHL1  H24B 6022   1.879   5.846   8.785 -0.3555 -1.5128 -2.0793
   48CHL1   C25 6023   1.757   5.836   8.616  0.4105 -0.4411  0.2746
   48CHL1   H25 6024   1.660   5.876   8.578  0.9121 -1.0322 -1.7497
   48CHL1   C26 6025   1.870   5.891   8.531  0.4777  0.8678  0.7135
   48CHL1  H26A 6026   1.850   5.862   8.426 -0.8018  1.3840  0.7890
   48CHL1  H26B 6027   1.894   5.999   8.544  1.3235  0.8528 -0.5904
   48CHL1  H26C 6028   1.963   5.841   8.565 -0.2252 -0.2966  0.9773
   48CHL1   C27 6029   1.753   5.686   8.588 -0.0460  0.5732  0.3441
   48CHL1  H27A 6030   1.753   5.656   8.481  1.1604 -2.6126  1.1451
   48CHL1  H27B 6031   1.830   5.627   8.642  1.2641  2.3269  0.4745
   48CHL1  H27C 6032   1.653   5.653   8.622 -0.6388  2.9146  1.0453
   49CHL1    C3 6033   0.242   1.184   9.839 -0.5613  0.4256  0.7606
   49CHL1    H3 6034   0.304   1.244   9.770  0.5591  0.3285  1.6638
   49CHL1    O3 6035   0.257   1.242   9.964  0.2497 -0.2017  0.3909
   49CHL1   H3' 6036   0.348   1.222   9.985  0.5261 -0.7409 -1.1781
   49CHL1    C4 6037   0.089   1.190   9.795 -0.3392  0.2092 -0.1514
   49CHL1   H4A 6038   0.024   1.148   9.874  2.7221 -1.3268  1.7134
   49CHL1   H4B 6039   0.068   1.299   9.789 -0.5476  0.1433 -0.7210
   49CHL1    C5 6040   0.068   1.122   9.661 -0.7561 -0.9316 -0.0735
   49CHL1    C6 6041  -0.007   1.189   9.573 -0.5339  0.4066  0.7254
   49CHL1    H6 6042  -0.049   1.288   9.595 -0.1038  1.3810 -2.3727
   49CHL1    C7 6043  -0.034   1.139   9.430 -0.8153 -0.0405 -0.1301
   49CHL1   H7A 6044  -0.142   1.152   9.408 -0.6774  3.5557  0.6588
   49CHL1   H7B 6045   0.026   1.198   9.358  0.1507 -0.2984  0.4401
   49CHL1    C8 6046   0.005   0.987   9.410  0.2683 -0.4333 -0.6201
   49CHL1    H8 6047  -0.070   0.919   9.457 -2.7459  2.0236 -1.5596
   49CHL1   C14 6048   0.017   0.965   9.258  0.4531  0.0332 -0.8502
   49CHL1   H14 6049   0.093   1.039   9.226  1.4812 -0.1158  1.0957
   49CHL1   C15 6050  -0.106   1.000   9.171 -0.1317 -0.5270  0.6657
   49CHL1  H15A 6051  -0.199   0.970   9.223  0.1720 -1.5003  0.6814
   49CHL1  H15B 6052  -0.116   1.109   9.155 -0.7312 -0.6307  0.3058
   49CHL1   C16 6053  -0.077   0.928   9.038  0.0120  0.3253  0.3142
   49CHL1  H16A 6054  -0.170   0.875   9.007  0.5265  0.4089 -1.4729
   49CHL1  H16B 6055  -0.055   1.006   8.963 -0.4572 -2.1812 -2.6191
   49CHL1   C17 6056   0.054   0.847   9.047  0.4558 -0.3526 -0.1518
   49CHL1   H17 6057   0.139   0.909   9.011  1.8649 -1.6058  0.8357
   49CHL1   C13 6058   0.067   0.834   9.208  0.5906 -0.1244 -0.2425
   49CHL1   C18 6059  -0.027   0.723   9.260  0.1366 -0.1497  0.0359
   49CHL1  H18A 6060  -0.044   0.728   9.370  3.2227  0.5749  0.5715
   49CHL1  H18B 6061  -0.126   0.741   9.213  1.4991  1.0997 -2.5791
   49CHL1  H18C 6062   0.001   0.618   9.234  0.3999 -0.1254  0.2209
   49CHL1   C12 6063   0.212   0.828   9.266 -0.9294  0.4799  0.0460
   49CHL1  H12A 6064   0.246   0.725   9.241 -0.1336  0.3246  1.6329
   49CHL1  H12B 6065   0.268   0.917   9.231 -0.9500  0.5126  0.0962
   49CHL1   C11 6066   0.217   0.837   9.418 -0.0823  0.2233  0.0980
   49CHL1  H11A 6067   0.167   0.741   9.445 -0.6496  0.0218 -1.5578
   49CHL1  H11B 6068   0.323   0.820   9.446  0.5288  0.0595 -2.1618
   49CHL1    C9 6069   0.145   0.974   9.469 -1.3971  0.3378  0.1722
   49CHL1    H9 6070   0.197   1.059   9.420 -0.4936 -1.5622 -2.4338
   49CHL1   C10 6071   0.141   0.990   9.628 -0.4879 -0.5162  0.4836
   49CHL1   C19 6072   0.063   0.871   9.689 -0.5208  0.1640  0.1148
   49CHL1  H19A 6073   0.042   0.884   9.797 -3.0114 -1.2220 -0.1057
   49CHL1  H19B 6074  -0.040   0.858   9.650 -0.2405  0.8053 -0.8647
   49CHL1  H19C 6075   0.117   0.776   9.667  0.5948  1.2843 -2.2789
   49CHL1    C1 6076   0.289   0.989   9.683 -0.6351 -0.5272 -0.1570
   49CHL1   H1A 6077   0.323   0.883   9.684  1.5430  0.1141  1.5329
   49CHL1   H1B 6078   0.362   1.039   9.615 -0.9111 -2.3743 -1.9239
   49CHL1    C2 6079   0.293   1.037   9.827  0.5890 -0.3981 -0.2235
   49CHL1   H2A 6080   0.400   1.047   9.857  1.2285 -1.2378 -2.0345
   49CHL1   H2B 6081   0.240   0.974   9.901  0.8394 -1.2049 -0.7146
   49CHL1   C20 6082   0.048   0.725   8.961 -0.2175  0.3380 -0.4954
   49CHL1   H20 6083  -0.022   0.648   9.000  0.5544  0.1802  0.6252
   49CHL1   C21 6084   0.182   0.655   8.977  0.1305  0.0247  0.4076
   49CHL1  H21A 6085   0.184   0.565   8.912 -0.4789  0.6211 -0.4729
   49CHL1  H21B 6086   0.205   0.626   9.081  0.2982 -0.0546  0.3485
   49CHL1  H21C 6087   0.262   0.720   8.935 -1.0281  0.8155 -0.6389
   49CHL1   C22 6088   0.012   0.755   8.813  0.6563  0.3661  1.0215
   49CHL1  H22A 6089  -0.073   0.825   8.798  1.7250  1.8411  1.6413
   49CHL1  H22B 6090   0.100   0.804   8.764 -0.8402  1.2754 -0.8826
   49CHL1   C23 6091  -0.009   0.619   8.738  0.3209 -0.8764  0.1848
   49CHL1  H23A 6092   0.087   0.572   8.708  0.0711 -0.5472 -1.1652
   49CHL1  H23B 6093  -0.047   0.551   8.818 -1.1938 -0.0779  0.1867
   49CHL1   C24 6094  -0.124   0.641   8.637 -0.2879 -0.5431 -0.3784
   49CHL1  H24A 6095  -0.159   0.541   8.601 -2.0054  0.0515 -0.4343
   49CHL1  H24B 6096  -0.212   0.686   8.689  1.6764  2.9784  0.1753
   49CHL1   C25 6097  -0.084   0.726   8.513  0.6014 -0.1042 -0.0859
   49CHL1   H25 6098  -0.043   0.823   8.547 -1.2477  0.5388  0.4205
   49CHL1   C26 6099   0.015   0.652   8.422  1.1228  0.5880  0.5338
   49CHL1  H26A 6100  -0.023   0.553   8.389  1.6423  0.0149  1.6066
   49CHL1  H26B 6101   0.031   0.716   8.333 -3.0853 -0.1001 -0.9526
   49CHL1  H26C 6102   0.107   0.637   8.482  1.6703  0.3994 -0.3444
   49CHL1   C27 6103  -0.206   0.754   8.430  0.0937 -0.5645 -0.3185
   49CHL1  H27A 6104  -0.288   0.774   8.503  0.7552  1.2154 -0.0143
   49CHL1  H27B 6105  -0.180   0.835   8.360  0.5296 -1.0950 -0.7741
   49CHL1  H27C 6106  -0.234   0.665   8.369  0.5484  0.5370 -2.1919
   50CHL1    C3 6107   1.649   2.488  10.011  0.1583  0.0664  0.1743
   50CHL1    H3 6108   1.546   2.453   9.989 -0.0020 -1.5161  3.0004
   50CHL1    O3 6109   1.660   2.533  10.147  0.1536 -0.7619  0.2938
   50CHL1   H3' 6110   1.584   2.495  10.193  1.6275 -1.7248  2.0588
   50CHL1    C4 6111   1.734   2.363   9.996 -0.1591  0.3236 -0.4675
   50CHL1   H4A 6112   1.839   2.374  10.033 -0.2806  0.4657 -0.1549
   50CHL1   H4B 6113   1.686   2.279  10.051  0.3381 -1.1700 -2.2260
   50CHL1    C5 6114   1.756   2.326   9.852 -0.4715 -0.0211 -0.4558
   50CHL1    C6 6115   1.715   2.204   9.807  0.0573 -0.2106 -0.2245
   50CHL1    H6 6116   1.687   2.126   9.880 -0.2857  1.0987  1.0757
   50CHL1    C7 6117   1.729   2.158   9.662  0.9366 -0.0110  0.4958
   50CHL1   H7A 6118   1.781   2.060   9.658  0.6429 -0.1446 -0.4471
   50CHL1   H7B 6119   1.628   2.153   9.615  0.2138 -2.4889  2.1217
   50CHL1    C8 6120   1.818   2.257   9.570 -0.0708  0.4693 -0.0509
   50CHL1    H8 6121   1.921   2.233   9.601  0.2862  1.3134 -0.5509
   50CHL1   C14 6122   1.783   2.232   9.423  0.0415 -0.4111  0.4023
   50CHL1   H14 6123   1.673   2.241   9.408 -0.2260 -0.5604  2.1269
   50CHL1   C15 6124   1.813   2.086   9.368 -0.0993 -0.4862 -0.0242
   50CHL1  H15A 6125   1.919   2.061   9.391 -0.5213 -0.0906  2.6768
   50CHL1  H15B 6126   1.758   2.001   9.415  1.3959  0.0903  3.0315
   50CHL1   C16 6127   1.796   2.105   9.218  0.2095  0.2404  0.0950
   50CHL1  H16A 6128   1.876   2.048   9.166  0.4321 -0.9816  1.6905
   50CHL1  H16B 6129   1.701   2.056   9.188 -0.8394  3.6755 -2.9684
   50CHL1   C17 6130   1.803   2.260   9.185 -0.0090  0.2952 -0.7057
   50CHL1   H17 6131   1.697   2.295   9.176  0.2589  0.9240 -1.6587
   50CHL1   C13 6132   1.850   2.321   9.319 -0.1101 -0.2385 -0.1884
   50CHL1   C18 6133   2.005   2.318   9.330 -0.6976 -0.4581  0.0101
   50CHL1  H18A 6134   2.045   2.215   9.320  1.7955  0.3118  1.2366
   50CHL1  H18B 6135   2.047   2.387   9.253 -0.1353 -2.0046 -1.1219
   50CHL1  H18C 6136   2.044   2.350   9.429 -1.2708 -2.7487  1.0442
   50CHL1   C12 6137   1.793   2.464   9.349 -0.5845  0.1513 -0.3102
   50CHL1  H12A 6138   1.837   2.542   9.283  0.8494 -0.7067 -0.4160
   50CHL1  H12B 6139   1.684   2.453   9.328 -0.1561 -3.8332 -1.3316
   50CHL1   C11 6140   1.818   2.510   9.493 -0.4000 -0.3354 -0.0590
   50CHL1  H11A 6141   1.928   2.526   9.495 -0.4167  0.6842 -3.0890
   50CHL1  H11B 6142   1.758   2.604   9.503 -0.9850 -0.7807  0.7838
   50CHL1    C9 6143   1.772   2.405   9.602  0.0915 -0.2601 -0.4018
   50CHL1    H9 6144   1.661   2.396   9.595 -0.0173  0.7201 -0.0884
   50CHL1   C10 6145   1.799   2.440   9.753 -0.8932  0.2435 -0.0943
   50CHL1   C19 6146   1.956   2.481   9.766  0.0533  0.4739  0.2899
   50CHL1  H19A 6147   1.977   2.496   9.874 -4.1079  0.2816  1.2619
   50CHL1  H19B 6148   2.015   2.395   9.727 -1.9022 -0.4203 -0.8111
   50CHL1  H19C 6149   1.980   2.569   9.702 -0.4025 -0.2294 -0.8711
   50CHL1    C1 6150   1.719   2.566   9.783  0.0712  0.5871 -0.4630
   50CHL1   H1A 6151   1.752   2.650   9.718  0.9126 -0.1849 -1.0544
   50CHL1   H1B 6152   1.611   2.559   9.755 -0.1265  2.7656 -0.4232
   50CHL1    C2 6153   1.705   2.602   9.933 -0.3595 -0.8768 -0.1961
   50CHL1   H2A 6154   1.633   2.685   9.948  1.4598  0.7552 -0.0924
   50CHL1   H2B 6155   1.803   2.637   9.971  2.0502 -2.8097 -4.0562
   50CHL1   C20 6156   1.885   2.285   9.056 -0.5952  0.3001 -0.2259
   50CHL1   H20 6157   1.989   2.251   9.077 -1.3435 -1.1387  1.3405
   50CHL1   C21 6158   1.901   2.435   9.018 -0.0727 -0.7612  0.3547
   50CHL1  H21A 6159   1.937   2.492   9.106 -1.2935  1.3281 -0.4314
   50CHL1  H21B 6160   1.817   2.483   8.964  0.4255  0.8839  0.9755
   50CHL1  H21C 6161   1.984   2.435   8.945 -1.2314 -0.8513 -1.0034
   50CHL1   C22 6162   1.837   2.208   8.931 -0.1124  0.0725 -0.1723
   50CHL1  H22A 6163   1.862   2.103   8.956  1.2149  0.7984  1.7580
   50CHL1  H22B 6164   1.728   2.221   8.911  0.4672  1.2138 -3.1371
   50CHL1   C23 6165   1.917   2.242   8.801  0.6545 -0.0122 -0.4656
   50CHL1  H23A 6166   1.906   2.343   8.757  1.0483 -1.0506 -3.1995
   50CHL1  H23B 6167   2.026   2.250   8.820  0.3214  1.3515  1.0982
   50CHL1   C24 6168   1.887   2.137   8.693  0.3585  0.2057  0.1099
   50CHL1  H24A 6169   1.947   2.048   8.721  2.8031  1.1170 -1.9539
   50CHL1  H24B 6170   1.780   2.106   8.683  0.0842  1.4381 -0.9789
   50CHL1   C25 6171   1.932   2.187   8.553  0.2673 -0.0350  0.3132
   50CHL1   H25 6172   1.903   2.102   8.487 -0.8767 -0.3844  1.2316
   50CHL1   C26 6173   1.844   2.308   8.512  0.6627 -0.6964  0.1995
   50CHL1  H26A 6174   1.737   2.289   8.531  0.2658  0.2362 -0.9260
   50CHL1  H26B 6175   1.886   2.399   8.561 -2.6114  1.8815 -1.3628
   50CHL1  H26C 6176   1.854   2.337   8.405  2.5425  2.4039  1.0726
   50CHL1   C27 6177   2.082   2.196   8.536 -0.5287 -0.2292  0.1661
   50CHL1  H27A 6178   2.134   2.098   8.541  0.6904  0.3425 -0.6210
   50CHL1  H27B 6179   2.109   2.227   8.433 -1.6639 -0.6339 -0.2622
   50CHL1  H27C 6180   2.131   2.261   8.612 -2.5515 -1.6501  2.8359
   51CHL1    C3 6181   4.501   5.111  10.069  0.3163 -0.2465  0.1895
   51CHL1    H3 6182   4.391   5.104  10.080  0.0803  0.9009 -1.1388
   51CHL1    O3 6183   4.574   5.161  10.186 -0.2079  0.1999  0.2859
   51CHL1   H3' 6184   4.668   5.143  10.178 -0.5321 -1.5168 -0.0906
   51CHL1    C4 6185   4.556   4.968  10.027 -0.3833  0.2656  0.2639
   51CHL1   H4A 6186   4.665   4.952  10.046 -0.5883 -1.4608  0.0919
   51CHL1   H4B 6187   4.515   4.894  10.099  1.2297 -0.8613  0.0782
   51CHL1    C5 6188   4.521   4.916   9.893 -0.4977 -0.2631  0.1703
   51CHL1    C6 6189   4.464   4.795   9.880  0.3346 -0.0311 -0.0243
   51CHL1    H6 6190   4.459   4.726   9.966 -2.1867  1.9672  1.6059
   51CHL1    C7 6191   4.419   4.746   9.750  0.0125  0.0019  0.0256
   51CHL1   H7A 6192   4.460   4.643   9.741 -0.7728 -0.2322 -1.1356
   51CHL1   H7B 6193   4.311   4.724   9.737 -0.2512  1.3478 -0.2198
   51CHL1    C8 6194   4.469   4.827   9.631 -0.8420 -0.0456 -0.1478
   51CHL1    H8 6195   4.577   4.802   9.624 -0.4038  1.5249  0.5131
   51CHL1   C14 6196   4.394   4.786   9.512  0.2081  0.8052  0.0343
   51CHL1   H14 6197   4.288   4.817   9.530 -0.0771  0.0114 -0.2146
   51CHL1   C15 6198   4.388   4.638   9.475  0.3803  0.0887  0.9307
   51CHL1  H15A 6199   4.492   4.598   9.482 -0.2437 -2.0205 -0.8414
   51CHL1  H15B 6200   4.327   4.568   9.535 -1.6025 -0.0355 -1.0862
   51CHL1   C16 6201   4.333   4.632   9.331 -0.7414 -0.6309  0.0764
   51CHL1  H16A 6202   4.404   4.581   9.263  1.1546 -0.1263  1.5647
   51CHL1  H16B 6203   4.229   4.595   9.320 -1.7029  0.4780  3.8575
   51CHL1   C17 6204   4.345   4.789   9.285  0.4193  0.6326  0.4427
   51CHL1   H17 6205   4.245   4.836   9.282  0.6464  1.3154  2.2757
   51CHL1   C13 6206   4.426   4.863   9.385 -0.0177  0.3900 -0.1620
   51CHL1   C18 6207   4.584   4.849   9.355 -0.3546  0.0257 -1.0807
   51CHL1  H18A 6208   4.614   4.747   9.324  1.6204  0.3663 -0.4581
   51CHL1  H18B 6209   4.627   4.917   9.278  0.9161 -0.6078 -0.9516
   51CHL1  H18C 6210   4.634   4.878   9.450 -1.8273 -2.0708  0.4265
   51CHL1   C12 6211   4.380   5.007   9.410 -0.0595  0.3859 -1.0182
   51CHL1  H12A 6212   4.400   5.076   9.324 -1.0691  1.8574 -0.1111
   51CHL1  H12B 6213   4.272   5.013   9.433  0.2188 -1.8770  1.2518
   51CHL1   C11 6214   4.461   5.063   9.528  0.1681  0.0556  0.1906
   51CHL1  H11A 6215   4.568   5.076   9.499 -0.4931  1.5381 -1.8770
   51CHL1  H11B 6216   4.422   5.164   9.552 -2.2393 -1.2403  2.1998
   51CHL1    C9 6217   4.449   4.973   9.655 -0.9572 -0.2933  0.2154
   51CHL1    H9 6218   4.344   4.988   9.689 -0.3701  0.0071  1.9891
   51CHL1   C10 6219   4.529   5.021   9.783 -0.0738  0.2011  0.6714
   51CHL1   C19 6220   4.678   5.031   9.742  0.0283 -0.4363  0.6844
   51CHL1  H19A 6221   4.744   5.065   9.825  2.5308  0.1751 -1.4011
   51CHL1  H19B 6222   4.726   4.937   9.705  0.3398 -0.6395  1.5966
   51CHL1  H19C 6223   4.684   5.105   9.659 -0.8790 -2.3321 -1.1751
   51CHL1    C1 6224   4.475   5.166   9.825  0.2383  0.1253 -0.1712
   51CHL1   H1A 6225   4.504   5.235   9.742 -1.1866 -0.2800 -1.0467
   51CHL1   H1B 6226   4.364   5.170   9.820  0.2560  2.2366  0.1547
   51CHL1    C2 6227   4.530   5.213   9.957  0.1818  0.1965 -0.3648
   51CHL1   H2A 6228   4.484   5.312   9.980 -2.9757 -1.1280 -0.5576
   51CHL1   H2B 6229   4.637   5.234   9.938  0.0159  0.7616 -0.6998
   51CHL1   C20 6230   4.384   4.792   9.131 -0.2631  0.3017  0.8785
   51CHL1   H20 6231   4.479   4.735   9.121 -0.6603 -0.3790  0.8735
   51CHL1   C21 6232   4.406   4.936   9.082  1.3109 -0.0132  0.7957
   51CHL1  H21A 6233   4.478   4.991   9.147  0.1928 -1.9934  3.9795
   51CHL1  H21B 6234   4.308   4.982   9.107  1.5427  0.5190  0.7493
   51CHL1  H21C 6235   4.435   4.950   8.976  1.1745  1.0019  0.8800
   51CHL1   C22 6236   4.274   4.722   9.045  0.0381  0.7340 -0.1636
   51CHL1  H22A 6237   4.256   4.617   9.078 -1.0729  1.0177  0.1794
   51CHL1  H22B 6238   4.178   4.776   9.058  0.8993  1.7789  2.3727
   51CHL1   C23 6239   4.307   4.712   8.898  0.1349  0.5690  0.6223
   51CHL1  H23A 6240   4.331   4.813   8.858 -1.9676  0.6623 -0.5788
   51CHL1  H23B 6241   4.397   4.651   8.873  1.6633  3.4084 -1.4585
   51CHL1   C24 6242   4.189   4.642   8.814  0.3989 -0.3178 -0.0335
   51CHL1  H24A 6243   4.174   4.547   8.870  1.4892 -1.4392 -1.5813
   51CHL1  H24B 6244   4.098   4.704   8.830  0.4986 -0.2230  0.1737
   51CHL1   C25 6245   4.211   4.617   8.663 -0.3216  0.2664 -0.1740
   51CHL1   H25 6246   4.304   4.556   8.661 -1.2677 -1.2215 -1.5692
   51CHL1   C26 6247   4.101   4.543   8.598  0.3452  0.0248 -0.4399
   51CHL1  H26A 6248   4.001   4.591   8.599  0.0098 -0.6746 -0.1777
   51CHL1  H26B 6249   4.124   4.536   8.489  1.3707  5.0908 -0.8028
   51CHL1  H26C 6250   4.089   4.446   8.650 -1.5081 -1.1797 -2.8976
   51CHL1   C27 6251   4.235   4.756   8.589  0.5956 -0.3397 -0.0354
   51CHL1  H27A 6252   4.151   4.823   8.615 -1.8846 -2.7598 -1.2935
   51CHL1  H27B 6253   4.335   4.792   8.624  0.3772  0.0004  0.2496
   51CHL1  H27C 6254   4.239   4.748   8.479  0.7023  0.6349 -0.1103
   52CHL1    C3 6255   1.048   4.661   9.927 -0.0896 -0.2079  0.1082
   52CHL1    H3 6256   1.151   4.699   9.911 -0.2486  1.5974  2.7021
   52CHL1    O3 6257   1.015   4.663  10.069 -0.5349 -0.3406  0.4083
   52CHL1   H3' 6258   0.923   4.635  10.070 -0.4463 -1.1050 -2.4854
   52CHL1    C4 6259   0.957   4.759   9.861 -0.8092 -0.2876 -0.4883
   52CHL1   H4A 6260   0.851   4.727   9.867 -0.3129 -1.7717  2.6341
   52CHL1   H4B 6261   0.976   4.853   9.918  0.2595 -0.8008  0.0367
   52CHL1    C5 6262   0.984   4.768   9.715  0.2421 -0.4888  0.2454
   52CHL1    C6 6263   1.005   4.887   9.659 -0.2492  0.1614 -0.0232
   52CHL1    H6 6264   1.023   4.969   9.729 -0.8369  0.0804  0.2263
   52CHL1    C7 6265   1.027   4.910   9.510 -0.1775 -0.1933 -0.3322
   52CHL1   H7A 6266   0.960   4.995   9.481 -1.1769 -1.2189 -1.1444
   52CHL1   H7B 6267   1.134   4.940   9.503 -0.0331  0.0154  2.1393
   52CHL1    C8 6268   1.013   4.782   9.424  0.0347  0.1594  0.4724
   52CHL1    H8 6269   0.904   4.770   9.406  0.0836  0.6607 -0.2190
   52CHL1   C14 6270   1.086   4.793   9.291  0.0838 -0.3260  0.3321
   52CHL1   H14 6271   1.196   4.796   9.306  0.5038 -1.1102 -2.1137
   52CHL1   C15 6272   1.056   4.918   9.199  0.5753 -0.2419 -0.3306
   52CHL1  H15A 6273   0.946   4.936   9.201  0.5176 -0.4645 -1.0539
   52CHL1  H15B 6274   1.115   4.996   9.252 -0.4764  0.7146 -0.5124
   52CHL1   C16 6275   1.114   4.873   9.059 -0.1577 -0.3568  0.0036
   52CHL1  H16A 6276   1.030   4.884   8.987 -0.4961  1.0606  0.5888
   52CHL1  H16B 6277   1.202   4.934   9.032 -0.5806  0.3852  0.2709
   52CHL1   C17 6278   1.153   4.722   9.077  0.3731 -0.0390  0.3624
   52CHL1   H17 6279   1.260   4.716   9.105  0.5428  0.1115 -0.2347
   52CHL1   C13 6280   1.070   4.674   9.191 -0.1883 -0.3474 -0.2799
   52CHL1   C18 6281   0.927   4.646   9.148  0.1898  1.1684  0.2844
   52CHL1  H18A 6282   0.883   4.725   9.084 -2.7516 -0.1235  0.5715
   52CHL1  H18B 6283   0.939   4.548   9.097  0.9117  1.6315 -0.4815
   52CHL1  H18C 6284   0.860   4.645   9.236 -0.4465  1.1989 -0.1969
   52CHL1   C12 6285   1.131   4.554   9.270 -0.3985 -0.1552  0.6186
   52CHL1  H12A 6286   1.138   4.460   9.212 -0.7628  0.5659 -0.6399
   52CHL1  H12B 6287   1.239   4.571   9.292  0.6317 -2.0710 -2.3435
   52CHL1   C11 6288   1.040   4.528   9.396  0.0900 -0.5843 -0.5040
   52CHL1  H11A 6289   0.942   4.491   9.359  1.1935 -1.3735 -2.7762
   52CHL1  H11B 6290   1.093   4.440   9.438  2.8644  0.0507 -2.3839
   52CHL1    C9 6291   1.045   4.652   9.496 -0.0521 -0.2465  1.1718
   52CHL1    H9 6292   1.150   4.673   9.525 -0.1811  1.2858  0.5878
   52CHL1   C10 6293   0.975   4.632   9.633  0.8748 -0.4363  0.2770
   52CHL1   C19 6294   0.820   4.599   9.617 -0.5984 -0.1052  0.4616
   52CHL1  H19A 6295   0.789   4.585   9.723  1.9913 -0.1117  1.2874
   52CHL1  H19B 6296   0.770   4.679   9.559  1.8044  0.8961 -0.3634
   52CHL1  H19C 6297   0.800   4.502   9.567 -1.1537  1.0928 -1.7789
   52CHL1    C1 6298   1.050   4.521   9.711 -0.4067 -0.4441  0.5071
   52CHL1   H1A 6299   1.017   4.420   9.676 -1.1578 -0.6153  1.6394
   52CHL1   H1B 6300   1.160   4.532   9.704  0.0093 -3.7699 -0.3393
   52CHL1    C2 6301   1.022   4.522   9.868 -0.1335 -0.7740  0.3950
   52CHL1   H2A 6302   1.098   4.451   9.907  1.6288  0.7060 -0.1790
   52CHL1   H2B 6303   0.914   4.498   9.879 -1.2529  3.1932 -0.0182
   52CHL1   C20 6304   1.152   4.656   8.938 -0.3229 -0.0616 -0.5589
   52CHL1   H20 6305   1.045   4.643   8.911 -1.2958  0.3680  2.6595
   52CHL1   C21 6306   1.233   4.528   8.947  0.3100 -0.5103  0.7471
   52CHL1  H21A 6307   1.210   4.452   9.025 -0.6953  1.5291  2.5338
   52CHL1  H21B 6308   1.342   4.549   8.945  0.2302 -0.1422 -0.1242
   52CHL1  H21C 6309   1.217   4.468   8.855 -1.2109  0.0763  0.5960
   52CHL1   C22 6310   1.198   4.756   8.824 -1.0128 -0.0042  0.5060
   52CHL1  H22A 6311   1.110   4.818   8.794 -1.6784 -0.5544  1.2629
   52CHL1  H22B 6312   1.286   4.808   8.866  0.4716 -2.4729  0.6424
   52CHL1   C23 6313   1.238   4.687   8.695 -0.1932  0.0004  0.3378
   52CHL1  H23A 6314   1.252   4.766   8.618 -1.0062 -0.3374 -0.1682
   52CHL1  H23B 6315   1.330   4.626   8.695  0.6839  1.2529 -0.9356
   52CHL1   C24 6316   1.120   4.612   8.635 -0.7748  0.1699  0.1019
   52CHL1  H24A 6317   1.061   4.544   8.701  0.5718  0.0568  1.2469
   52CHL1  H24B 6318   1.057   4.699   8.606 -1.7170 -0.1081  1.2145
   52CHL1   C25 6319   1.166   4.534   8.503  0.2276 -0.2675 -0.6844
   52CHL1   H25 6320   1.225   4.602   8.437 -0.1834  2.1825  1.3020
   52CHL1   C26 6321   1.257   4.411   8.539  0.9502  0.0576 -0.0641
   52CHL1  H26A 6322   1.307   4.380   8.444  0.7728 -0.4133 -0.0091
   52CHL1  H26B 6323   1.326   4.419   8.625  1.6167 -1.4416 -0.4224
   52CHL1  H26C 6324   1.191   4.325   8.564  0.4665  0.3300 -0.3674
   52CHL1   C27 6325   1.047   4.491   8.420 -0.0048  0.0773  0.0383
   52CHL1  H27A 6326   0.981   4.406   8.449 -0.3230  0.5056  0.5769
   52CHL1  H27B 6327   0.988   4.585   8.423  0.2198  0.1939  1.7204
   52CHL1  H27C 6328   1.086   4.475   8.317  1.3395 -1.0764  0.6991
   53CHL1    C3 6329   1.587   3.702   9.850 -0.3744  0.4277 -0.7688
   53CHL1    H3 6330   1.686   3.652   9.861 -0.8551 -0.5726 -0.8704
   53CHL1    O3 6331   1.525   3.689   9.976  0.3675 -0.4210 -0.6117
   53CHL1   H3' 6332   1.547   3.769  10.025  1.2623  0.2181 -1.9813
   53CHL1    C4 6333   1.589   3.851   9.812 -0.4879 -0.6369  0.7080
   53CHL1   H4A 6334   1.485   3.888   9.822 -0.2975  0.3381 -0.6288
   53CHL1   H4B 6335   1.642   3.908   9.890 -0.6569 -1.2226  1.2604
   53CHL1    C5 6336   1.646   3.872   9.674  1.3749 -0.5939  0.0340
   53CHL1    C6 6337   1.741   3.958   9.654 -0.5323 -0.6001  0.9937
   53CHL1    H6 6338   1.783   4.022   9.733  0.4662  2.3321 -1.7262
   53CHL1    C7 6339   1.805   3.982   9.516  0.3575  1.0402 -0.4371
   53CHL1   H7A 6340   1.824   4.091   9.500  2.1813  1.2986  2.7391
   53CHL1   H7B 6341   1.906   3.937   9.508 -0.4863 -1.1839  0.6225
   53CHL1    C8 6342   1.722   3.919   9.395  0.0723 -0.0869 -0.1875
   53CHL1    H8 6343   1.636   3.988   9.385 -0.7637 -1.2548 -1.3061
   53CHL1   C14 6344   1.807   3.908   9.268  0.6043 -0.0692 -0.0244
   53CHL1   H14 6345   1.893   3.842   9.294  0.4950 -0.5462 -0.8242
   53CHL1   C15 6346   1.869   4.045   9.227  0.3393 -0.1884  0.4410
   53CHL1  H15A 6347   1.798   4.129   9.212  1.8748  1.0498 -0.2108
   53CHL1  H15B 6348   1.963   4.068   9.282  0.0100  2.8248 -0.0857
   53CHL1   C16 6349   1.914   4.009   9.086  0.0217  0.2297 -0.3165
   53CHL1  H16A 6350   1.868   4.085   9.020 -0.8390  0.4389  0.5050
   53CHL1  H16B 6351   2.025   4.015   9.085 -0.0134  2.0787  1.3616
   53CHL1   C17 6352   1.856   3.872   9.040  0.1616 -0.0338  0.1805
   53CHL1   H17 6353   1.935   3.798   9.065 -1.1318 -1.5340 -0.0030
   53CHL1   C13 6354   1.736   3.854   9.139  0.4219  1.1313 -0.2782
   53CHL1   C18 6355   1.619   3.951   9.096 -0.2695 -0.3616  0.6595
   53CHL1  H18A 6356   1.589   3.927   8.992 -1.1661 -0.2282  0.8719
   53CHL1  H18B 6357   1.521   3.933   9.147 -1.3012  2.6437 -0.0697
   53CHL1  H18C 6358   1.653   4.056   9.102  1.2141 -0.8277  0.7718
   53CHL1   C12 6359   1.692   3.711   9.188  0.2805 -0.2190  0.5383
   53CHL1  H12A 6360   1.641   3.647   9.112 -0.9923 -0.0364  1.2054
   53CHL1  H12B 6361   1.782   3.649   9.202  0.2767 -1.7035 -4.2264
   53CHL1   C11 6362   1.597   3.710   9.314 -0.6677  0.0614 -0.0101
   53CHL1  H11A 6363   1.504   3.763   9.284 -0.8704 -1.3056 -1.9423
   53CHL1  H11B 6364   1.579   3.603   9.338  1.0703 -0.1958  0.2611
   53CHL1    C9 6365   1.662   3.782   9.437  0.6791  0.4356 -0.4115
   53CHL1    H9 6366   1.750   3.717   9.458  0.3663 -0.5117 -1.8537
   53CHL1   C10 6367   1.577   3.784   9.564  0.0102 -0.1357 -0.1232
   53CHL1   C19 6368   1.439   3.844   9.536  0.1607 -0.0150 -0.4314
   53CHL1  H19A 6369   1.438   3.944   9.487 -1.2459  1.2506  1.9266
   53CHL1  H19B 6370   1.385   3.769   9.474  0.5622 -0.8958  0.2607
   53CHL1  H19C 6371   1.385   3.861   9.632 -0.5694  0.5839 -0.9350
   53CHL1    C1 6372   1.556   3.634   9.611 -0.0383  0.1404 -0.1172
   53CHL1   H1A 6373   1.481   3.584   9.547 -0.1138 -1.6798  1.3294
   53CHL1   H1B 6374   1.656   3.585   9.608  0.0700  0.3505 -3.1534
   53CHL1    C2 6375   1.505   3.623   9.750  0.2901 -0.4133  0.2391
   53CHL1   H2A 6376   1.481   3.518   9.778 -0.2753 -1.1591 -2.7140
   53CHL1   H2B 6377   1.406   3.675   9.748  0.9118  0.7828 -1.0511
   53CHL1   C20 6378   1.835   3.848   8.885  0.3282 -0.4171 -0.5613
   53CHL1   H20 6379   1.752   3.908   8.841  0.4506  0.9943  1.0138
   53CHL1   C21 6380   1.799   3.693   8.878 -0.1299 -0.0677  1.0890
   53CHL1  H21A 6381   1.691   3.690   8.905  0.0289  2.6623  2.4212
   53CHL1  H21B 6382   1.865   3.634   8.945 -0.1408 -2.2336 -0.7151
   53CHL1  H21C 6383   1.809   3.645   8.778 -1.6007 -0.8664  1.3021
   53CHL1   C22 6384   1.951   3.881   8.794  0.7944 -0.2433 -0.4364
   53CHL1  H22A 6385   1.927   3.836   8.695  0.8998  0.4456 -0.7796
   53CHL1  H22B 6386   1.956   3.992   8.788  0.0939 -0.1211  0.8046
   53CHL1   C23 6387   2.086   3.824   8.833 -0.8225  0.0088 -0.0048
   53CHL1  H23A 6388   2.125   3.849   8.934  1.5569 -3.3142  0.0570
   53CHL1  H23B 6389   2.088   3.714   8.818  0.7493  0.2562 -2.1322
   53CHL1   C24 6390   2.197   3.865   8.740 -0.0238 -0.2541 -0.0613
   53CHL1  H24A 6391   2.168   3.834   8.638 -2.5973  1.3449  0.1117
   53CHL1  H24B 6392   2.207   3.976   8.737 -0.6169 -0.1992 -2.7118
   53CHL1   C25 6393   2.336   3.807   8.774 -0.2224 -0.7259  0.4496
   53CHL1   H25 6394   2.323   3.697   8.785  0.5488 -0.6826  1.9894
   53CHL1   C26 6395   2.431   3.828   8.659  0.6484 -0.2594  0.4306
   53CHL1  H26A 6396   2.521   3.765   8.674  1.1085  0.7524  2.3461
   53CHL1  H26B 6397   2.387   3.807   8.559  1.6024  1.6688 -0.4365
   53CHL1  H26C 6398   2.469   3.931   8.643 -0.4539 -0.1397 -1.7947
   53CHL1   C27 6399   2.393   3.872   8.900 -0.1216  0.5780 -0.4005
   53CHL1  H27A 6400   2.346   3.835   8.993  1.3518  1.1580  0.6188
   53CHL1  H27B 6401   2.504   3.866   8.911  0.1068 -3.9812 -2.5733
   53CHL1  H27C 6402   2.359   3.977   8.909 -2.2859 -0.2669  3.2925
   54CHL1    C3 6403   1.018   6.276  10.016 -0.1819  0.3320  0.3490
   54CHL1    H3 6404   1.101   6.206   9.992  0.6735  1.1231  0.9476
   54CHL1    O3 6405   1.005   6.316  10.157  0.1202 -0.6167 -0.2122
   54CHL1   H3' 6406   1.012   6.411  10.168 -2.1116 -0.3899 -0.3041
   54CHL1    C4 6407   1.037   6.398   9.933 -0.0526 -0.9028 -0.1623
   54CHL1   H4A 6408   0.952   6.467   9.954  1.0239 -0.1426  1.9645
   54CHL1   H4B 6409   1.126   6.456   9.966 -0.3162 -0.2436 -0.5836
   54CHL1    C5 6410   1.047   6.370   9.787 -0.0078  0.7391 -0.4269
   54CHL1    C6 6411   1.149   6.415   9.714  0.8927  0.1221  1.2712
   54CHL1    H6 6412   1.225   6.480   9.759  0.6739  0.5926  0.9711
   54CHL1    C7 6413   1.156   6.404   9.563 -0.1076 -0.4914  0.4040
   54CHL1   H7A 6414   1.163   6.507   9.522 -1.0216 -1.8906 -3.7756
   54CHL1   H7B 6415   1.247   6.349   9.530 -0.5125 -1.5410  0.9883
   54CHL1    C8 6416   1.031   6.333   9.503  0.8246 -0.1786 -0.6408
   54CHL1    H8 6417   0.953   6.409   9.480  2.8889  1.9578 -0.9311
   54CHL1   C14 6418   1.068   6.277   9.371 -0.3655  0.2424  0.3276
   54CHL1   H14 6419   1.154   6.211   9.394 -0.1843 -0.6019 -2.4038
   54CHL1   C15 6420   1.126   6.375   9.266  0.7517  0.0185  0.7858
   54CHL1  H15A 6421   1.062   6.465   9.251  0.8795 -0.0942 -0.5153
   54CHL1  H15B 6422   1.233   6.400   9.283  0.5745  1.9059 -0.5878
   54CHL1   C16 6423   1.121   6.291   9.134  0.0271  0.6466  0.1156
   54CHL1  H16A 6424   1.067   6.349   9.056 -1.2610 -0.7030 -0.0391
   54CHL1  H16B 6425   1.226   6.278   9.098  0.2075  0.1422  0.8019
   54CHL1   C17 6426   1.042   6.162   9.160 -0.2657  0.0289  0.5077
   54CHL1   H17 6427   1.121   6.088   9.184 -0.6649 -0.3651  0.6266
   54CHL1   C13 6428   0.972   6.187   9.299  0.8528 -0.0742 -0.5960
   54CHL1   C18 6429   0.843   6.266   9.267  0.2037 -0.0322 -0.4662
   54CHL1  H18A 6430   0.871   6.363   9.220 -0.9189  0.6962  0.3337
   54CHL1  H18B 6431   0.762   6.206   9.221  1.1596 -2.0875  0.3725
   54CHL1  H18C 6432   0.806   6.301   9.366  3.3727 -0.5114  1.0400
   54CHL1   C12 6433   0.938   6.069   9.389  0.2906  0.0108  0.0764
   54CHL1  H12A 6434   0.847   6.023   9.343  0.3266  0.8103 -0.8139
   54CHL1  H12B 6435   1.020   5.994   9.387  0.4495  0.0753  2.1679
   54CHL1   C11 6436   0.896   6.111   9.533 -0.3816 -1.0107  0.0392
   54CHL1  H11A 6437   0.800   6.165   9.520  0.9590  1.2705 -1.0024
   54CHL1  H11B 6438   0.872   6.022   9.595 -0.2393 -1.9436 -1.2053
   54CHL1    C9 6439   0.983   6.224   9.600 -0.3875  1.0413  0.7598
   54CHL1    H9 6440   1.075   6.167   9.623 -1.4634 -0.7744  0.7209
   54CHL1   C10 6441   0.939   6.280   9.736  0.9498 -0.0895 -0.6522
   54CHL1   C19 6442   0.813   6.374   9.715 -0.0170 -0.2670 -0.0243
   54CHL1  H19A 6443   0.726   6.310   9.688 -0.2040  1.0715 -2.9419
   54CHL1  H19B 6444   0.786   6.414   9.815  0.4431  2.5595 -0.9512
   54CHL1  H19C 6445   0.821   6.456   9.640  0.4060 -2.7201 -2.8793
   54CHL1    C1 6446   0.906   6.160   9.828 -0.1303  0.2775 -0.0715
   54CHL1   H1A 6447   0.820   6.103   9.788  0.2074  1.0011 -1.9619
   54CHL1   H1B 6448   0.993   6.091   9.833 -1.0424 -0.8978  0.0290
   54CHL1    C2 6449   0.889   6.207   9.975 -0.3821 -0.3420  0.1878
   54CHL1   H2A 6450   0.865   6.115  10.032 -0.8433 -0.7617 -0.6612
   54CHL1   H2B 6451   0.803   6.277   9.984  1.0757  1.8341 -1.7696
   54CHL1   C20 6452   0.958   6.120   9.040 -0.5276  0.3239 -0.0164
   54CHL1   H20 6453   0.873   6.190   9.023 -0.9376 -0.1783 -0.0706
   54CHL1   C21 6454   0.910   5.971   9.062 -0.1148 -0.0367  0.3867
   54CHL1  H21A 6455   0.995   5.899   9.070 -1.0121 -1.1046  0.6006
   54CHL1  H21B 6456   0.849   5.934   8.976  2.1412 -0.7192 -1.0193
   54CHL1  H21C 6457   0.840   5.962   9.147 -0.1031  1.0837  0.5213
   54CHL1   C22 6458   1.032   6.122   8.903 -0.6926  0.4521 -0.7875
   54CHL1  H22A 6459   1.098   6.211   8.899  0.5046 -0.1030  2.9045
   54CHL1  H22B 6460   1.098   6.033   8.902 -1.7017 -0.4479  2.0887
   54CHL1   C23 6461   0.943   6.103   8.774 -0.0518  0.3606 -0.4933
   54CHL1  H23A 6462   0.882   6.012   8.792 -0.7769  0.7196 -1.1343
   54CHL1  H23B 6463   0.876   6.188   8.751 -0.8349 -0.6975 -2.3618
   54CHL1   C24 6464   1.026   6.072   8.652 -0.0313  0.5387 -0.0198
   54CHL1  H24A 6465   1.106   6.148   8.641  0.8847 -0.2817  0.8258
   54CHL1  H24B 6466   1.069   5.971   8.672 -3.4338 -1.0415  0.1275
   54CHL1   C25 6467   0.939   6.064   8.522 -0.7972 -0.0084 -0.2581
   54CHL1   H25 6468   0.846   6.005   8.541 -0.5567 -0.1315  0.5651
   54CHL1   C26 6469   0.882   6.211   8.492  0.1866 -0.4317 -0.1209
   54CHL1  H26A 6470   0.806   6.253   8.562 -0.6159 -0.0729 -1.1755
   54CHL1  H26B 6471   0.968   6.281   8.483 -2.1596  2.6317 -0.5331
   54CHL1  H26C 6472   0.817   6.189   8.404 -0.9448  4.2137 -0.6802
   54CHL1   C27 6473   1.011   6.004   8.399  0.3192  0.6563  0.1458
   54CHL1  H27A 6474   1.039   5.898   8.418  2.1151  0.4513 -2.9771
   54CHL1  H27B 6475   0.943   5.998   8.311 -1.7131  1.6129  1.5939
   54CHL1  H27C 6476   1.109   6.051   8.374  1.6272 -2.2322 -0.6926
   55CHL1    C3 6477   1.915   1.359  10.128 -0.5467 -0.7799  0.4188
   55CHL1    H3 6478   1.969   1.452  10.097 -0.4499 -0.3363  1.8515
   55CHL1    O3 6479   1.845   1.393  10.245 -0.1192 -0.1356  0.3743
   55CHL1   H3' 6480   1.897   1.353  10.316 -1.0302 -1.6255  0.2533
   55CHL1    C4 6481   1.818   1.301  10.023  0.1817 -0.2570 -0.0872
   55CHL1   H4A 6482   1.753   1.222  10.068  2.7984 -2.3192  0.2729
   55CHL1   H4B 6483   1.755   1.389   9.996  1.8031  0.7680 -0.7040
   55CHL1    C5 6484   1.887   1.237   9.904 -0.8661 -0.7670  0.2911
   55CHL1    C6 6485   1.863   1.280   9.779  0.1319  0.2648  0.5189
   55CHL1    H6 6486   1.793   1.362   9.756  1.4074  0.9332 -1.1216
   55CHL1    C7 6487   1.923   1.221   9.654 -0.7240 -0.1658 -0.7582
   55CHL1   H7A 6488   1.854   1.222   9.567 -1.6589  0.1303 -0.0240
   55CHL1   H7B 6489   2.012   1.283   9.626 -1.7115  1.0904 -1.2032
   55CHL1    C8 6490   1.977   1.081   9.688 -0.2502  0.2139  0.3057
   55CHL1    H8 6491   1.884   1.021   9.703  0.6092 -0.8942  1.4387
   55CHL1   C14 6492   2.060   1.027   9.574  0.2478 -0.1576  0.0202
   55CHL1   H14 6493   2.154   1.087   9.570  0.8330 -0.9020  1.6873
   55CHL1   C15 6494   2.012   1.026   9.422 -0.9493 -0.1139 -0.0136
   55CHL1  H15A 6495   1.910   0.987   9.404 -1.5858  1.1520  0.7650
   55CHL1  H15B 6496   2.030   1.125   9.375 -0.3098 -0.0906  0.2578
   55CHL1   C16 6497   2.112   0.928   9.347  0.3776  0.1244 -0.8831
   55CHL1  H16A 6498   2.056   0.845   9.299 -2.1357  0.7550  0.7679
   55CHL1  H16B 6499   2.173   0.985   9.273  1.7199 -0.7166 -0.4724
   55CHL1   C17 6500   2.207   0.870   9.455 -0.2433  0.5206 -0.3714
   55CHL1   H17 6501   2.290   0.942   9.465 -0.2992  0.6727 -0.9420
   55CHL1   C13 6502   2.123   0.886   9.589  0.3450  0.3352  0.2321
   55CHL1   C18 6503   2.011   0.782   9.596  0.4225  0.0291  0.6727
   55CHL1  H18A 6504   1.952   0.777   9.502 -1.3040 -0.3954  1.7353
   55CHL1  H18B 6505   2.053   0.681   9.615  2.7304  0.9055  0.5636
   55CHL1  H18C 6506   1.940   0.818   9.672 -0.5967 -0.1134 -0.1905
   55CHL1   C12 6507   2.201   0.883   9.725  0.1657 -0.1155 -0.3100
   55CHL1  H12A 6508   2.241   0.783   9.755  1.6284  1.1668  2.3988
   55CHL1  H12B 6509   2.280   0.961   9.717 -1.6230  1.7655 -0.2766
   55CHL1   C11 6510   2.119   0.933   9.844  0.9202 -0.2821  0.9163
   55CHL1  H11A 6511   2.038   0.858   9.860 -0.0052  0.2845 -0.7569
   55CHL1  H11B 6512   2.184   0.934   9.934  1.9351  2.0817  0.2484
   55CHL1    C9 6513   2.056   1.077   9.817  0.0173  0.1225 -0.6544
   55CHL1    H9 6514   2.137   1.146   9.786  0.1235  0.9596  1.3335
   55CHL1   C10 6515   1.984   1.125   9.941 -0.3615  0.2483  0.3846
   55CHL1   C19 6516   1.899   1.013  10.000 -0.2909  0.3699 -0.3132
   55CHL1  H19A 6517   1.817   0.984   9.932 -0.0133  1.5747 -1.1877
   55CHL1  H19B 6518   1.969   0.935  10.038 -0.9529 -0.1600 -0.1721
   55CHL1  H19C 6519   1.843   1.047  10.090  0.1148  2.3929 -0.7637
   55CHL1    C1 6520   2.087   1.176  10.041  0.9422 -1.0363 -0.3541
   55CHL1   H1A 6521   2.150   1.093  10.078 -1.9978 -2.6094  1.4673
   55CHL1   H1B 6522   2.152   1.240   9.978  0.3828  0.7366  0.7854
   55CHL1    C2 6523   2.020   1.249  10.164 -0.5750 -0.4037 -0.2274
   55CHL1   H2A 6524   2.096   1.303  10.224  0.0107 -0.0393 -1.2723
   55CHL1   H2B 6525   1.965   1.171  10.222  1.1946 -1.3097  0.3125
   55CHL1   C20 6526   2.268   0.737   9.417  0.0536  0.0993 -0.4003
   55CHL1   H20 6527   2.201   0.648   9.422  2.5879 -1.8996 -0.1211
   55CHL1   C21 6528   2.374   0.713   9.524 -0.1664  0.2685 -0.1437
   55CHL1  H21A 6529   2.455   0.648   9.484  2.3564  2.4221  1.0671
   55CHL1  H21B 6530   2.339   0.674   9.621  1.5629 -0.5568  0.1917
   55CHL1  H21C 6531   2.434   0.806   9.541  0.0018  0.4452 -1.5301
   55CHL1   C22 6532   2.338   0.740   9.279  1.0980  0.6220  0.1533
   55CHL1  H22A 6533   2.368   0.634   9.262  1.8643  0.8060  0.3714
   55CHL1  H22B 6534   2.261   0.768   9.203  1.2747 -0.3496 -0.4054
   55CHL1   C23 6535   2.457   0.832   9.262  0.1753 -0.2437 -0.2716
   55CHL1  H23A 6536   2.420   0.937   9.253 -0.8358 -0.7427 -2.2033
   55CHL1  H23B 6537   2.528   0.822   9.347  2.3346  2.1732 -1.6303
   55CHL1   C24 6538   2.544   0.799   9.142  0.1760 -0.0701 -0.0292
   55CHL1  H24A 6539   2.632   0.866   9.137 -1.3524  2.0834  0.3551
   55CHL1  H24B 6540   2.575   0.694   9.161  0.2293  0.3751  2.7958
   55CHL1   C25 6541   2.473   0.809   9.003 -0.0412 -0.4841  1.4112
   55CHL1   H25 6542   2.381   0.746   8.997 -0.1798 -0.3532  2.0223
   55CHL1   C26 6543   2.439   0.954   8.972 -0.0270 -0.0033 -0.4820
   55CHL1  H26A 6544   2.375   1.001   9.050  1.5683  2.9175 -0.7987
   55CHL1  H26B 6545   2.536   1.007   8.967  1.4691 -2.5328 -0.0793
   55CHL1  H26C 6546   2.387   0.963   8.874  0.6486  0.5582 -0.7950
   55CHL1   C27 6547   2.567   0.738   8.898  1.1386 -1.0974  0.0843
   55CHL1  H27A 6548   2.648   0.812   8.878 -0.2489 -0.2193 -2.6947
   55CHL1  H27B 6549   2.596   0.641   8.944 -0.9675 -1.7517  0.1174
   55CHL1  H27C 6550   2.518   0.722   8.800 -0.8016  1.1951  0.5923
   56CHL1    C3 6551   0.351   1.643   9.881 -0.3460  0.3225 -0.4858
   56CHL1    H3 6552   0.332   1.546   9.932  2.7763  1.1288  2.6151
   56CHL1    O3 6553   0.365   1.741   9.989 -0.1475 -0.3537  0.2615
   56CHL1   H3' 6554   0.287   1.757  10.043 -0.1514  0.8527 -0.0801
   56CHL1    C4 6555   0.490   1.632   9.811  0.2829  0.3085  0.0869
   56CHL1   H4A 6556   0.524   1.731   9.774 -0.7567  0.8144  0.4250
   56CHL1   H4B 6557   0.565   1.606   9.889  1.5945  0.2966 -1.1356
   56CHL1    C5 6558   0.482   1.534   9.694 -0.0649 -0.1581 -0.8117
   56CHL1    C6 6559   0.560   1.433   9.686 -0.1202  0.8918  0.1419
   56CHL1    H6 6560   0.638   1.418   9.761  1.1544  3.4575 -0.5348
   56CHL1    C7 6561   0.562   1.335   9.575 -0.3951  0.3609  0.3452
   56CHL1   H7A 6562   0.671   1.315   9.568 -0.7979 -1.8306 -0.4046
   56CHL1   H7B 6563   0.520   1.237   9.606  0.5984 -0.0804  0.3435
   56CHL1    C8 6564   0.492   1.391   9.448  0.0321  1.0621 -0.7869
   56CHL1    H8 6565   0.565   1.460   9.402 -1.8467  1.8831 -2.6915
   56CHL1   C14 6566   0.457   1.274   9.349  0.3944  0.0730  0.1498
   56CHL1   H14 6567   0.376   1.217   9.398 -2.0431  2.7640 -0.4869
   56CHL1   C15 6568   0.581   1.194   9.310  0.0994  0.3399 -1.0728
   56CHL1  H15A 6569   0.668   1.262   9.311  2.4369 -2.3166 -3.3074
   56CHL1  H15B 6570   0.607   1.121   9.389  1.2486  1.6845 -0.1758
   56CHL1   C16 6571   0.549   1.144   9.175  0.0305  0.3999  0.4768
   56CHL1  H16A 6572   0.619   1.171   9.093  0.5189 -4.0543 -0.8259
   56CHL1  H16B 6573   0.542   1.034   9.182  1.6365  0.2259 -0.1555
   56CHL1   C17 6574   0.399   1.190   9.140 -0.3724 -0.6363 -0.1711
   56CHL1   H17 6575   0.325   1.120   9.183 -0.0191 -1.8463 -1.4415
   56CHL1   C13 6576   0.397   1.327   9.213 -0.3256  0.0251 -0.2150
   56CHL1   C18 6577   0.502   1.431   9.143  1.4794 -0.0265  0.1300
   56CHL1  H18A 6578   0.507   1.529   9.196  1.4778 -0.5666  1.1673
   56CHL1  H18B 6579   0.605   1.390   9.145  0.5645 -2.7725  4.0610
   56CHL1  H18C 6580   0.471   1.443   9.037  0.6464 -1.2325  0.2175
   56CHL1   C12 6581   0.262   1.386   9.248 -0.2030  0.5797 -0.0882
   56CHL1  H12A 6582   0.212   1.439   9.164  0.7362  1.6564  0.0012
   56CHL1  H12B 6583   0.188   1.312   9.284 -1.3471  1.3787 -0.7137
   56CHL1   C11 6584   0.281   1.501   9.354  0.4232  0.3949 -0.7476
   56CHL1  H11A 6585   0.337   1.578   9.296  2.2740 -1.8784 -2.1475
   56CHL1  H11B 6586   0.177   1.537   9.371  0.6951  1.2011 -0.7449
   56CHL1    C9 6587   0.365   1.457   9.483  0.0945  0.4262  0.0247
   56CHL1    H9 6588   0.307   1.375   9.533 -0.1340 -0.2607 -1.3212
   56CHL1   C10 6589   0.375   1.565   9.590 -0.3829  0.6104 -0.0249
   56CHL1   C19 6590   0.419   1.694   9.516  0.5136 -0.0560 -0.3959
   56CHL1  H19A 6591   0.514   1.685   9.458 -1.6701  0.0654 -4.3957
   56CHL1  H19B 6592   0.348   1.731   9.438  0.9488  3.4096  0.6999
   56CHL1  H19C 6593   0.420   1.781   9.584 -2.9807 -1.5159  1.7966
   56CHL1    C1 6594   0.239   1.584   9.664  0.3165 -0.2180  0.1779
   56CHL1   H1A 6595   0.168   1.613   9.583  0.9872  0.4545 -0.1769
   56CHL1   H1B 6596   0.213   1.482   9.702 -1.7052 -0.0463 -0.5913
   56CHL1    C2 6597   0.252   1.683   9.779 -0.2298 -0.0730 -0.5405
   56CHL1   H2A 6598   0.151   1.692   9.826 -1.5236  0.9267 -3.3055
   56CHL1   H2B 6599   0.276   1.786   9.745  0.6081  0.0812  0.4523
   56CHL1   C20 6600   0.370   1.185   8.987 -0.1293  0.6999  0.4471
   56CHL1   H20 6601   0.445   1.247   8.934  0.5044 -0.7396 -0.4043
   56CHL1   C21 6602   0.238   1.248   8.949  0.9619 -0.6601  0.3481
   56CHL1  H21A 6603   0.195   1.219   8.850  0.4714  0.5537  0.1798
   56CHL1  H21B 6604   0.243   1.359   8.957  0.5309 -0.4665 -1.4807
   56CHL1  H21C 6605   0.159   1.205   9.015 -0.7273 -0.8013 -1.6563
   56CHL1   C22 6606   0.390   1.044   8.920  0.6750 -0.4526  0.0977
   56CHL1  H22A 6607   0.485   1.003   8.963  0.8121  1.8456  2.2125
   56CHL1  H22B 6608   0.305   0.977   8.943  0.6739  0.5006  3.2851
   56CHL1   C23 6609   0.407   1.044   8.761  0.1929 -0.2046 -0.2010
   56CHL1  H23A 6610   0.319   1.091   8.712  0.5692 -0.8161 -1.5125
   56CHL1  H23B 6611   0.495   1.105   8.732  0.4677 -1.3955 -2.0259
   56CHL1   C24 6612   0.427   0.896   8.716  0.2053 -0.7197  0.5523
   56CHL1  H24A 6613   0.532   0.863   8.734  0.2337 -0.2111  1.3825
   56CHL1  H24B 6614   0.367   0.829   8.781  0.0761  1.1024  2.3837
   56CHL1   C25 6615   0.398   0.871   8.565 -0.1007  0.1758  0.4509
   56CHL1   H25 6616   0.466   0.936   8.505  0.9182 -0.8774  0.4379
   56CHL1   C26 6617   0.415   0.720   8.535  0.3498  0.7374  0.1441
   56CHL1  H26A 6618   0.412   0.698   8.426  0.7300  2.3950 -0.2315
   56CHL1  H26B 6619   0.515   0.688   8.571  0.3888  1.9526  1.2081
   56CHL1  H26C 6620   0.331   0.664   8.582 -0.2415  0.3830 -1.2785
   56CHL1   C27 6621   0.254   0.898   8.526  0.1996 -0.0722 -0.1463
   56CHL1  H27A 6622   0.239   1.008   8.532  2.8029  0.2713  1.7474
   56CHL1  H27B 6623   0.240   0.855   8.425 -5.5745  0.7217 -0.0263
   56CHL1  H27C 6624   0.180   0.844   8.590  0.0414  1.0530  0.6456
   57CHL1    C3 6625   0.666   2.669  10.153 -0.6317 -0.3990  0.4854
   57CHL1    H3 6626   0.764   2.615  10.148 -0.9530 -0.8820 -1.8782
   57CHL1    O3 6627   0.629   2.682  10.289 -0.2608 -0.6331  0.5359
   57CHL1   H3' 6628   0.548   2.732  10.280  0.4308  0.3053 -0.6779
   57CHL1    C4 6629   0.686   2.807  10.089  0.5490 -0.5842 -0.9674
   57CHL1   H4A 6630   0.592   2.865  10.079  2.3582  2.4318 -1.5466
   57CHL1   H4B 6631   0.749   2.868  10.157  0.7616 -3.2130  1.3754
   57CHL1    C5 6632   0.735   2.791   9.949 -0.5541  0.3794  0.3617
   57CHL1    C6 6633   0.859   2.833   9.918  0.7355 -0.1642  0.0589
   57CHL1    H6 6634   0.916   2.895   9.989  2.8096  1.2066 -2.6176
   57CHL1    C7 6635   0.909   2.828   9.781 -0.4569  0.0650  0.0718
   57CHL1   H7A 6636   0.970   2.919   9.764  1.1816 -0.6505  1.7624
   57CHL1   H7B 6637   0.988   2.749   9.780  0.3339  0.8355 -1.5009
   57CHL1    C8 6638   0.810   2.785   9.675  0.1912 -0.2936  0.7598
   57CHL1    H8 6639   0.744   2.869   9.643 -1.0743 -1.5684 -0.1449
   57CHL1   C14 6640   0.887   2.738   9.548  0.1388 -0.7844 -0.1520
   57CHL1   H14 6641   0.950   2.652   9.580 -0.8748 -1.2460  0.6461
   57CHL1   C15 6642   0.994   2.826   9.492 -0.0147 -0.3397  0.1430
   57CHL1  H15A 6643   0.972   2.935   9.496 -0.8373 -0.5016  0.2405
   57CHL1  H15B 6644   1.095   2.811   9.536  0.6149  1.3203 -0.6370
   57CHL1   C16 6645   0.999   2.774   9.346  0.1504  1.0046  0.3268
   57CHL1  H16A 6646   0.964   2.848   9.271 -1.6156 -0.5185 -0.4326
   57CHL1  H16B 6647   1.104   2.742   9.332  0.9143  2.9126  1.2998
   57CHL1   C17 6648   0.899   2.651   9.331 -0.2329 -0.3191 -0.1374
   57CHL1   H17 6649   0.969   2.575   9.374 -0.7902 -0.4332  0.5867
   57CHL1   C13 6650   0.797   2.683   9.437  0.5250  0.5790 -0.3229
   57CHL1   C18 6651   0.714   2.804   9.386 -0.1878  0.4086 -0.2677
   57CHL1  H18A 6652   0.780   2.889   9.361 -0.3058  0.6157  0.1293
   57CHL1  H18B 6653   0.654   2.772   9.298  2.7567  1.4060 -2.8052
   57CHL1  H18C 6654   0.647   2.831   9.470 -0.4258  0.4529 -0.4708
   57CHL1   C12 6655   0.710   2.568   9.494 -0.2434  0.6735 -0.0505
   57CHL1  H12A 6656   0.638   2.527   9.420  1.8479 -2.8479 -0.3805
   57CHL1  H12B 6657   0.780   2.484   9.515  0.2286  1.2175  0.6142
   57CHL1   C11 6658   0.633   2.612   9.621 -0.0673 -0.2270 -0.2188
   57CHL1  H11A 6659   0.556   2.686   9.589  1.1632  0.7372 -1.0465
   57CHL1  H11B 6660   0.591   2.519   9.667  2.1723 -0.7788  0.8447
   57CHL1    C9 6661   0.717   2.675   9.730 -0.0685  0.2358  0.4113
   57CHL1    H9 6662   0.792   2.601   9.762  0.4923 -0.0933 -1.5005
   57CHL1   C10 6663   0.643   2.717   9.855  0.7942 -0.2860 -0.2451
   57CHL1   C19 6664   0.521   2.803   9.817 -0.8544  0.7858 -0.0010
   57CHL1  H19A 6665   0.549   2.890   9.754  2.9059  0.3467  0.8232
   57CHL1  H19B 6666   0.449   2.731   9.775 -2.6455  2.3301  0.2929
   57CHL1  H19C 6667   0.467   2.848   9.904  0.6643  1.0946  0.8304
   57CHL1    C1 6668   0.600   2.588   9.927 -0.4073 -0.6564 -0.0019
   57CHL1   H1A 6669   0.511   2.548   9.873 -0.6082  1.1705 -1.1411
   57CHL1   H1B 6670   0.677   2.510   9.912 -1.5757 -1.3308 -3.6903
   57CHL1    C2 6671   0.559   2.597  10.076 -0.1034  0.7507  0.3129
   57CHL1   H2A 6672   0.553   2.494  10.117 -1.1235  1.2032  1.3588
   57CHL1   H2B 6673   0.462   2.650  10.093 -1.4974 -1.7954  0.7381
   57CHL1   C20 6674   0.867   2.626   9.183  0.0184  0.0060 -0.3319
   57CHL1   H20 6675   0.801   2.710   9.152  3.4628  2.8782 -0.4531
   57CHL1   C21 6676   0.801   2.483   9.176 -0.7807 -1.3654 -0.4753
   57CHL1  H21A 6677   0.868   2.411   9.227  2.9657  1.6301 -0.7165
   57CHL1  H21B 6678   0.771   2.451   9.074 -0.0394  1.1487 -1.5628
   57CHL1  H21C 6679   0.707   2.467   9.234 -1.4459  0.8716 -0.8082
   57CHL1   C22 6680   0.989   2.634   9.085  0.2040 -0.8463 -0.0959
   57CHL1  H22A 6681   1.041   2.730   9.104 -0.7642 -0.2259 -0.5042
   57CHL1  H22B 6682   1.056   2.549   9.114  2.4060  1.7747  3.2836
   57CHL1   C23 6683   0.961   2.622   8.937  0.2343  0.8172  0.1796
   57CHL1  H23A 6684   0.895   2.534   8.930  1.7739 -0.5061  1.4694
   57CHL1  H23B 6685   0.891   2.704   8.910  0.2628 -0.1792 -3.3922
   57CHL1   C24 6686   1.095   2.624   8.861  0.1527 -0.2570 -0.0200
   57CHL1  H24A 6687   1.140   2.726   8.869  0.5141 -0.3494 -0.7587
   57CHL1  H24B 6688   1.175   2.560   8.903  0.7365  1.1810  1.1644
   57CHL1   C25 6689   1.098   2.595   8.708  0.3579 -0.1146 -0.1620
   57CHL1   H25 6690   1.051   2.499   8.680  0.0532  0.8527 -3.3108
   57CHL1   C26 6691   1.029   2.718   8.636  0.0691  0.8263  0.1545
   57CHL1  H26A 6692   1.065   2.724   8.531  0.4910  0.5563  0.2834
   57CHL1  H26B 6693   0.918   2.721   8.629 -0.2971  0.1675  3.8308
   57CHL1  H26C 6694   1.070   2.815   8.673  1.1836  0.6736 -0.6295
   57CHL1   C27 6695   1.245   2.590   8.664  0.1791 -0.2468 -0.4527
   57CHL1  H27A 6696   1.250   2.570   8.555  0.8969  3.6735 -1.2765
   57CHL1  H27B 6697   1.290   2.691   8.673 -2.2317  0.8693 -0.1693
   57CHL1  H27C 6698   1.293   2.511   8.726  1.3720 -0.3799 -1.4826
   58CHL1    C3 6699   4.970   3.784  10.038 -0.2667  0.6316  0.0016
   58CHL1    H3 6700   4.862   3.761  10.055 -0.4143  0.8686 -0.5991
   58CHL1    O3 6701   5.052   3.787  10.157 -0.1471 -0.3174  0.1210
   58CHL1   H3' 6702   4.998   3.837  10.217  0.6741 -0.0654  0.6641
   58CHL1    C4 6703   5.032   3.677   9.945 -0.1397 -0.7005 -0.5439
   58CHL1   H4A 6704   5.136   3.709   9.926 -1.1248  2.3711 -1.2961
   58CHL1   H4B 6705   5.040   3.577   9.994  2.3288 -1.1877 -1.8017
   58CHL1    C5 6706   4.944   3.683   9.823  0.6342 -0.3943 -0.4265
   58CHL1    C6 6707   4.869   3.571   9.792 -0.0681 -0.5099 -0.5262
   58CHL1    H6 6708   4.871   3.483   9.858 -0.8467  0.6628  1.1373
   58CHL1    C7 6709   4.791   3.565   9.665  0.0437  0.7441  0.1548
   58CHL1   H7A 6710   4.809   3.470   9.610 -1.7000 -0.1553  1.0449
   58CHL1   H7B 6711   4.685   3.554   9.696  0.2546  0.4630  0.8036
   58CHL1    C8 6712   4.826   3.670   9.554 -0.2579  0.4385 -0.8592
   58CHL1    H8 6713   4.927   3.652   9.512  0.5239 -0.5777  1.3082
   58CHL1   C14 6714   4.715   3.674   9.449 -0.1614  0.4402  0.2297
   58CHL1   H14 6715   4.621   3.700   9.502 -0.8799  1.5311 -1.4712
   58CHL1   C15 6716   4.679   3.543   9.374  0.4159 -0.8193 -0.3857
   58CHL1  H15A 6717   4.773   3.514   9.322  1.6268  0.9052  0.7564
   58CHL1  H15B 6718   4.646   3.456   9.436  1.4855 -0.0956  1.2543
   58CHL1   C16 6719   4.588   3.599   9.257 -0.3584  0.5842  0.4579
   58CHL1  H16A 6720   4.602   3.549   9.159  1.1628 -0.9550  1.3906
   58CHL1  H16B 6721   4.482   3.582   9.285 -0.0297 -1.5259  0.5848
   58CHL1   C17 6722   4.607   3.753   9.254 -0.1634  0.1893  0.4533
   58CHL1   H17 6723   4.522   3.798   9.309 -1.1564 -1.4568  0.3142
   58CHL1   C13 6724   4.733   3.785   9.343  0.1322  0.9176 -0.1019
   58CHL1   C18 6725   4.862   3.766   9.272 -0.6446  0.5263 -0.2149
   58CHL1  H18A 6726   4.866   3.673   9.211  1.5831 -0.5315  1.3985
   58CHL1  H18B 6727   4.877   3.849   9.199 -0.2637 -1.0035 -1.9598
   58CHL1  H18C 6728   4.950   3.760   9.339  1.2551 -0.0547 -2.6190
   58CHL1   C12 6729   4.725   3.919   9.423 -0.0860  0.3508  0.4289
   58CHL1  H12A 6730   4.744   4.004   9.354  1.2333 -2.3005 -2.7695
   58CHL1  H12B 6731   4.625   3.928   9.470  0.5036  1.3215  1.5517
   58CHL1   C11 6732   4.839   3.922   9.524 -0.2558 -0.7956  0.1556
   58CHL1  H11A 6733   4.935   3.909   9.469 -0.2606 -1.9140  0.3861
   58CHL1  H11B 6734   4.836   4.020   9.576 -2.3564 -1.5483  1.5840
   58CHL1    C9 6735   4.839   3.811   9.630 -0.0423  0.4412 -0.2876
   58CHL1    H9 6736   4.739   3.814   9.678  0.2780  1.5810  0.3398
   58CHL1   C10 6737   4.946   3.813   9.741 -0.4442 -0.3717  0.4901
   58CHL1   C19 6738   5.095   3.836   9.685 -0.5566  0.2291  0.1393
   58CHL1  H19A 6739   5.121   3.746   9.625  0.5998 -1.9941  3.6167
   58CHL1  H19B 6740   5.104   3.934   9.635 -1.2771  0.6109  0.7379
   58CHL1  H19C 6741   5.176   3.838   9.762  0.1883  1.6147 -0.6350
   58CHL1    C1 6742   4.909   3.928   9.839 -0.3518  0.4885 -0.3626
   58CHL1   H1A 6743   4.936   4.027   9.796 -3.8119  1.9695  0.5786
   58CHL1   H1B 6744   4.802   3.936   9.865 -0.4036 -1.5670  0.2718
   58CHL1    C2 6745   4.990   3.922   9.972 -0.2810 -0.4115 -0.6786
   58CHL1   H2A 6746   4.957   4.001  10.043  0.8413 -1.9764  1.7334
   58CHL1   H2B 6747   5.099   3.924   9.951 -0.7241 -1.0925 -3.3010
   58CHL1   C20 6748   4.610   3.800   9.105 -0.4071  0.0875 -0.3126
   58CHL1   H20 6749   4.687   3.739   9.053  0.1213 -0.0536  0.5994
   58CHL1   C21 6750   4.642   3.956   9.092  0.0543  0.2701  0.0276
   58CHL1  H21A 6751   4.606   3.992   8.993 -1.6594 -1.5927 -0.1095
   58CHL1  H21B 6752   4.752   3.971   9.090  0.0683  0.1494 -0.7921
   58CHL1  H21C 6753   4.590   4.011   9.173 -1.2316 -1.3022  0.3178
   58CHL1   C22 6754   4.475   3.776   9.032 -0.3014 -0.0928 -0.1597
   58CHL1  H22A 6755   4.429   3.685   9.075 -0.3588 -0.3563 -0.7650
   58CHL1  H22B 6756   4.408   3.863   9.048 -0.3439  0.1642 -1.5497
   58CHL1   C23 6757   4.499   3.743   8.885 -0.0085 -0.4239  0.1511
   58CHL1  H23A 6758   4.564   3.825   8.848  0.7625 -1.3426 -0.5877
   58CHL1  H23B 6759   4.550   3.646   8.865 -0.2419 -0.2982 -1.1416
   58CHL1   C24 6760   4.373   3.745   8.783  0.3157 -0.5450 -0.6384
   58CHL1  H24A 6761   4.290   3.700   8.841  1.7786 -0.9656  1.2170
   58CHL1  H24B 6762   4.350   3.848   8.750  0.6666 -0.1479  0.3228
   58CHL1   C25 6763   4.389   3.678   8.647  0.2342  1.0492 -0.0320
   58CHL1   H25 6764   4.301   3.691   8.580  0.1403  0.0982 -0.1215
   58CHL1   C26 6765   4.511   3.749   8.579 -0.1133 -0.0352 -0.6525
   58CHL1  H26A 6766   4.600   3.751   8.644 -1.0956 -0.6582  0.7671
   58CHL1  H26B 6767   4.528   3.702   8.479  0.2371  2.3545 -1.7980
   58CHL1  H26C 6768   4.475   3.853   8.562  0.0093  0.0707 -0.2500
   58CHL1   C27 6769   4.424   3.526   8.664 -0.5869 -0.2776  0.7465
   58CHL1  H27A 6770   4.334   3.480   8.710 -2.3199  2.3505  0.2100
   58CHL1  H27B 6771   4.443   3.474   8.567  0.5454 -0.9509  1.3096
   58CHL1  H27C 6772   4.512   3.507   8.728 -0.0891  0.4424  0.2896
   59CHL1    C3 6773   4.094   1.510  10.228  1.0207  0.0951 -0.1754
   59CHL1    H3 6774   3.992   1.466  10.222  1.3637 -0.6028 -1.2097
   59CHL1    O3 6775   4.116   1.561  10.362  0.7013  0.0713  0.3227
   59CHL1   H3' 6776   4.095   1.487  10.419 -1.4128 -0.2800 -0.8099
   59CHL1    C4 6777   4.182   1.395  10.202  0.7690  0.1899  0.1029
   59CHL1   H4A 6778   4.290   1.420  10.205  1.1711 -1.1407 -1.5030
   59CHL1   H4B 6779   4.161   1.319  10.280 -0.1734 -1.1527 -1.3905
   59CHL1    C5 6780   4.149   1.342  10.062 -1.3054 -0.4112 -0.5147
   59CHL1    C6 6781   4.114   1.212  10.049 -0.1406  0.2344  0.9581
   59CHL1    H6 6782   4.109   1.139  10.131 -0.2266 -0.0944  0.6684
   59CHL1    C7 6783   4.076   1.152   9.914  0.2091 -0.3151 -0.3151
   59CHL1   H7A 6784   4.118   1.051   9.895  2.6113  0.5617  0.0506
   59CHL1   H7B 6785   3.966   1.133   9.920  0.1425  0.0992 -0.2303
   59CHL1    C8 6786   4.098   1.252   9.794 -0.5883 -0.8384 -0.0501
   59CHL1    H8 6787   4.208   1.260   9.783 -0.6835  0.0404 -0.4820
   59CHL1   C14 6788   4.030   1.197   9.665  0.3175 -0.8978  0.5720
   59CHL1   H14 6789   3.921   1.206   9.685 -0.1038  1.6506 -2.2922
   59CHL1   C15 6790   4.055   1.057   9.620  0.1492  0.9286 -0.4689
   59CHL1  H15A 6791   4.164   1.042   9.606  0.5976  1.2951  2.1025
   59CHL1  H15B 6792   4.006   0.977   9.680 -4.0946  2.7148 -1.2346
   59CHL1   C16 6793   3.987   1.055   9.476 -0.2706  0.1218 -0.1034
   59CHL1  H16A 6794   4.032   0.980   9.407  3.1153  0.2951  1.7083
   59CHL1  H16B 6795   3.879   1.030   9.482 -0.7250  1.5905 -1.4076
   59CHL1   C17 6796   3.981   1.209   9.427 -0.0266  0.2626  0.5550
   59CHL1   H17 6797   3.879   1.248   9.443  0.1589 -0.2956  3.6578
   59CHL1   C13 6798   4.062   1.284   9.543  0.2737  0.1032  0.8369
   59CHL1   C18 6799   4.219   1.296   9.508  0.2829  0.4177 -0.4078
   59CHL1  H18A 6800   4.230   1.384   9.441  2.6059  2.5006  2.4758
   59CHL1  H18B 6801   4.287   1.306   9.595  1.1171 -0.7771 -0.8966
   59CHL1  H18C 6802   4.254   1.207   9.451  0.2531  0.6237 -0.7532
   59CHL1   C12 6803   4.003   1.429   9.564 -0.5468 -0.4833 -0.1629
   59CHL1  H12A 6804   4.012   1.495   9.475 -3.1969  2.7529  1.7076
   59CHL1  H12B 6805   3.894   1.416   9.580 -0.4105  0.1911  1.5651
   59CHL1   C11 6806   4.061   1.483   9.697 -0.3585 -0.0707 -0.3465
   59CHL1  H11A 6807   4.168   1.505   9.676 -0.4887  1.1517  0.1723
   59CHL1  H11B 6808   4.026   1.586   9.723 -0.1063 -0.0825  0.0469
   59CHL1    C9 6809   4.050   1.393   9.823  0.0750  0.0460 -0.0263
   59CHL1    H9 6810   3.941   1.388   9.844 -0.0941  0.5969 -0.7563
   59CHL1   C10 6811   4.130   1.447   9.949 -0.8999  0.1087 -0.0515
   59CHL1   C19 6812   4.279   1.485   9.911 -0.3069  0.4144  0.3394
   59CHL1  H19A 6813   4.336   1.400   9.867 -1.5961  0.4351 -1.4767
   59CHL1  H19B 6814   4.289   1.571   9.841  0.2822 -0.6156 -0.8854
   59CHL1  H19C 6815   4.334   1.519  10.001  2.5310 -1.0950 -0.6799
   59CHL1    C1 6816   4.063   1.575   9.992  0.6785 -0.0211  0.6136
   59CHL1   H1A 6817   4.092   1.651   9.917 -2.9787 -0.7372 -1.7939
   59CHL1   H1B 6818   3.953   1.559   9.986  0.8833 -0.9739 -1.2788
   59CHL1    C2 6819   4.101   1.623  10.131  0.0340 -0.0043  0.2124
   59CHL1   H2A 6820   4.033   1.702  10.170 -1.8020 -1.2434 -0.3370
   59CHL1   H2B 6821   4.202   1.665  10.111 -0.7194  0.6736 -2.4460
   59CHL1   C20 6822   4.024   1.218   9.278  0.1676 -1.1244  0.3677
   59CHL1   H20 6823   4.127   1.178   9.287 -0.7598 -4.3665 -1.4714
   59CHL1   C21 6824   4.033   1.362   9.226  0.0283 -0.4668  0.0537
   59CHL1  H21A 6825   4.085   1.353   9.129 -0.0924  0.1351 -0.0699
   59CHL1  H21B 6826   4.105   1.427   9.280  0.0085  0.6452 -1.2277
   59CHL1  H21C 6827   3.937   1.417   9.216  0.7706  0.6239 -1.5349
   59CHL1   C22 6828   3.946   1.140   9.166  0.1587  0.3774 -0.4356
   59CHL1  H22A 6829   3.894   1.047   9.197 -0.9911  1.2826  0.4892
   59CHL1  H22B 6830   3.863   1.202   9.126 -0.1583  1.8117  2.1984
   59CHL1   C23 6831   4.044   1.098   9.059  0.8961 -0.0484  0.0650
   59CHL1  H23A 6832   4.065   1.191   9.002  1.4681  0.0451  0.4246
   59CHL1  H23B 6833   4.132   1.050   9.106  0.1677 -1.2170  0.2709
   59CHL1   C24 6834   3.972   1.006   8.955 -0.7599 -0.7005  0.4693
   59CHL1  H24A 6835   3.942   0.904   8.987  1.3062 -2.3660 -2.4872
   59CHL1  H24B 6836   3.872   1.052   8.936  0.1233  1.6405  1.1303
   59CHL1   C25 6837   4.048   0.995   8.826 -0.5451  0.3936  0.7636
   59CHL1   H25 6838   4.053   1.096   8.781  2.7946  0.4375  0.9886
   59CHL1   C26 6839   4.190   0.941   8.848  0.0066 -0.4838  0.2327
   59CHL1  H26A 6840   4.191   0.848   8.910  0.3596  0.2569  1.3843
   59CHL1  H26B 6841   4.231   0.919   8.747 -1.3853 -1.2705 -0.1917
   59CHL1  H26C 6842   4.256   1.006   8.910 -2.4806  2.1313  0.3385
   59CHL1   C27 6843   3.991   0.910   8.711  0.8341  0.6531 -0.4428
   59CHL1  H27A 6844   3.901   0.965   8.679  0.2008  0.1957  0.5059
   59CHL1  H27B 6845   4.065   0.923   8.629 -0.6030 -0.0608 -1.9016
   59CHL1  H27C 6846   3.980   0.804   8.744  1.6040  0.4349 -0.8552
   60CHL1    C3 6847   5.626   5.699  10.098  0.5869 -0.2533  0.3414
   60CHL1    H3 6848   5.632   5.589  10.085 -0.8459 -0.3334  0.1579
   60CHL1    O3 6849   5.613   5.730  10.235  0.1950 -0.1962  0.5008
   60CHL1   H3' 6850   5.684   5.792  10.255  1.5673 -2.4830  3.5368
   60CHL1    C4 6851   5.750   5.776  10.044 -0.5979  0.2276  0.4418
   60CHL1   H4A 6852   5.739   5.885  10.060  0.1407  0.1859  1.3385
   60CHL1   H4B 6853   5.832   5.738  10.110 -0.7474 -0.3515  0.2989
   60CHL1    C5 6854   5.776   5.753   9.893  0.1621  0.6464 -0.0630
   60CHL1    C6 6855   5.893   5.706   9.846 -0.2074  0.1071 -0.0974
   60CHL1    H6 6856   5.974   5.683   9.916  0.8852 -2.0817 -1.9400
   60CHL1    C7 6857   5.908   5.651   9.708  0.3708 -0.1932 -0.0666
   60CHL1   H7A 6858   6.013   5.662   9.674  1.0551  1.4887  2.3762
   60CHL1   H7B 6859   5.882   5.543   9.713  0.7597 -0.3271 -0.7863
   60CHL1    C8 6860   5.801   5.717   9.603 -0.4329  0.4418 -0.7328
   60CHL1    H8 6861   5.818   5.826   9.588 -1.5219  0.6151 -0.8222
   60CHL1   C14 6862   5.805   5.643   9.468  0.8239  0.0952 -0.2924
   60CHL1   H14 6863   5.782   5.536   9.488 -2.2253  0.7199  0.0972
   60CHL1   C15 6864   5.935   5.640   9.392  0.6432  0.5806 -0.4854
   60CHL1  H15A 6865   5.967   5.745   9.378 -0.0071  0.5347 -2.5380
   60CHL1  H15B 6866   6.006   5.570   9.442  2.3213  1.9322 -0.8814
   60CHL1   C16 6867   5.896   5.583   9.256 -0.5159 -0.1766 -0.0195
   60CHL1  H16A 6868   5.931   5.654   9.178  0.3692 -0.8890 -0.2889
   60CHL1  H16B 6869   5.932   5.479   9.240  0.1294 -0.4908  2.9387
   60CHL1   C17 6870   5.745   5.585   9.253  0.3211 -0.0971 -0.5277
   60CHL1   H17 6871   5.721   5.484   9.294  2.4421 -0.7282 -0.7220
   60CHL1   C13 6872   5.694   5.681   9.361  0.2392  0.8778 -0.1804
   60CHL1   C18 6873   5.711   5.827   9.322 -0.5657 -0.2119 -0.2474
   60CHL1  H18A 6874   5.811   5.842   9.275 -0.5986  2.0760  0.2763
   60CHL1  H18B 6875   5.629   5.857   9.254 -0.6143 -2.2830 -1.1721
   60CHL1  H18C 6876   5.704   5.897   9.409 -2.5174  0.4202 -0.8675
   60CHL1   C12 6877   5.553   5.664   9.423 -0.3250  0.1514  0.9315
   60CHL1  H12A 6878   5.477   5.689   9.346 -1.4049  0.5051  2.0923
   60CHL1  H12B 6879   5.548   5.555   9.442 -1.7766 -0.2649 -1.3977
   60CHL1   C11 6880   5.535   5.729   9.558 -0.3795  0.2435 -0.5044
   60CHL1  H11A 6881   5.535   5.839   9.539  0.0015  0.6862  1.8500
   60CHL1  H11B 6882   5.430   5.711   9.590 -1.4816  1.4896 -3.0563
   60CHL1    C9 6883   5.657   5.699   9.657 -0.0006  0.2079  0.0052
   60CHL1    H9 6884   5.648   5.589   9.676  1.1503  0.0072 -0.5603
   60CHL1   C10 6885   5.648   5.765   9.802  0.0096  0.1165  0.1144
   60CHL1   C19 6886   5.621   5.921   9.776 -0.4664  0.6865 -0.2411
   60CHL1  H19A 6887   5.707   5.962   9.719  0.0239 -0.3601 -0.2711
   60CHL1  H19B 6888   5.531   5.943   9.715 -1.2165  0.2680  0.7045
   60CHL1  H19C 6889   5.612   5.978   9.871  2.2468  0.0072  0.5145
   60CHL1    C1 6890   5.516   5.711   9.866  0.9730 -0.7597 -0.2714
   60CHL1   H1A 6891   5.423   5.746   9.816  1.2549  1.6437  0.7818
   60CHL1   H1B 6892   5.512   5.600   9.871 -1.0996 -0.6983  3.0451
   60CHL1    C2 6893   5.504   5.748  10.016  0.0747  0.7698 -0.0640
   60CHL1   H2A 6894   5.413   5.702  10.058 -0.9069  0.8464 -1.9752
   60CHL1   H2B 6895   5.499   5.855  10.047 -1.3071  0.2008  1.8527
   60CHL1   C20 6896   5.675   5.579   9.107 -0.5551 -0.7792  0.6703
   60CHL1   H20 6897   5.677   5.684   9.072 -2.0037 -0.6517  0.9393
   60CHL1   C21 6898   5.530   5.547   9.124  0.1307  0.1097  0.6205
   60CHL1  H21A 6899   5.486   5.493   9.038  0.1082 -1.6293  1.6714
   60CHL1  H21B 6900   5.466   5.637   9.137  0.7289  1.0627 -2.3840
   60CHL1  H21C 6901   5.511   5.483   9.213 -0.7612  3.5321  3.0776
   60CHL1   C22 6902   5.750   5.477   9.015 -0.0132  0.1080  0.0469
   60CHL1  H22A 6903   5.861   5.476   9.024  0.1095 -2.1670 -0.9456
   60CHL1  H22B 6904   5.724   5.371   9.034 -1.0097 -0.2939 -2.9594
   60CHL1   C23 6905   5.727   5.504   8.869  0.1870 -0.3101  0.4293
   60CHL1  H23A 6906   5.622   5.479   8.844  0.6591 -1.5814 -0.3787
   60CHL1  H23B 6907   5.748   5.607   8.834 -1.9512 -0.1614 -0.5029
   60CHL1   C24 6908   5.812   5.408   8.786 -0.1355  0.1518 -0.4247
   60CHL1  H24A 6909   5.917   5.423   8.820 -0.5168  1.9756  0.0567
   60CHL1  H24B 6910   5.773   5.305   8.797 -2.6997  1.1713  0.7478
   60CHL1   C25 6911   5.808   5.440   8.636  0.7797  0.1564 -0.1316
   60CHL1   H25 6912   5.789   5.549   8.622  0.1607  0.1557  0.6369
   60CHL1   C26 6913   5.940   5.395   8.574 -0.3882  0.1433 -0.3226
   60CHL1  H26A 6914   5.941   5.420   8.466 -3.2059 -2.5955 -1.1333
   60CHL1  H26B 6915   6.022   5.444   8.630  0.2499 -0.0545 -1.0566
   60CHL1  H26C 6916   5.958   5.285   8.577  0.4347  0.2847  0.1513
   60CHL1   C27 6917   5.680   5.377   8.578 -0.2656  0.3783 -0.0347
   60CHL1  H27A 6918   5.592   5.401   8.641 -1.0148 -0.3052 -0.7922
   60CHL1  H27B 6919   5.661   5.431   8.483  0.5052  0.4896 -0.1334
   60CHL1  H27C 6920   5.685   5.269   8.555  0.0747  0.2138  0.7663
   61CHL1    C3 6921   2.228   6.371  10.269 -0.0425  0.1134 -0.0354
   61CHL1    H3 6922   2.337   6.390  10.261 -0.3954  1.7318 -1.6034
   61CHL1    O3 6923   2.183   6.350  10.400 -0.2838  0.2510  0.1980
   61CHL1   H3' 6924   2.089   6.369  10.397 -0.2535  0.3238 -0.5570
   61CHL1    C4 6925   2.155   6.491  10.206  0.6585  0.6611 -0.3150
   61CHL1   H4A 6926   2.047   6.474  10.222  0.4448  1.7707 -0.4448
   61CHL1   H4B 6927   2.176   6.576  10.275  0.9529  0.1510  0.2359
   61CHL1    C5 6928   2.189   6.510  10.060  0.1179  0.7202  0.1960
   61CHL1    C6 6929   2.253   6.618  10.016  0.3324 -0.0555 -0.6355
   61CHL1    H6 6930   2.266   6.701  10.086  0.4241  0.0491 -0.7782
   61CHL1    C7 6931   2.284   6.643   9.872 -0.5453 -0.3987  0.0540
   61CHL1   H7A 6932   2.256   6.746   9.845 -0.0108  0.3966  2.2853
   61CHL1   H7B 6933   2.395   6.646   9.866 -0.5263 -0.1666  0.4626
   61CHL1    C8 6934   2.212   6.546   9.772 -0.4377  0.6375  0.0193
   61CHL1    H8 6935   2.107   6.581   9.782 -0.4470  0.2558  1.6191
   61CHL1   C14 6936   2.265   6.555   9.628  0.1711  0.0401  0.5034
   61CHL1   H14 6937   2.374   6.535   9.634  0.6900  1.0562 -3.1443
   61CHL1   C15 6938   2.264   6.691   9.546 -0.2842 -0.4733 -0.7443
   61CHL1  H15A 6939   2.172   6.751   9.562  0.4993  0.3608  0.8551
   61CHL1  H15B 6940   2.356   6.749   9.567 -0.2424 -1.1028  1.0204
   61CHL1   C16 6941   2.272   6.649   9.391  0.3493  0.0640  0.6470
   61CHL1  H16A 6942   2.175   6.686   9.352 -0.7106 -1.8852  1.3187
   61CHL1  H16B 6943   2.352   6.701   9.333  1.4184 -1.1529  0.9786
   61CHL1   C17 6944   2.278   6.494   9.395 -0.0553 -0.1026  0.0561
   61CHL1   H17 6945   2.383   6.472   9.422 -0.4802  0.5206  2.4488
   61CHL1   C13 6946   2.208   6.449   9.532 -0.6262  0.1864 -0.0383
   61CHL1   C18 6947   2.056   6.467   9.524  0.2251  0.2135  0.5368
   61CHL1  H18A 6948   2.035   6.558   9.465 -1.2900  1.5498  2.9507
   61CHL1  H18B 6949   2.009   6.380   9.473 -1.0197  1.7459 -1.0404
   61CHL1  H18C 6950   2.005   6.480   9.622 -3.2099  0.3785 -1.1067
   61CHL1   C12 6951   2.256   6.309   9.587  0.0666  0.2815  0.3271
   61CHL1  H12A 6952   2.226   6.218   9.530  2.7500 -1.1495  1.0109
   61CHL1  H12B 6953   2.367   6.307   9.588  0.0500 -0.3923  0.9650
   61CHL1   C11 6954   2.197   6.291   9.724 -0.0339  0.0440  0.0639
   61CHL1  H11A 6955   2.088   6.279   9.705 -0.0767 -0.5985  0.6589
   61CHL1  H11B 6956   2.227   6.197   9.775 -1.0995 -0.5659 -0.4120
   61CHL1    C9 6957   2.229   6.403   9.830 -0.0727  0.3925  0.1263
   61CHL1    H9 6958   2.338   6.404   9.851  0.5853 -0.8579 -2.7450
   61CHL1   C10 6959   2.164   6.384   9.973 -0.5097  0.4742 -0.3051
   61CHL1   C19 6960   2.012   6.357   9.959 -0.7619 -0.2298 -0.5406
   61CHL1  H19A 6961   1.989   6.265   9.900 -0.8376 -2.4562  2.6666
   61CHL1  H19B 6962   1.976   6.331  10.061  1.0212  0.4992  0.3029
   61CHL1  H19C 6963   1.961   6.450   9.926 -1.6947  0.7367  3.0957
   61CHL1    C1 6964   2.236   6.265  10.034  0.0489 -0.2452  0.2002
   61CHL1   H1A 6965   2.212   6.170   9.982 -0.5805  0.3004 -0.5317
   61CHL1   H1B 6966   2.346   6.279  10.027 -0.1545  1.6874  0.3510
   61CHL1    C2 6967   2.210   6.250  10.189  0.1521  0.2767 -0.1242
   61CHL1   H2A 6968   2.279   6.169  10.219 -0.9319 -0.6001  0.0531
   61CHL1   H2B 6969   2.106   6.218  10.208  0.4829  0.4324  2.1609
   61CHL1   C20 6970   2.227   6.416   9.275  0.5572  0.2663 -0.1298
   61CHL1   H20 6971   2.179   6.321   9.307 -0.0520  1.3442  2.3960
   61CHL1   C21 6972   2.359   6.382   9.195  1.0072 -0.2744 -0.5001
   61CHL1  H21A 6973   2.425   6.325   9.265 -0.4199  0.2989  1.3983
   61CHL1  H21B 6974   2.407   6.482   9.186  1.1977 -0.1739  1.2839
   61CHL1  H21C 6975   2.348   6.337   9.094 -0.3178  0.6877 -0.8027
   61CHL1   C22 6976   2.133   6.492   9.182  0.3937  0.0302 -0.1487
   61CHL1  H22A 6977   2.052   6.535   9.245 -1.5735 -1.0854 -1.8151
   61CHL1  H22B 6978   2.191   6.577   9.140  2.1970 -1.8214 -1.5674
   61CHL1   C23 6979   2.067   6.402   9.068  0.0339 -0.4788  0.5778
   61CHL1  H23A 6980   2.142   6.339   9.016 -0.3307 -1.5405  1.2982
   61CHL1  H23B 6981   2.003   6.326   9.118 -0.2545  0.8456  2.3244
   61CHL1   C24 6982   1.995   6.490   8.960 -0.0086 -0.0506 -0.4047
   61CHL1  H24A 6983   1.912   6.540   9.014  1.4988  1.4611  0.6417
   61CHL1  H24B 6984   2.069   6.559   8.914 -0.7886 -0.1500 -1.8766
   61CHL1   C25 6985   1.933   6.412   8.844  0.4417 -0.4220 -0.0015
   61CHL1   H25 6986   1.865   6.334   8.884  1.6617 -1.6476 -0.2429
   61CHL1   C26 6987   1.836   6.502   8.767  0.3031  0.6272  0.1845
   61CHL1  H26A 6988   1.789   6.438   8.690  1.6658 -0.8855  0.5573
   61CHL1  H26B 6989   1.772   6.567   8.831 -3.0144 -1.3842 -0.8539
   61CHL1  H26C 6990   1.899   6.565   8.700  0.7240 -0.8044 -0.8015
   61CHL1   C27 6991   2.039   6.361   8.746  1.1000  0.5814 -0.7757
   61CHL1  H27A 6992   2.097   6.447   8.707 -0.6933  1.6620 -1.1702
   61CHL1  H27B 6993   2.104   6.284   8.793 -0.4953 -0.3324  0.0021
   61CHL1  H27C 6994   1.991   6.302   8.665 -1.1066 -1.9723  2.1781
   62CHL1    C3 6995   1.245   3.072   9.932 -0.2828 -0.1254  0.6882
   62CHL1    H3 6996   1.192   2.974   9.924  1.0447 -0.8602  0.6807
   62CHL1    O3 6997   1.241   3.110  10.066  0.7563  0.3332  0.0650
   62CHL1   H3' 6998   1.324   3.155  10.081 -0.1088  2.1471 -0.2634
   62CHL1    C4 6999   1.393   3.054   9.902  0.7706  0.0356  0.1167
   62CHL1   H4A 7000   1.440   3.152   9.924  1.0054  0.3613 -1.6577
   62CHL1   H4B 7001   1.431   2.983   9.979  3.2444  3.6864  2.6398
   62CHL1    C5 7002   1.419   3.018   9.757  0.1447 -0.5897  0.0604
   62CHL1    C6 7003   1.494   2.915   9.724 -0.4010 -0.4150  0.3156
   62CHL1    H6 7004   1.561   2.867   9.797  0.7031  0.6086  0.0082
   62CHL1    C7 7005   1.538   2.886   9.585  0.3123  0.1680 -0.0087
   62CHL1   H7A 7006   1.648   2.890   9.574  0.3799  0.7187  0.7857
   62CHL1   H7B 7007   1.497   2.787   9.555  0.2163 -0.4107  1.9246
   62CHL1    C8 7008   1.504   2.998   9.480  0.4234  0.1002 -0.1225
   62CHL1    H8 7009   1.576   3.082   9.484  2.0810 -1.2734  0.0659
   62CHL1   C14 7010   1.508   2.949   9.340 -0.1950 -0.4311 -0.9513
   62CHL1   H14 7011   1.444   2.858   9.351  2.2231 -2.1101 -0.0336
   62CHL1   C15 7012   1.629   2.876   9.281 -0.1205  0.4716  0.6213
   62CHL1  H15A 7013   1.721   2.935   9.304  0.8292 -0.5667 -0.3767
   62CHL1  H15B 7014   1.634   2.776   9.327  1.1161  0.5215  0.6392
   62CHL1   C16 7015   1.590   2.863   9.129 -0.2564  0.4076  0.1904
   62CHL1  H16A 7016   1.669   2.920   9.075  0.9091 -1.6126 -0.3339
   62CHL1  H16B 7017   1.597   2.756   9.098 -3.6755 -0.1072  0.7420
   62CHL1   C17 7018   1.459   2.926   9.106 -0.7983 -0.1122 -0.0402
   62CHL1   H17 7019   1.379   2.856   9.138 -1.5572  2.0471  3.2435
   62CHL1   C13 7020   1.450   3.031   9.223  0.3038 -0.6273  0.2246
   62CHL1   C18 7021   1.539   3.154   9.191  0.3266  0.0790 -0.6114
   62CHL1  H18A 7022   1.548   3.218   9.282  2.4623 -1.3992  0.3047
   62CHL1  H18B 7023   1.644   3.130   9.167 -0.0431  0.4491 -2.7710
   62CHL1  H18C 7024   1.487   3.213   9.113  2.0583  1.8400 -0.5079
   62CHL1   C12 7025   1.309   3.072   9.262  0.0697  0.1545 -0.4625
   62CHL1  H12A 7026   1.257   3.136   9.188 -1.9292 -1.2345 -0.3186
   62CHL1  H12B 7027   1.247   2.980   9.265  1.2658 -0.6629  0.5459
   62CHL1   C11 7028   1.309   3.146   9.399  0.4255 -0.4185  0.2095
   62CHL1  H11A 7029   1.363   3.242   9.388 -1.1682  0.3767 -0.9581
   62CHL1  H11B 7030   1.202   3.170   9.419  0.7354 -0.1190  1.6141
   62CHL1    C9 7031   1.366   3.051   9.515 -0.5391 -0.7373 -0.6312
   62CHL1    H9 7032   1.299   2.962   9.516 -0.7644 -0.5794 -1.3134
   62CHL1   C10 7033   1.346   3.113   9.652  0.2860  0.6788 -0.1090
   62CHL1   C19 7034   1.419   3.248   9.664 -0.1884 -0.7498 -0.1536
   62CHL1  H19A 7035   1.420   3.286   9.768  0.4360 -0.2929 -0.3190
   62CHL1  H19B 7036   1.523   3.229   9.629  0.0448 -0.5845  0.4331
   62CHL1  H19C 7037   1.381   3.332   9.602 -1.0717  0.1421  1.5275
   62CHL1    C1 7038   1.194   3.132   9.692 -0.9435 -0.4423 -0.4833
   62CHL1   H1A 7039   1.140   3.214   9.639  0.9134 -0.3182 -2.3181
   62CHL1   H1B 7040   1.150   3.031   9.680  0.2981 -0.9890 -0.5449
   62CHL1    C2 7041   1.170   3.171   9.842 -0.1777  0.5035  0.5714
   62CHL1   H2A 7042   1.062   3.169   9.871  0.0774  0.1211  1.5515
   62CHL1   H2B 7043   1.206   3.275   9.853 -0.2150  0.9429 -2.5996
   62CHL1   C20 7044   1.439   2.972   8.961 -0.2089 -0.4295  0.2023
   62CHL1   H20 7045   1.464   3.080   8.953 -2.3778  0.2253  1.3964
   62CHL1   C21 7046   1.284   2.980   8.945 -0.3462  0.8892 -0.0266
   62CHL1  H21A 7047   1.255   3.016   8.844 -0.5931  0.6658 -0.0348
   62CHL1  H21B 7048   1.230   3.046   9.017 -0.9257 -2.0689  2.4822
   62CHL1  H21C 7049   1.241   2.881   8.971  1.6816 -0.0250  0.0796
   62CHL1   C22 7050   1.502   2.877   8.850 -0.2252 -0.8247 -0.4911
   62CHL1  H22A 7051   1.609   2.849   8.860 -0.3253 -1.2616 -0.6350
   62CHL1  H22B 7052   1.442   2.784   8.848  0.8497 -1.6562  2.0515
   62CHL1   C23 7053   1.507   2.938   8.709 -0.0943 -0.4087 -0.1284
   62CHL1  H23A 7054   1.412   2.992   8.691  2.0484  3.5766 -0.7763
   62CHL1  H23B 7055   1.578   3.023   8.719  2.0770 -2.3123  1.9930
   62CHL1   C24 7056   1.551   2.839   8.599  0.2638  0.6339  0.0001
   62CHL1  H24A 7057   1.479   2.757   8.575  1.3311 -0.8877  1.7130
   62CHL1  H24B 7058   1.549   2.903   8.508 -0.4205 -0.5936 -0.8752
   62CHL1   C25 7059   1.690   2.773   8.608 -0.4373 -0.1034 -0.0083
   62CHL1   H25 7060   1.710   2.712   8.698  0.3508 -1.0018 -0.7676
   62CHL1   C26 7061   1.707   2.673   8.490 -0.2112 -0.1065  0.6123
   62CHL1  H26A 7062   1.811   2.635   8.479 -0.2774 -0.9716  2.6195
   62CHL1  H26B 7063   1.637   2.589   8.508 -2.3487  1.0823 -1.6429
   62CHL1  H26C 7064   1.668   2.718   8.396 -0.1869  0.5550  0.9068
   62CHL1   C27 7065   1.792   2.884   8.601 -0.2255  0.2644  0.7597
   62CHL1  H27A 7066   1.890   2.833   8.585 -1.2241 -2.3435  2.2856
   62CHL1  H27B 7067   1.786   2.963   8.523  2.0751 -1.5117 -1.3940
   62CHL1  H27C 7068   1.797   2.940   8.697  0.3130  0.8432  0.4055
   63CHL1    C3 7069   2.889   5.560  10.397  0.2500  1.0563 -0.1502
   63CHL1    H3 7070   2.912   5.668  10.388 -1.4298  1.6516  2.0068
   63CHL1    O3 7071   2.879   5.527  10.536 -0.3824  0.2659  0.3044
   63CHL1   H3' 7072   2.844   5.438  10.532  0.1742 -0.0107  1.3710
   63CHL1    C4 7073   2.749   5.526  10.348 -0.0804 -0.0030 -0.6206
   63CHL1   H4A 7074   2.727   5.419  10.370  0.6299 -0.2760 -1.1883
   63CHL1   H4B 7075   2.682   5.593  10.405  0.3192 -0.2994  0.2129
   63CHL1    C5 7076   2.744   5.535  10.196 -0.7758  0.1422  0.3370
   63CHL1    C6 7077   2.647   5.601  10.127  0.0544  0.0327  0.2006
   63CHL1    H6 7078   2.568   5.651  10.185 -0.4469  2.4775 -2.3444
   63CHL1    C7 7079   2.642   5.618   9.977  0.4259 -0.5636 -0.4162
   63CHL1   H7A 7080   2.540   5.593   9.939  0.5319 -1.5659 -0.0788
   63CHL1   H7B 7081   2.671   5.724   9.960  1.7689 -0.4589  2.0979
   63CHL1    C8 7082   2.739   5.513   9.907  0.2540 -0.2210 -0.3643
   63CHL1    H8 7083   2.696   5.411   9.911 -1.5486  0.4272 -1.6536
   63CHL1   C14 7084   2.745   5.544   9.751  0.7077 -0.4813  0.1899
   63CHL1   H14 7085   2.793   5.644   9.753  2.8542 -1.3827 -1.6246
   63CHL1   C15 7086   2.614   5.554   9.673 -0.1994 -0.0547 -0.2952
   63CHL1  H15A 7087   2.560   5.459   9.691 -1.2530  0.6715  0.4106
   63CHL1  H15B 7088   2.559   5.637   9.720  0.7080  0.5092 -0.2047
   63CHL1   C16 7089   2.668   5.576   9.530 -0.2267  0.0361  0.2653
   63CHL1  H16A 7090   2.607   5.525   9.453  0.7697 -1.8210  0.6456
   63CHL1  H16B 7091   2.668   5.686   9.515 -0.9197 -0.0234 -0.2061
   63CHL1   C17 7092   2.818   5.536   9.531 -0.2468  0.2596 -0.3015
   63CHL1   H17 7093   2.874   5.632   9.535  0.5641 -0.1994 -0.5418
   63CHL1   C13 7094   2.831   5.458   9.669 -0.5308  0.7004  1.0111
   63CHL1   C18 7095   2.778   5.317   9.650 -0.2388 -0.1227 -0.1129
   63CHL1  H18A 7096   2.854   5.247   9.606  0.2383  1.1715 -1.4333
   63CHL1  H18B 7097   2.747   5.272   9.747  1.3218 -1.5817 -0.2320
   63CHL1  H18C 7098   2.697   5.330   9.575  0.8534 -1.1415 -1.5394
   63CHL1   C12 7099   2.967   5.454   9.735 -0.0891 -0.0204  0.0054
   63CHL1  H12A 7100   3.041   5.382   9.694  2.2092  0.5327  2.8379
   63CHL1  H12B 7101   3.013   5.553   9.717  3.4759 -1.5516 -0.1791
   63CHL1   C11 7102   2.961   5.417   9.889  0.3404 -1.4566  0.8804
   63CHL1  H11A 7103   2.918   5.314   9.895 -1.6341 -0.8091 -0.8800
   63CHL1  H11B 7104   3.068   5.411   9.920  0.6470 -0.7831  0.0006
   63CHL1    C9 7105   2.874   5.512   9.970  0.2074  0.4147 -0.2247
   63CHL1    H9 7106   2.906   5.619   9.964 -1.8430  1.0066 -2.1612
   63CHL1   C10 7107   2.862   5.468  10.121 -0.2350  0.0497 -0.7312
   63CHL1   C19 7108   2.848   5.311  10.131  0.1613  0.4528  0.1554
   63CHL1  H19A 7109   2.764   5.284  10.064 -0.1455 -2.4082  1.5708
   63CHL1  H19B 7110   2.938   5.254  10.099 -1.5668 -1.2663 -1.9298
   63CHL1  H19C 7111   2.825   5.281  10.235  1.5029 -0.0603  0.3225
   63CHL1    C1 7112   2.996   5.505  10.180  0.2109  0.0563 -0.7295
   63CHL1   H1A 7113   3.089   5.454  10.145  1.3347  1.1134  0.5866
   63CHL1   H1B 7114   3.022   5.611  10.160  0.4862 -0.0015 -0.6917
   63CHL1    C2 7115   3.004   5.473  10.330 -0.2081  0.0202  0.2221
   63CHL1   H2A 7116   3.105   5.487  10.375  1.4401 -1.9788 -2.5767
   63CHL1   H2B 7117   2.996   5.369  10.369 -2.2128  0.1506  0.2696
   63CHL1   C20 7118   2.860   5.479   9.394  0.7982 -0.3241 -0.0630
   63CHL1   H20 7119   2.792   5.393   9.377 -1.0167  0.2589  3.4551
   63CHL1   C21 7120   3.005   5.426   9.419 -0.0383 -0.1116 -0.4031
   63CHL1  H21A 7121   3.067   5.499   9.475 -0.8744  0.9912 -0.8833
   63CHL1  H21B 7122   3.050   5.401   9.321  2.1323  0.3173  0.4331
   63CHL1  H21C 7123   2.993   5.333   9.480 -1.2282 -0.5393 -1.2427
   63CHL1   C22 7124   2.859   5.589   9.282  0.4414  0.6097 -0.4715
   63CHL1  H22A 7125   2.756   5.629   9.277  0.9195  1.8705 -0.7772
   63CHL1  H22B 7126   2.927   5.672   9.313  0.9855  0.0149 -0.0404
   63CHL1   C23 7127   2.894   5.535   9.140  0.3384 -0.1873  0.5895
   63CHL1  H23A 7128   2.988   5.476   9.143 -0.0874 -0.9250 -0.1736
   63CHL1  H23B 7129   2.807   5.476   9.105  0.0214  1.3816 -1.5017
   63CHL1   C24 7130   2.901   5.646   9.033  0.2597  0.1164  0.3324
   63CHL1  H24A 7131   2.800   5.677   9.000 -0.3163 -2.8884 -1.0533
   63CHL1  H24B 7132   2.960   5.730   9.076  1.4110  0.0570 -1.0421
   63CHL1   C25 7133   2.971   5.602   8.904  0.4698  0.0193  0.1942
   63CHL1   H25 7134   2.925   5.506   8.874 -1.0199  0.3903  1.2000
   63CHL1   C26 7135   2.947   5.710   8.794 -0.6065 -0.6286  0.1684
   63CHL1  H26A 7136   2.990   5.802   8.839 -1.3526 -0.8109  1.3037
   63CHL1  H26B 7137   2.998   5.674   8.702 -1.2905 -4.3982  1.1137
   63CHL1  H26C 7138   2.840   5.735   8.779 -0.1761  2.6655  1.5850
   63CHL1   C27 7139   3.124   5.584   8.921  0.5263 -0.4242  0.2031
   63CHL1  H27A 7140   3.182   5.529   8.844 -0.1395 -2.1611  0.8652
   63CHL1  H27B 7141   3.182   5.675   8.945 -2.2525  1.0246  2.0630
   63CHL1  H27C 7142   3.140   5.511   9.004 -1.9256 -1.3541 -0.0509
   64CHL1    C3 7143   2.102   4.765   9.914 -0.4010 -0.1833 -0.3292
   64CHL1    H3 7144   2.168   4.848   9.945  1.4916 -1.1785 -1.5372
   64CHL1    O3 7145   2.055   4.702  10.041  0.2065 -0.1678 -0.1372
   64CHL1   H3' 7146   2.129   4.640  10.047  0.2928 -0.0129  0.4126
   64CHL1    C4 7147   1.981   4.814   9.834  0.4914 -0.2740 -0.6735
   64CHL1   H4A 7148   1.906   4.733   9.824 -0.7019  0.3479  2.3025
   64CHL1   H4B 7149   1.925   4.891   9.891 -0.3508  0.7991 -2.7999
   64CHL1    C5 7150   2.012   4.854   9.692 -0.4565 -0.0076  0.0356
   64CHL1    C6 7151   1.972   4.969   9.646  0.7507 -0.2937 -0.9959
   64CHL1    H6 7152   1.924   5.045   9.710 -1.4286 -1.1111 -1.5805
   64CHL1    C7 7153   1.985   5.012   9.501  0.3285 -0.2852  0.0863
   64CHL1   H7A 7154   1.889   5.056   9.467  0.4085 -1.9974 -2.5856
   64CHL1   H7B 7155   2.064   5.091   9.499  1.1730 -1.0656  1.0990
   64CHL1    C8 7156   2.032   4.894   9.403  0.8712 -0.7179 -0.4042
   64CHL1    H8 7157   1.939   4.839   9.378  0.3024 -0.2543  0.6646
   64CHL1   C14 7158   2.089   4.947   9.273 -0.6635  0.1075  0.6755
   64CHL1   H14 7159   2.173   5.010   9.308 -0.0086 -1.4600  2.0616
   64CHL1   C15 7160   1.994   5.044   9.193 -1.2427  1.4742  0.2307
   64CHL1  H15A 7161   1.894   5.002   9.171 -1.4976  2.2445 -0.1082
   64CHL1  H15B 7162   1.986   5.148   9.232 -0.0939  1.5309  0.3560
   64CHL1   C16 7163   2.074   5.054   9.064  0.5153 -0.0756 -0.5770
   64CHL1  H16A 7164   2.010   5.055   8.973 -0.6226  0.5514  0.1999
   64CHL1  H16B 7165   2.127   5.151   9.064  1.0663 -0.3712 -0.4451
   64CHL1   C17 7166   2.185   4.947   9.060 -0.1122 -0.7833  0.0488
   64CHL1   H17 7167   2.275   4.999   9.100 -0.8586  1.2363 -0.7944
   64CHL1   C13 7168   2.143   4.847   9.174  0.1519  0.1076 -0.8903
   64CHL1   C18 7169   2.043   4.742   9.125 -0.0914 -0.3175 -0.6202
   64CHL1  H18A 7170   1.965   4.800   9.071  0.2957  0.7679 -0.0475
   64CHL1  H18B 7171   2.089   4.667   9.057 -0.2178  0.4972 -1.6253
   64CHL1  H18C 7172   1.999   4.679   9.205  0.0132  1.8804  1.2790
   64CHL1   C12 7173   2.259   4.775   9.247  0.6574 -0.9855  0.4431
   64CHL1  H12A 7174   2.300   4.690   9.189  2.2915  0.0724 -0.0138
   64CHL1  H12B 7175   2.339   4.850   9.263 -0.1658 -0.2550  1.3143
   64CHL1   C11 7176   2.210   4.710   9.378  0.2655  0.6994 -0.0078
   64CHL1  H11A 7177   2.141   4.623   9.369  1.4573 -0.9404  4.3591
   64CHL1  H11B 7178   2.299   4.664   9.425 -1.5220 -1.9418  0.9993
   64CHL1    C9 7179   2.139   4.813   9.470  0.5661  0.0012 -0.6803
   64CHL1    H9 7180   2.224   4.882   9.488  0.8635 -0.3905 -0.5577
   64CHL1   C10 7181   2.092   4.759   9.607  0.1914  0.1425 -0.1485
   64CHL1   C19 7182   1.999   4.633   9.574  0.4242 -0.2668 -0.5730
   64CHL1  H19A 7183   1.926   4.603   9.652  1.3512 -0.7087  0.1477
   64CHL1  H19B 7184   1.933   4.653   9.487  0.6091  1.5374 -0.3353
   64CHL1  H19C 7185   2.071   4.552   9.549 -0.6192 -0.7485 -2.1379
   64CHL1    C1 7186   2.216   4.716   9.692 -0.4356 -0.4839 -0.0604
   64CHL1   H1A 7187   2.255   4.628   9.635 -1.0163 -2.9362  3.0808
   64CHL1   H1B 7188   2.291   4.797   9.694 -2.6700  1.6853  1.3152
   64CHL1    C2 7189   2.188   4.670   9.833 -0.1068 -0.3342 -0.1380
   64CHL1   H2A 7190   2.286   4.654   9.882  0.9869  1.4837 -1.6080
   64CHL1   H2B 7191   2.138   4.571   9.823  0.0551 -0.7399  2.3243
   64CHL1   C20 7192   2.211   4.897   8.916 -0.1733 -0.5886  0.3663
   64CHL1   H20 7193   2.112   4.865   8.876 -0.5834  0.1676  0.7501
   64CHL1   C21 7194   2.321   4.790   8.900 -0.0695 -0.1813  0.3115
   64CHL1  H21A 7195   2.418   4.842   8.918  1.0649 -2.3728  0.9517
   64CHL1  H21B 7196   2.326   4.743   8.800 -2.2462 -0.1061  0.1197
   64CHL1  H21C 7197   2.298   4.701   8.962 -0.2821 -0.5727 -0.3270
   64CHL1   C22 7198   2.244   5.023   8.829  0.5038 -0.6647 -0.5760
   64CHL1  H22A 7199   2.161   5.097   8.831  1.3040  0.3146 -1.8786
   64CHL1  H22B 7200   2.334   5.073   8.871  0.5361  0.8936 -2.3484
   64CHL1   C23 7201   2.267   5.002   8.680 -0.7591 -0.8206  0.3690
   64CHL1  H23A 7202   2.278   5.107   8.648  0.0837 -1.2278 -0.7281
   64CHL1  H23B 7203   2.365   4.951   8.668 -0.1444 -0.2498  2.4972
   64CHL1   C24 7204   2.150   4.926   8.614 -0.2318 -0.3118  0.8931
   64CHL1  H24A 7205   2.158   4.820   8.647  1.5728  0.5908  3.7045
   64CHL1  H24B 7206   2.051   4.966   8.644 -0.0061 -0.1116  1.3880
   64CHL1   C25 7207   2.175   4.924   8.465 -0.9016 -0.3372  0.1136
   64CHL1   H25 7208   2.272   4.875   8.441 -0.3139  1.3199 -1.1056
   64CHL1   C26 7209   2.054   4.849   8.402  0.5436 -0.2987  0.6214
   64CHL1  H26A 7210   2.051   4.746   8.444  0.7051 -0.8723 -0.7259
   64CHL1  H26B 7211   1.964   4.910   8.420  0.8288  0.5360 -0.7009
   64CHL1  H26C 7212   2.073   4.843   8.293  1.0926 -0.7610  0.7357
   64CHL1   C27 7213   2.179   5.068   8.398 -0.0862 -0.8281 -0.5684
   64CHL1  H27A 7214   2.088   5.126   8.422  1.3800  0.6907  1.7250
   64CHL1  H27B 7215   2.264   5.132   8.430 -0.3105 -1.1144  0.6459
   64CHL1  H27C 7216   2.181   5.043   8.290 -0.3726  0.4051 -0.8681
   65CHL1    C3 7217   4.141   0.667  10.136  0.0695 -0.8210  0.5610
   65CHL1    H3 7218   4.033   0.649  10.117 -0.2891  0.5760  1.1476
   65CHL1    O3 7219   4.151   0.687  10.276  0.1311 -0.1496 -0.2072
   65CHL1   H3' 7220   4.236   0.728  10.293  1.2990 -2.8442  1.0514
   65CHL1    C4 7221   4.229   0.560  10.088  0.5288 -0.5450  0.1007
   65CHL1   H4A 7222   4.334   0.587  10.114  1.1968 -3.1372  0.2911
   65CHL1   H4B 7223   4.218   0.470  10.151  0.5976 -1.8112 -1.6343
   65CHL1    C5 7224   4.193   0.537   9.942  0.1203 -0.6585 -0.1204
   65CHL1    C6 7225   4.154   0.416   9.903  0.5518 -0.1426 -0.7048
   65CHL1    H6 7226   4.142   0.336   9.978  0.3364  0.2671 -0.2979
   65CHL1    C7 7227   4.143   0.376   9.757  0.1987  0.0763 -0.2660
   65CHL1   H7A 7228   4.202   0.284   9.737  0.4573  0.2867 -0.4996
   65CHL1   H7B 7229   4.035   0.361   9.738 -0.0461 -0.2218  1.2583
   65CHL1    C8 7230   4.206   0.480   9.662 -0.1214 -0.4614  0.3780
   65CHL1    H8 7231   4.316   0.466   9.669 -0.3697 -2.4682  1.0394
   65CHL1   C14 7232   4.157   0.455   9.512 -0.0921 -0.8465 -0.3357
   65CHL1   H14 7233   4.052   0.490   9.512 -0.1617 -1.0087  1.1909
   65CHL1   C15 7234   4.158   0.314   9.467 -0.1668  0.1323 -0.3786
   65CHL1  H15A 7235   4.254   0.264   9.494 -0.0025  0.0165 -1.1656
   65CHL1  H15B 7236   4.073   0.250   9.501  0.4583 -3.4655 -4.7462
   65CHL1   C16 7237   4.159   0.328   9.311 -0.1057 -0.6295  1.4368
   65CHL1  H16A 7238   4.253   0.283   9.272 -1.3129 -1.5928 -0.5657
   65CHL1  H16B 7239   4.074   0.274   9.263 -0.3754 -0.3786  1.6297
   65CHL1   C17 7240   4.173   0.482   9.285 -0.2536  0.2506  0.1507
   65CHL1   H17 7241   4.068   0.518   9.297  0.1467  0.7710  2.7188
   65CHL1   C13 7242   4.228   0.544   9.415 -0.0880 -0.5046 -0.8036
   65CHL1   C18 7243   4.383   0.523   9.417  0.7126  0.3000 -0.1792
   65CHL1  H18A 7244   4.428   0.598   9.349 -0.6766 -0.6038 -2.2441
   65CHL1  H18B 7245   4.431   0.552   9.512  3.0214 -1.3146 -0.7559
   65CHL1  H18C 7246   4.410   0.422   9.379  2.1671  1.3837 -2.1948
   65CHL1   C12 7247   4.188   0.686   9.450 -0.7598  0.3063  0.1279
   65CHL1  H12A 7248   4.249   0.754   9.388 -1.7404  1.0464 -0.0607
   65CHL1  H12B 7249   4.078   0.700   9.440 -0.8328  2.1076  2.4576
   65CHL1   C11 7250   4.219   0.721   9.594 -0.1774 -0.5634 -0.0541
   65CHL1  H11A 7251   4.330   0.725   9.597 -0.2011 -0.2842  0.9732
   65CHL1  H11B 7252   4.181   0.823   9.618  1.5003  0.1950 -0.5015
   65CHL1    C9 7253   4.175   0.623   9.704 -0.7308  0.1140  0.4723
   65CHL1    H9 7254   4.065   0.635   9.701 -0.9710 -1.8441 -1.9350
   65CHL1   C10 7255   4.224   0.654   9.848  0.1235  0.2403 -0.0108
   65CHL1   C19 7256   4.380   0.683   9.850 -0.1641  0.1197  0.1824
   65CHL1  H19A 7257   4.431   0.594   9.807 -3.0593 -1.1714 -0.7786
   65CHL1  H19B 7258   4.396   0.775   9.791  0.9246 -1.4820 -2.1563
   65CHL1  H19C 7259   4.418   0.713   9.950 -1.0405  2.3003 -0.0790
   65CHL1    C1 7260   4.152   0.784   9.905 -0.5267 -0.3899 -0.6997
   65CHL1   H1A 7261   4.190   0.873   9.850  1.7252 -0.3178  0.8061
   65CHL1   H1B 7262   4.042   0.774   9.899 -0.4663 -0.4065 -1.9212
   65CHL1    C2 7263   4.177   0.797  10.056 -0.0522  0.3113 -0.6134
   65CHL1   H2A 7264   4.114   0.880  10.094  1.1971  0.6496  0.8219
   65CHL1   H2B 7265   4.280   0.827  10.085 -0.8977 -0.1688  3.4483
   65CHL1   C20 7266   4.228   0.531   9.148 -0.7152  0.0215 -0.3090
   65CHL1   H20 7267   4.274   0.631   9.160  1.0048 -0.4248 -2.4039
   65CHL1   C21 7268   4.106   0.558   9.056 -0.1687  0.3271 -0.0587
   65CHL1  H21A 7269   4.026   0.618   9.104  1.8180  2.6641  0.5495
   65CHL1  H21B 7270   4.061   0.458   9.036  1.3218 -0.4498  0.2461
   65CHL1  H21C 7271   4.138   0.604   8.960  1.6419  0.6742  0.6775
   65CHL1   C22 7272   4.344   0.454   9.081  0.4114 -0.2803 -0.1915
   65CHL1  H22A 7273   4.423   0.428   9.155 -0.2940  2.2696  1.6439
   65CHL1  H22B 7274   4.307   0.364   9.030 -0.8160 -0.2947  0.6877
   65CHL1   C23 7275   4.407   0.543   8.972  0.5403 -0.0257  0.1147
   65CHL1  H23A 7276   4.327   0.573   8.902  0.6575  1.1661  0.4735
   65CHL1  H23B 7277   4.454   0.638   9.006  0.1611 -0.1867  1.1070
   65CHL1   C24 7278   4.522   0.476   8.900  0.1235 -0.7219 -0.4643
   65CHL1  H24A 7279   4.577   0.543   8.830  2.7403 -1.2979  0.9376
   65CHL1  H24B 7280   4.597   0.453   8.978 -0.7743 -0.7369  0.4126
   65CHL1   C25 7281   4.487   0.365   8.795 -0.5587  0.2205 -0.0050
   65CHL1   H25 7282   4.431   0.287   8.850  0.0135  0.0620  0.3610
   65CHL1   C26 7283   4.387   0.408   8.683  0.1805  0.2147 -0.2451
   65CHL1  H26A 7284   4.283   0.400   8.721 -0.2962  0.6165 -1.3938
   65CHL1  H26B 7285   4.412   0.510   8.647  0.0036  0.3087 -0.1007
   65CHL1  H26C 7286   4.393   0.338   8.597 -1.0340  0.0032 -0.1827
   65CHL1   C27 7287   4.611   0.303   8.731  0.4783  0.1037  0.1333
   65CHL1  H27A 7288   4.673   0.266   8.815  0.1401 -1.1759 -0.1488
   65CHL1  H27B 7289   4.587   0.211   8.673 -1.3816 -0.2201  1.3255
   65CHL1  H27C 7290   4.674   0.374   8.674  0.7727 -0.9476 -0.9009
   66CHL1    C3 7291   3.506   5.404  10.480 -0.5721 -0.6493 -0.5449
   66CHL1    H3 7292   3.458   5.504  10.476  2.7592  1.2389  1.6194
   66CHL1    O3 7293   3.522   5.378  10.619  0.0497 -0.2886  0.2442
   66CHL1   H3' 7294   3.487   5.294  10.650  0.6064 -0.1073  1.4314
   66CHL1    C4 7295   3.419   5.301  10.399 -0.0385 -0.0506  0.1048
   66CHL1   H4A 7296   3.449   5.197  10.425 -2.0861 -0.4656  1.0274
   66CHL1   H4B 7297   3.315   5.313  10.436 -0.5849  2.2359 -1.9166
   66CHL1    C5 7298   3.422   5.318  10.248 -0.2216  0.6451 -0.2411
   66CHL1    C6 7299   3.315   5.323  10.171 -0.6077  0.1892 -0.5338
   66CHL1    H6 7300   3.219   5.293  10.216  1.0560 -1.2421  2.3296
   66CHL1    C7 7301   3.323   5.327  10.020  0.8784 -0.3082 -0.7140
   66CHL1   H7A 7302   3.249   5.255   9.979  1.2972 -0.0937 -1.8882
   66CHL1   H7B 7303   3.285   5.421   9.975  1.1126 -0.4286 -1.1744
   66CHL1    C8 7304   3.459   5.299   9.959  0.3367  0.8731 -0.2378
   66CHL1    H8 7305   3.485   5.191   9.965 -2.1491  0.2949  1.4578
   66CHL1   C14 7306   3.450   5.349   9.816 -0.5471 -0.3365  0.7255
   66CHL1   H14 7307   3.431   5.459   9.820  0.8711 -0.0915  2.7477
   66CHL1   C15 7308   3.350   5.295   9.717  0.4409  0.4299 -0.3126
   66CHL1  H15A 7309   3.331   5.190   9.749 -1.0177  0.5000 -0.8554
   66CHL1  H15B 7310   3.248   5.339   9.722  0.4817  0.4222  1.1563
   66CHL1   C16 7311   3.422   5.301   9.577 -0.5051  0.3860 -0.0120
   66CHL1  H16A 7312   3.442   5.198   9.542 -0.5302  0.6602 -0.8579
   66CHL1  H16B 7313   3.359   5.353   9.502 -0.6973 -0.5383 -0.5098
   66CHL1   C17 7314   3.560   5.369   9.600  0.5626  0.0685 -0.3885
   66CHL1   H17 7315   3.523   5.473   9.594 -0.0448 -0.0583  0.7750
   66CHL1   C13 7316   3.585   5.342   9.750  0.1784 -0.0054  0.2139
   66CHL1   C18 7317   3.640   5.198   9.751 -0.0106 -0.1183 -0.4774
   66CHL1  H18A 7318   3.580   5.119   9.700 -0.0461 -1.6349  1.7604
   66CHL1  H18B 7319   3.736   5.176   9.700  0.7448  0.0260  0.8253
   66CHL1  H18C 7320   3.656   5.157   9.853 -2.1714 -0.3498 -0.1913
   66CHL1   C12 7321   3.697   5.427   9.823 -0.0314 -0.5291 -0.3567
   66CHL1  H12A 7322   3.798   5.402   9.783 -0.0224  1.9352 -2.0840
   66CHL1  H12B 7323   3.670   5.532   9.801 -3.5676 -0.6031  2.7355
   66CHL1   C11 7324   3.702   5.387   9.969  0.3484  0.2576  0.0930
   66CHL1  H11A 7325   3.757   5.290   9.973 -1.6252 -0.8819  1.4700
   66CHL1  H11B 7326   3.769   5.462  10.016 -0.3157  1.2379 -0.4982
   66CHL1    C9 7327   3.563   5.372  10.031 -0.0701 -0.9262 -0.5041
   66CHL1    H9 7328   3.518   5.474  10.034 -0.1525 -0.9415 -1.0010
   66CHL1   C10 7329   3.562   5.339  10.183  0.5782 -0.5535  0.1597
   66CHL1   C19 7330   3.627   5.197  10.204 -0.5196 -0.1228 -0.4677
   66CHL1  H19A 7331   3.567   5.124  10.146 -1.4139  1.1293 -1.1804
   66CHL1  H19B 7332   3.733   5.211  10.175 -0.0554  1.7913  1.8016
   66CHL1  H19C 7333   3.630   5.174  10.313  1.5575  0.5531 -0.3462
   66CHL1    C1 7334   3.625   5.463  10.265  0.0850  0.7330 -0.3210
   66CHL1   H1A 7335   3.731   5.477  10.232 -0.1874  1.9963 -0.6941
   66CHL1   H1B 7336   3.555   5.547  10.250 -1.7722 -1.0509 -2.2812
   66CHL1    C2 7337   3.644   5.428  10.422  0.0758 -1.2179  0.2754
   66CHL1   H2A 7338   3.695   5.519  10.462 -2.8260  0.6792 -0.0014
   66CHL1   H2B 7339   3.706   5.336  10.428  1.0356 -0.4693  3.3645
   66CHL1   C20 7340   3.665   5.337   9.501 -0.3183 -0.4656  0.0909
   66CHL1   H20 7341   3.765   5.353   9.545 -0.7074  0.3843  0.6854
   66CHL1   C21 7342   3.630   5.445   9.390 -0.6134 -0.8911  0.3562
   66CHL1  H21A 7343   3.522   5.440   9.363 -0.8171  0.2796  0.9044
   66CHL1  H21B 7344   3.681   5.415   9.296  1.6674 -1.7091  1.7867
   66CHL1  H21C 7345   3.656   5.547   9.424 -0.3583 -1.1932  1.0774
   66CHL1   C22 7346   3.663   5.202   9.431  0.2655  0.8873  0.5719
   66CHL1  H22A 7347   3.638   5.119   9.500 -1.9536  0.7860 -0.2593
   66CHL1  H22B 7348   3.580   5.214   9.358  1.0198  2.4262 -0.0745
   66CHL1   C23 7349   3.785   5.166   9.350 -0.0157 -0.2389  0.2488
   66CHL1  H23A 7350   3.804   5.248   9.277  1.2002  0.1921  1.0136
   66CHL1  H23B 7351   3.878   5.163   9.412  1.2593  2.5506 -1.3132
   66CHL1   C24 7352   3.767   5.030   9.290 -0.0577  0.2307  0.2119
   66CHL1  H24A 7353   3.730   4.962   9.370  1.0455 -0.3285  0.2756
   66CHL1  H24B 7354   3.690   5.028   9.210  0.3437 -0.6145 -0.1709
   66CHL1   C25 7355   3.907   4.972   9.233 -0.2607  0.6291  0.1682
   66CHL1   H25 7356   3.982   4.981   9.314  0.5115 -0.3634 -0.4162
   66CHL1   C26 7357   3.891   4.826   9.198  0.1442 -0.4330  0.3663
   66CHL1  H26A 7358   3.984   4.777   9.161  0.8380  0.1619  1.2926
   66CHL1  H26B 7359   3.870   4.784   9.298 -1.8724 -0.0540  0.1557
   66CHL1  H26C 7360   3.811   4.795   9.126 -0.7865 -1.7477  1.9048
   66CHL1   C27 7361   3.953   5.050   9.100 -0.3450  0.8221 -0.4715
   66CHL1  H27A 7362   4.050   5.005   9.069 -0.6401 -0.9482  0.9544
   66CHL1  H27B 7363   3.875   5.026   9.025 -0.6919 -1.4575  0.5058
   66CHL1  H27C 7364   3.958   5.160   9.116 -0.0040  0.5741  1.3850
   67CHL1    C3 7365   6.678   0.355  10.242 -0.7800 -0.1508 -0.5575
   67CHL1    H3 7366   6.643   0.441  10.181 -1.8033 -0.2311 -0.1004
   67CHL1    O3 7367   6.683   0.413  10.372  0.1250  0.2931  0.1340
   67CHL1   H3' 7368   6.625   0.352  10.418 -1.9997  2.4670  0.4918
   67CHL1    C4 7369   6.569   0.249  10.234  0.0653 -0.0296 -1.6106
   67CHL1   H4A 7370   6.588   0.173  10.313 -2.3746  2.3162  1.5029
   67CHL1   H4B 7371   6.470   0.293  10.257  1.9870  2.8155  2.7767
   67CHL1    C5 7372   6.581   0.187  10.092  0.3733 -0.1276 -0.2880
   67CHL1    C6 7373   6.481   0.194  10.000 -0.4982 -0.8162 -0.7586
   67CHL1    H6 7374   6.387   0.246  10.023 -1.7333 -2.4000 -1.9410
   67CHL1    C7 7375   6.487   0.133   9.869  0.1381 -0.7489  0.6832
   67CHL1   H7A 7376   6.386   0.096   9.840  0.0181  0.0759  0.0385
   67CHL1   H7B 7377   6.514   0.205   9.790  1.7444 -0.8958  1.0514
   67CHL1    C8 7378   6.595   0.024   9.845 -0.9236 -0.1573  0.2910
   67CHL1    H8 7379   6.577  -0.077   9.888  1.0900 -0.6651  0.0854
   67CHL1   C14 7380   6.621  -0.005   9.700 -0.5655 -0.7528  0.2133
   67CHL1   H14 7381   6.646   0.095   9.658 -2.0956  0.8380  2.7941
   67CHL1   C15 7382   6.499  -0.047   9.617 -0.1738  0.4938 -0.4698
   67CHL1  H15A 7383   6.449  -0.134   9.665  1.2450  0.3409  0.7942
   67CHL1  H15B 7384   6.420   0.030   9.599 -0.8728 -0.7444 -3.0922
   67CHL1   C16 7385   6.554  -0.085   9.478  0.5486  0.5838 -0.4137
   67CHL1  H16A 7386   6.531  -0.191   9.454  0.2349  0.0341  2.0810
   67CHL1  H16B 7387   6.526  -0.019   9.393  1.1520  0.4856 -0.6972
   67CHL1   C17 7388   6.710  -0.082   9.503 -0.3917  0.3489  0.3571
   67CHL1   H17 7389   6.747   0.022   9.489 -0.5018  0.2379 -0.8687
   67CHL1   C13 7390   6.729  -0.102   9.658 -0.5556  0.7049  0.4932
   67CHL1   C18 7391   6.696  -0.243   9.715 -0.2575 -0.0467  0.4569
   67CHL1  H18A 7392   6.591  -0.278   9.700 -0.6170  1.5671 -1.1395
   67CHL1  H18B 7393   6.774  -0.313   9.679  0.7215  0.0730  2.2264
   67CHL1  H18C 7394   6.713  -0.253   9.825 -1.7704  0.0170  0.7188
   67CHL1   C12 7395   6.856  -0.040   9.713  0.1612 -0.4264  0.0420
   67CHL1  H12A 7396   6.942  -0.106   9.691 -0.1206 -0.7157 -0.1988
   67CHL1  H12B 7397   6.881   0.052   9.655 -3.2747 -0.3068 -1.5265
   67CHL1   C11 7398   6.847   0.003   9.862 -0.1350 -0.4419  0.2514
   67CHL1  H11A 7399   6.842  -0.093   9.917  0.7612  0.4666  2.0206
   67CHL1  H11B 7400   6.941   0.047   9.902  0.5003  0.6538 -2.2838
   67CHL1    C9 7401   6.725   0.087   9.899 -0.0631 -0.2181  0.0323
   67CHL1    H9 7402   6.730   0.182   9.842  1.4016 -1.3922 -1.9061
   67CHL1   C10 7403   6.723   0.125  10.056 -0.1711 -0.3035 -0.1332
   67CHL1   C19 7404   6.751   0.004  10.141 -0.0178  0.2466  0.1009
   67CHL1  H19A 7405   6.855  -0.033  10.128  0.7824  2.4560 -0.2212
   67CHL1  H19B 7406   6.743   0.011  10.252  0.0491  2.1551  0.0310
   67CHL1  H19C 7407   6.694  -0.087  10.111  2.0893 -0.0637 -3.5091
   67CHL1    C1 7408   6.834   0.231  10.084 -0.3863  0.6318 -0.0687
   67CHL1   H1A 7409   6.935   0.187  10.085 -0.5014  0.3821  0.3529
   67CHL1   H1B 7410   6.830   0.299   9.996 -1.0197 -0.2237 -0.7188
   67CHL1    C2 7411   6.819   0.301  10.219 -0.1508  0.2253  0.5290
   67CHL1   H2A 7412   6.884   0.391  10.226  0.5245 -0.0028 -1.8999
   67CHL1   H2B 7413   6.849   0.228  10.297  0.7794 -0.5731 -0.5424
   67CHL1   C20 7414   6.788  -0.167   9.398 -0.0275  0.2459 -0.4252
   67CHL1   H20 7415   6.756  -0.273   9.410  1.2951 -0.1177  0.0565
   67CHL1   C21 7416   6.933  -0.164   9.434  0.3286  0.7074  0.4497
   67CHL1  H21A 7417   6.995  -0.208   9.353 -0.0533 -0.2994  0.6839
   67CHL1  H21B 7418   6.959  -0.228   9.521  0.0472  1.3541  1.0225
   67CHL1  H21C 7419   6.967  -0.059   9.445 -0.9978  1.1326  0.7831
   67CHL1   C22 7420   6.759  -0.122   9.256  0.1507  0.1318  0.0918
   67CHL1  H22A 7421   6.832  -0.168   9.186  1.0892  2.6227 -0.6487
   67CHL1  H22B 7422   6.655  -0.146   9.226 -0.1287 -0.4236  1.4337
   67CHL1   C23 7423   6.771   0.034   9.226 -0.6807 -0.4352 -0.5162
   67CHL1  H23A 7424   6.680   0.085   9.264  0.6429  1.2076  0.5906
   67CHL1  H23B 7425   6.857   0.068   9.287 -0.7364 -1.6645  0.2885
   67CHL1   C24 7426   6.811   0.058   9.082 -0.1905 -0.8917 -0.1464
   67CHL1  H24A 7427   6.911   0.018   9.052  1.8252  3.5417 -0.0424
   67CHL1  H24B 7428   6.738   0.011   9.013 -1.3144 -1.6750  1.4885
   67CHL1   C25 7429   6.813   0.207   9.048 -0.4194  0.0276  0.3165
   67CHL1   H25 7430   6.728   0.252   9.104 -1.3727  0.6802 -1.5776
   67CHL1   C26 7431   6.929   0.282   9.106  0.5734 -0.2972  0.2052
   67CHL1  H26A 7432   7.027   0.239   9.075  0.5651 -1.0940  1.2043
   67CHL1  H26B 7433   6.925   0.391   9.084  0.4505 -0.1995  0.6932
   67CHL1  H26C 7434   6.939   0.272   9.217  1.5701 -0.1928  0.1374
   67CHL1   C27 7435   6.787   0.231   8.904 -0.6172  0.2568 -0.2162
   67CHL1  H27A 7436   6.878   0.207   8.845 -1.8332 -1.8607 -1.3812
   67CHL1  H27B 7437   6.699   0.171   8.872  0.2003 -0.3611 -1.3851
   67CHL1  H27C 7438   6.762   0.338   8.890 -1.2482 -0.1180 -2.3056
   68CHL1    C3 7439   4.018   6.706  10.135 -0.0516 -0.8336 -0.4136
   68CHL1    H3 7440   4.080   6.615  10.151 -0.6347 -1.5671 -2.0684
   68CHL1    O3 7441   3.994   6.765  10.258  0.1426  0.7958  0.2757
   68CHL1   H3' 7442   3.928   6.834  10.248  0.2096  0.6909 -1.0384
   68CHL1    C4 7443   4.098   6.805  10.041 -0.8697 -0.9611  0.2539
   68CHL1   H4A 7444   4.060   6.904  10.073  0.7593 -1.0187  2.6261
   68CHL1   H4B 7445   4.201   6.809  10.083 -0.7336 -1.9259  0.0339
   68CHL1    C5 7446   4.089   6.765   9.896  0.4572 -0.1754 -0.5457
   68CHL1    C6 7447   4.208   6.772   9.828 -0.5740 -0.3783  0.3548
   68CHL1    H6 7448   4.305   6.799   9.874  1.0621 -2.3751 -1.6792
   68CHL1    C7 7449   4.209   6.731   9.688 -0.6053  0.1957  0.4447
   68CHL1   H7A 7450   4.280   6.793   9.630 -1.1764  1.0463  0.6286
   68CHL1   H7B 7451   4.230   6.622   9.681 -0.5199  0.3416 -2.9346
   68CHL1    C8 7452   4.062   6.744   9.620  0.0014  0.0353 -0.8769
   68CHL1    H8 7453   4.033   6.851   9.618  0.6830  0.3545  1.9226
   68CHL1   C14 7454   4.065   6.671   9.485 -0.5316 -1.0773  0.3965
   68CHL1   H14 7455   4.092   6.569   9.519  0.0467 -1.0365  0.0730
   68CHL1   C15 7456   4.181   6.709   9.393  0.1013 -0.2971  0.4166
   68CHL1  H15A 7457   4.179   6.819   9.378 -0.2871 -0.4468 -0.6905
   68CHL1  H15B 7458   4.279   6.668   9.428  0.5387 -0.2917 -0.7666
   68CHL1   C16 7459   4.128   6.662   9.258  0.3141  0.3527 -0.5934
   68CHL1  H16A 7460   4.124   6.735   9.175  0.8260 -2.1856 -3.0077
   68CHL1  H16B 7461   4.197   6.580   9.225 -0.3869 -0.3759 -0.2819
   68CHL1   C17 7462   3.987   6.596   9.276  0.1169 -0.2735 -0.0603
   68CHL1   H17 7463   3.999   6.490   9.307 -2.2924 -0.2602  1.1387
   68CHL1   C13 7464   3.936   6.665   9.401  0.0423 -0.7760 -0.1485
   68CHL1   C18 7465   3.893   6.809   9.374  0.6814 -0.0541 -0.2364
   68CHL1  H18A 7466   3.809   6.816   9.302  1.7980  1.5006 -1.4687
   68CHL1  H18B 7467   3.867   6.871   9.462  1.7710 -2.5850  2.0088
   68CHL1  H18C 7468   3.976   6.870   9.333  0.5486 -1.0031 -2.0531
   68CHL1   C12 7469   3.833   6.592   9.488  0.2343  0.8296 -0.5012
   68CHL1  H12A 7470   3.733   6.582   9.439  0.0408 -0.6512  0.1577
   68CHL1  H12B 7471   3.872   6.491   9.512  3.2260  1.7164 -1.2659
   68CHL1   C11 7472   3.816   6.662   9.630 -0.4929  0.1218  0.7275
   68CHL1  H11A 7473   3.774   6.764   9.617 -0.2107  0.1335 -0.1472
   68CHL1  H11B 7474   3.750   6.606   9.700  1.4328 -0.5635  2.0607
   68CHL1    C9 7475   3.957   6.672   9.701  0.0058  0.5367 -0.5278
   68CHL1    H9 7476   3.992   6.568   9.718 -1.2001  0.3519  1.1088
   68CHL1   C10 7477   3.952   6.728   9.847 -0.1964  0.3009 -0.3045
   68CHL1   C19 7478   3.861   6.859   9.858 -0.1394  0.6222  0.0149
   68CHL1  H19A 7479   3.834   6.892   9.960 -0.1449 -1.3691  0.7117
   68CHL1  H19B 7480   3.897   6.933   9.783  0.5800 -1.9347 -2.3394
   68CHL1  H19C 7481   3.756   6.829   9.834 -1.2275  2.2817  2.3634
   68CHL1    C1 7482   3.889   6.617   9.936 -0.0855  0.2858  0.8320
   68CHL1   H1A 7483   3.796   6.585   9.884 -0.1350  0.4890  0.7984
   68CHL1   H1B 7484   3.961   6.533   9.920  0.1771  0.8402 -1.1250
   68CHL1    C2 7485   3.882   6.652  10.083  0.3992 -0.1997 -0.2566
   68CHL1   H2A 7486   3.855   6.567  10.150  0.8642  1.3473  1.9863
   68CHL1   H2B 7487   3.805   6.731  10.092  1.6029  1.0704 -0.8031
   68CHL1   C20 7488   3.897   6.603   9.148  0.1523  0.8575  0.0737
   68CHL1   H20 7489   3.852   6.702   9.124 -0.4395  0.1881 -1.7982
   68CHL1   C21 7490   3.779   6.509   9.171  0.0495 -0.7685  0.7059
   68CHL1  H21A 7491   3.712   6.560   9.244 -1.1612  0.2034 -0.9956
   68CHL1  H21B 7492   3.802   6.406   9.205  2.4871 -0.5793 -0.1580
   68CHL1  H21C 7493   3.718   6.504   9.079  0.1093  0.0402  0.6090
   68CHL1   C22 7494   3.974   6.567   9.017  0.2580  0.3451  0.3111
   68CHL1  H22A 7495   3.908   6.594   8.931  0.5498  1.0461  0.2967
   68CHL1  H22B 7496   4.063   6.634   9.016  1.9312 -1.8003  0.0971
   68CHL1   C23 7497   4.012   6.420   9.001 -0.2776  0.0504 -0.3764
   68CHL1  H23A 7498   4.073   6.379   9.085  0.3034  0.9941 -0.3181
   68CHL1  H23B 7499   3.911   6.375   9.001 -0.7264  1.0301  0.2036
   68CHL1   C24 7500   4.084   6.379   8.872  0.7179 -0.0354 -0.4499
   68CHL1  H24A 7501   4.030   6.407   8.779  0.1584 -0.5059 -0.2779
   68CHL1  H24B 7502   4.181   6.433   8.879  0.4266  0.2816  2.4009
   68CHL1   C25 7503   4.100   6.223   8.859 -0.0452  0.4483 -0.5127
   68CHL1   H25 7504   4.147   6.191   8.954 -2.7043  0.2228  0.8037
   68CHL1   C26 7505   3.970   6.146   8.841  0.1155 -1.0057  0.4535
   68CHL1  H26A 7506   3.898   6.162   8.924  0.9740  1.9390  0.7632
   68CHL1  H26B 7507   3.927   6.199   8.753  0.7402 -1.4717 -0.1448
   68CHL1  H26C 7508   3.996   6.041   8.814 -0.3630 -1.3131  1.1582
   68CHL1   C27 7509   4.186   6.206   8.735  0.1489 -0.0168 -0.6571
   68CHL1  H27A 7510   4.169   6.282   8.656  2.6198  0.7650 -0.5055
   68CHL1  H27B 7511   4.292   6.228   8.760  0.0165  1.1543 -1.0870
   68CHL1  H27C 7512   4.173   6.104   8.693 -1.3529  0.9626 -2.7460
   69CHL1    C3 7513   4.242   3.503   6.800  1.0034 -0.0041  0.5442
   69CHL1    H3 7514   4.246   3.611   6.826  0.2682 -0.4511  2.6782
   69CHL1    O3 7515   4.229   3.482   6.659  0.1390 -0.2097 -0.4538
   69CHL1   H3' 7516   4.177   3.557   6.630 -1.3116 -1.4699 -1.2390
   69CHL1    C4 7517   4.386   3.455   6.848  0.3775  0.4946 -0.3967
   69CHL1   H4A 7518   4.402   3.352   6.812  0.4554  0.7548 -1.1226
   69CHL1   H4B 7519   4.462   3.519   6.797 -0.0906  1.1468 -0.2825
   69CHL1    C5 7520   4.399   3.451   7.006  0.0121 -0.0464  0.1225
   69CHL1    C6 7521   4.500   3.519   7.072  0.3953  0.8283 -0.1995
   69CHL1    H6 7522   4.579   3.573   7.018 -0.0038  3.0245  1.2721
   69CHL1    C7 7523   4.513   3.526   7.222 -0.2143  0.1051 -0.4889
   69CHL1   H7A 7524   4.619   3.515   7.252  0.0202  1.4427 -0.7632
   69CHL1   H7B 7525   4.481   3.627   7.257 -1.5297 -0.2777 -0.5268
   69CHL1    C8 7526   4.431   3.414   7.289 -0.7527  0.0516  0.2683
   69CHL1    H8 7527   4.491   3.322   7.276 -1.0661 -0.2103  0.6442
   69CHL1   C14 7528   4.420   3.436   7.444  0.4135 -0.5502  0.5716
   69CHL1   H14 7529   4.357   3.527   7.453 -0.4184 -0.6368 -2.7436
   69CHL1   C15 7530   4.546   3.455   7.526 -0.5100  0.0892 -0.1078
   69CHL1  H15A 7531   4.641   3.408   7.495  0.6111  1.0948  1.6528
   69CHL1  H15B 7532   4.566   3.564   7.532 -1.4782  0.3619 -1.3104
   69CHL1   C16 7533   4.509   3.410   7.672 -0.6313  0.2753 -0.9603
   69CHL1  H16A 7534   4.578   3.335   7.716 -1.7201  0.5820  1.4068
   69CHL1  H16B 7535   4.513   3.493   7.745 -0.6237 -0.8175  0.3153
   69CHL1   C17 7536   4.359   3.367   7.670  0.6069 -0.0995  0.3279
   69CHL1   H17 7537   4.292   3.451   7.697  0.1940 -0.2850 -0.1053
   69CHL1   C13 7538   4.336   3.332   7.517  0.2768  0.6843  0.0597
   69CHL1   C18 7539   4.394   3.187   7.487  0.3506  0.9203  0.7288
   69CHL1  H18A 7540   4.402   3.159   7.379  1.0089 -0.5725  1.1432
   69CHL1  H18B 7541   4.491   3.176   7.539  0.1874 -0.6943  0.7383
   69CHL1  H18C 7542   4.338   3.098   7.524  2.2662  0.0154  1.5864
   69CHL1   C12 7543   4.193   3.344   7.463  0.7593  0.2511  0.7104
   69CHL1  H12A 7544   4.113   3.283   7.511 -1.4883  2.9220  0.6105
   69CHL1  H12B 7545   4.170   3.449   7.490  0.2182  0.7398 -1.4491
   69CHL1   C11 7546   4.188   3.323   7.311 -0.0521  0.0995  0.6418
   69CHL1  H11A 7547   4.190   3.213   7.295  3.0432 -0.2350  2.4191
   69CHL1  H11B 7548   4.084   3.353   7.286  0.2024  0.5720  0.1408
   69CHL1    C9 7549   4.287   3.405   7.225 -0.1988  0.1586 -1.4201
   69CHL1    H9 7550   4.256   3.510   7.242 -0.9431 -0.4569  1.5032
   69CHL1   C10 7551   4.284   3.382   7.077 -0.4371 -0.9930 -0.0067
   69CHL1   C19 7552   4.303   3.230   7.054  0.0841  0.1139 -0.3579
   69CHL1  H19A 7553   4.390   3.193   7.111  0.2387 -0.7769 -1.1531
   69CHL1  H19B 7554   4.214   3.169   7.083  0.0366  1.2023  2.0032
   69CHL1  H19C 7555   4.320   3.213   6.946 -1.5667 -0.8005 -0.5045
   69CHL1    C1 7556   4.151   3.443   7.022  0.0269 -0.8430 -0.2046
   69CHL1   H1A 7557   4.057   3.398   7.061 -1.8494  2.3853 -0.6123
   69CHL1   H1B 7558   4.152   3.549   7.056  2.6938  0.2184 -3.1477
   69CHL1    C2 7559   4.140   3.420   6.868  0.1654  0.1752 -0.4201
   69CHL1   H2A 7560   4.042   3.466   6.842 -0.3799  0.0470  1.2238
   69CHL1   H2B 7561   4.132   3.311   6.844  1.3087 -0.6904  2.6522
   69CHL1   C20 7562   4.325   3.252   7.770  0.5537 -0.5727  0.5577
   69CHL1   H20 7563   4.381   3.162   7.737 -1.2218 -0.7419 -2.2667
   69CHL1   C21 7564   4.175   3.229   7.771  0.0161 -0.5131 -0.3874
   69CHL1  H21A 7565   4.133   3.332   7.773  0.2425 -0.4290  0.8627
   69CHL1  H21B 7566   4.153   3.171   7.864  2.9641  0.3596  0.9571
   69CHL1  H21C 7567   4.148   3.178   7.676  0.1511 -0.6082 -0.3749
   69CHL1   C22 7568   4.383   3.282   7.914  0.1355  0.3512 -0.6493
   69CHL1  H22A 7569   4.489   3.313   7.903 -0.2838  1.6653 -1.2281
   69CHL1  H22B 7570   4.325   3.364   7.963  0.7645  2.0119 -2.5556
   69CHL1   C23 7571   4.389   3.157   8.000  0.5103 -0.2546 -0.5663
   69CHL1  H23A 7572   4.292   3.118   8.035  0.8492  0.1676  0.8915
   69CHL1  H23B 7573   4.425   3.077   7.931  0.7381  1.0607 -2.0305
   69CHL1   C24 7574   4.486   3.174   8.120  0.5971  0.3009  0.3794
   69CHL1  H24A 7575   4.488   3.076   8.173 -1.9661  0.0084  0.1106
   69CHL1  H24B 7576   4.586   3.185   8.073  0.5258 -0.1657  0.1097
   69CHL1   C25 7577   4.452   3.291   8.215  0.8544 -0.4950 -0.3495
   69CHL1   H25 7578   4.457   3.384   8.154  1.9124 -0.3743 -0.0958
   69CHL1   C26 7579   4.313   3.286   8.271 -0.0249  0.4123  0.1061
   69CHL1  H26A 7580   4.306   3.379   8.330 -1.4742  0.3734  0.0364
   69CHL1  H26B 7581   4.230   3.288   8.197 -0.0572  0.2111  0.1356
   69CHL1  H26C 7582   4.308   3.204   8.346 -0.2219  0.5909  0.2892
   69CHL1   C27 7583   4.549   3.309   8.329  0.0063  0.2264 -0.0285
   69CHL1  H27A 7584   4.554   3.214   8.386 -1.0343 -1.1845 -2.2010
   69CHL1  H27B 7585   4.647   3.348   8.293  0.2788  1.2352  1.6404
   69CHL1  H27C 7586   4.511   3.383   8.403  0.6105 -1.7314  2.3831
   70CHL1    C3 7587   3.631   1.706   7.012  0.1694  0.1005 -0.1212
   70CHL1    H3 7588   3.527   1.669   7.020  0.0363  0.4620 -0.1455
   70CHL1    O3 7589   3.674   1.706   6.877  0.8259  0.5928  0.0116
   70CHL1   H3' 7590   3.682   1.615   6.850  0.5560  0.2917  0.9148
   70CHL1    C4 7591   3.654   1.849   7.066  1.1107 -1.1742 -0.1509
   70CHL1   H4A 7592   3.761   1.874   7.045  0.6289  1.7993  0.4307
   70CHL1   H4B 7593   3.593   1.920   7.007  0.2755 -1.5475  0.2542
   70CHL1    C5 7594   3.613   1.852   7.220  0.3809 -0.1021  0.2756
   70CHL1    C6 7595   3.515   1.933   7.262  0.3279  0.3222  1.0104
   70CHL1    H6 7596   3.483   2.011   7.191 -1.1025 -1.2074 -0.1040
   70CHL1    C7 7597   3.474   1.947   7.405  0.2865  0.5294 -0.0573
   70CHL1   H7A 7598   3.443   2.051   7.429 -0.5111  0.0738  0.9847
   70CHL1   H7B 7599   3.379   1.893   7.427  0.5082  0.2543  0.2530
   70CHL1    C8 7600   3.580   1.890   7.500  0.0033 -0.1737 -0.4434
   70CHL1    H8 7601   3.663   1.964   7.510  1.1125 -0.9781 -2.7930
   70CHL1   C14 7602   3.530   1.879   7.644 -0.5111  0.3780  0.3716
   70CHL1   H14 7603   3.454   1.797   7.642  0.1459 -0.2234 -0.5384
   70CHL1   C15 7604   3.461   1.996   7.701 -0.2015 -1.0416 -0.3057
   70CHL1  H15A 7605   3.511   2.085   7.659 -0.7458 -0.5685  0.0381
   70CHL1  H15B 7606   3.352   2.005   7.681 -0.1594 -0.4351 -0.2670
   70CHL1   C16 7607   3.482   1.979   7.851  0.7388  0.2121  0.1731
   70CHL1  H16A 7608   3.545   2.062   7.890 -0.4325 -0.0208  2.8403
   70CHL1  H16B 7609   3.385   1.978   7.907 -0.2073 -0.6601 -1.4093
   70CHL1   C17 7610   3.549   1.845   7.876 -0.2321  0.8580 -0.3071
   70CHL1   H17 7611   3.471   1.767   7.866 -1.1320  1.3843  1.9177
   70CHL1   C13 7612   3.636   1.822   7.749 -0.3808  0.2187 -0.0977
   70CHL1   C18 7613   3.764   1.902   7.751  1.0097 -0.2310 -0.1043
   70CHL1  H18A 7614   3.751   2.005   7.790  1.1164 -0.7463  1.3620
   70CHL1  H18B 7615   3.833   1.865   7.831 -0.4887  0.8016  1.7257
   70CHL1  H18C 7616   3.806   1.908   7.649 -0.3974 -1.0067 -0.7605
   70CHL1   C12 7617   3.654   1.675   7.699  0.1828  0.6785 -0.7612
   70CHL1  H12A 7618   3.733   1.629   7.761 -0.7336  0.5321  0.3213
   70CHL1  H12B 7619   3.560   1.616   7.701 -0.4633  1.7134  0.7978
   70CHL1   C11 7620   3.708   1.668   7.555  0.7501 -0.2992 -1.2336
   70CHL1  H11A 7621   3.811   1.709   7.561  0.1921  0.9398  0.9414
   70CHL1  H11B 7622   3.708   1.564   7.515 -0.3161 -0.3114 -1.2330
   70CHL1    C9 7623   3.626   1.750   7.454 -0.2607  1.3293  0.0629
   70CHL1    H9 7624   3.539   1.683   7.442  1.2743 -0.6808 -0.4184
   70CHL1   C10 7625   3.689   1.751   7.308  0.2803 -0.2051  0.5275
   70CHL1   C19 7626   3.828   1.800   7.329 -1.1099  0.0607  0.1243
   70CHL1  H19A 7627   3.873   1.840   7.235 -2.2356 -1.3581 -1.0695
   70CHL1  H19B 7628   3.837   1.879   7.407  1.7887  0.7144 -0.7421
   70CHL1  H19C 7629   3.893   1.712   7.349  1.2129  1.0985 -2.1861
   70CHL1    C1 7630   3.689   1.612   7.245 -0.6632  0.2193 -0.5643
   70CHL1   H1A 7631   3.772   1.551   7.287 -1.0912  0.4093  0.5919
   70CHL1   H1B 7632   3.589   1.569   7.264  0.5462 -2.5920 -0.0230
   70CHL1    C2 7633   3.713   1.605   7.092  0.0839 -0.4395  0.1055
   70CHL1   H2A 7634   3.717   1.499   7.058 -3.1372 -0.1769 -1.3986
   70CHL1   H2B 7635   3.819   1.636   7.079  0.0883 -1.0147 -1.4281
   70CHL1   C20 7636   3.622   1.827   8.015 -0.1061 -0.5766 -0.4165
   70CHL1   H20 7637   3.714   1.889   8.026  0.5278 -1.4297 -0.7973
   70CHL1   C21 7638   3.671   1.681   8.039  0.0492  0.0895  0.0355
   70CHL1  H21A 7639   3.755   1.674   7.966  0.3836 -0.0522  0.4283
   70CHL1  H21B 7640   3.595   1.602   8.019  1.1494 -1.4186  1.4697
   70CHL1  H21C 7641   3.711   1.669   8.142 -1.6660  0.7388  0.8133
   70CHL1   C22 7642   3.529   1.857   8.136 -1.3510  0.3977  0.2182
   70CHL1  H22A 7643   3.427   1.816   8.116 -1.0246 -0.7842  0.9221
   70CHL1  H22B 7644   3.568   1.794   8.218 -0.2342 -0.0111 -0.6057
   70CHL1   C23 7645   3.530   2.001   8.174 -0.0218  0.3981 -0.6794
   70CHL1  H23A 7646   3.627   2.051   8.195  0.6793 -0.9535 -0.5977
   70CHL1  H23B 7647   3.475   2.056   8.095  0.0584  0.2761 -0.8203
   70CHL1   C24 7648   3.455   2.021   8.310 -0.0994  0.4945  0.1069
   70CHL1  H24A 7649   3.353   1.978   8.295 -0.5424  1.7287 -0.6249
   70CHL1  H24B 7650   3.513   1.974   8.392  0.7524 -0.5956 -1.0834
   70CHL1   C25 7651   3.419   2.169   8.348  0.2629 -0.0320 -0.4536
   70CHL1   H25 7652   3.508   2.232   8.367  0.4075 -0.1304 -0.8112
   70CHL1   C26 7653   3.333   2.239   8.238  0.3031 -1.1040  0.5129
   70CHL1  H26A 7654   3.238   2.181   8.229  0.4168 -1.0746 -1.1435
   70CHL1  H26B 7655   3.318   2.346   8.265  0.2526 -0.4146 -2.0584
   70CHL1  H26C 7656   3.383   2.242   8.139 -1.5652  1.4199 -0.4494
   70CHL1   C27 7657   3.339   2.186   8.485  0.3189  1.1364  0.6422
   70CHL1  H27A 7658   3.235   2.149   8.473  1.2681 -2.0599  1.3971
   70CHL1  H27B 7659   3.377   2.142   8.579 -0.4486  3.2297  1.9948
   70CHL1  H27C 7660   3.345   2.295   8.506  2.7322  1.4433 -1.1485
   71CHL1    C3 7661   4.972   2.448   6.677 -0.5932 -0.0460  0.9072
   71CHL1    H3 7662   4.864   2.454   6.700 -1.1439  0.5193 -1.5217
   71CHL1    O3 7663   4.984   2.470   6.537 -0.7511 -0.4236 -0.5389
   71CHL1   H3' 7664   5.078   2.475   6.518 -0.8348 -0.5014 -0.9783
   71CHL1    C4 7665   5.045   2.558   6.755 -0.2370 -0.1124  0.2659
   71CHL1   H4A 7666   5.154   2.560   6.733 -0.1539  0.0927  0.6722
   71CHL1   H4B 7667   5.016   2.659   6.719 -1.6585  0.7267  3.4058
   71CHL1    C5 7668   5.029   2.546   6.904 -0.6837 -0.1668 -0.3674
   71CHL1    C6 7669   4.975   2.640   6.978  0.5105  0.1439 -0.3824
   71CHL1    H6 7670   4.948   2.744   6.953 -1.3928  0.1792  1.5435
   71CHL1    C7 7671   4.962   2.634   7.128  0.8648 -0.3061 -0.0861
   71CHL1   H7A 7672   4.987   2.731   7.175 -0.6974 -0.0603  0.3109
   71CHL1   H7B 7673   4.854   2.626   7.152  0.6669  2.9367  0.5471
   71CHL1    C8 7674   5.032   2.513   7.186 -0.1896  0.1363 -0.4228
   71CHL1    H8 7675   5.143   2.522   7.191 -0.0419 -1.6555  0.2540
   71CHL1   C14 7676   4.985   2.484   7.329 -0.5917 -0.3055  0.2509
   71CHL1   H14 7677   4.879   2.454   7.314 -1.6728  2.6320  1.2027
   71CHL1   C15 7678   4.993   2.599   7.432 -0.0028 -0.3452 -0.7305
   71CHL1  H15A 7679   5.098   2.637   7.438  0.5978 -1.9007 -0.9852
   71CHL1  H15B 7680   4.930   2.685   7.403 -1.2143 -1.0872 -0.3719
   71CHL1   C16 7681   4.956   2.523   7.560 -0.6281 -0.2792  1.0109
   71CHL1  H16A 7682   5.016   2.559   7.646  1.0545 -1.5042  0.3977
   71CHL1  H16B 7683   4.854   2.558   7.589 -1.0583  0.4597 -1.1825
   71CHL1   C17 7684   4.967   2.373   7.536  0.6712 -0.0316  0.1029
   71CHL1   H17 7685   4.860   2.345   7.523  0.1439  1.0327  1.7413
   71CHL1   C13 7686   5.045   2.365   7.397 -0.3592 -0.4520  0.1551
   71CHL1   C18 7687   5.198   2.392   7.420  0.0502  0.4225  0.1668
   71CHL1  H18A 7688   5.248   2.402   7.321  0.6748 -0.9506  0.3232
   71CHL1  H18B 7689   5.212   2.481   7.485 -0.3030  1.9524 -1.7508
   71CHL1  H18C 7690   5.243   2.303   7.468 -0.6244  0.6416  1.2354
   71CHL1   C12 7691   5.026   2.240   7.311  0.5374  0.4984  0.0815
   71CHL1  H12A 7692   5.073   2.147   7.349 -2.0101 -0.2071  1.7310
   71CHL1  H12B 7693   4.919   2.218   7.297  0.7851 -0.2165 -0.7813
   71CHL1   C11 7694   5.064   2.260   7.170 -0.8918 -0.1463 -0.1764
   71CHL1  H11A 7695   5.175   2.256   7.172 -0.8335  1.0788  1.3767
   71CHL1  H11B 7696   5.040   2.166   7.116  1.5115 -1.4193  0.8359
   71CHL1    C9 7697   5.008   2.389   7.100  0.2911  0.3247  0.1674
   71CHL1    H9 7698   4.897   2.377   7.099  0.5462 -3.1357  0.0073
   71CHL1   C10 7699   5.066   2.404   6.962 -0.3648 -0.1618 -0.0041
   71CHL1   C19 7700   5.222   2.386   6.958  0.7829 -0.5847 -0.5893
   71CHL1  H19A 7701   5.271   2.403   6.860 -1.6378  0.2668 -1.7385
   71CHL1  H19B 7702   5.268   2.457   7.030  0.9194 -0.1561 -1.0871
   71CHL1  H19C 7703   5.244   2.281   6.986  0.2126 -1.0632 -1.8401
   71CHL1    C1 7704   5.006   2.292   6.875 -0.1902 -0.3443 -0.4188
   71CHL1   H1A 7705   5.051   2.193   6.897  0.5731  0.0451 -0.1999
   71CHL1   H1B 7706   4.897   2.289   6.898  0.0668  0.8867  1.0912
   71CHL1    C2 7707   5.023   2.309   6.721  0.5442  0.7965  0.2172
   71CHL1   H2A 7708   4.978   2.237   6.650  2.3836 -0.3886  0.1963
   71CHL1   H2B 7709   5.132   2.301   6.702  0.2955 -1.2502 -0.5209
   71CHL1   C20 7710   5.011   2.297   7.660  0.7299  0.7921 -0.2669
   71CHL1   H20 7711   5.115   2.334   7.675  1.8378 -1.6399 -1.4077
   71CHL1   C21 7712   5.025   2.146   7.635 -0.3438  0.2879  0.3456
   71CHL1  H21A 7713   4.937   2.117   7.574  0.6390 -1.1720 -0.4249
   71CHL1  H21B 7714   5.021   2.086   7.729 -0.2963 -0.7700 -0.3130
   71CHL1  H21C 7715   5.118   2.130   7.577  0.2669  0.3792  1.2680
   71CHL1   C22 7716   4.935   2.336   7.788  0.6200  0.3598 -0.5361
   71CHL1  H22A 7717   4.915   2.445   7.793  1.3582  0.4444  2.6006
   71CHL1  H22B 7718   4.842   2.276   7.785 -0.7136  2.2782  0.3035
   71CHL1   C23 7719   5.019   2.301   7.912 -0.3257 -0.0685 -0.1687
   71CHL1  H23A 7720   5.033   2.192   7.924  1.1635 -0.0986 -1.7208
   71CHL1  H23B 7721   5.123   2.342   7.907 -0.1911  0.2019  2.8258
   71CHL1   C24 7722   4.967   2.370   8.032  0.8418  0.0507 -0.3850
   71CHL1  H24A 7723   4.949   2.476   8.006  2.6481  0.0440 -1.9209
   71CHL1  H24B 7724   4.874   2.312   8.049  0.5528  0.9545  1.3586
   71CHL1   C25 7725   5.051   2.367   8.163 -0.5513 -0.0159 -0.4797
   71CHL1   H25 7726   5.133   2.442   8.152  0.7772 -1.6207 -2.1582
   71CHL1   C26 7727   4.959   2.416   8.275  0.1061  0.2090  0.1716
   71CHL1  H26A 7728   4.906   2.514   8.267  0.5232  0.3923 -0.3952
   71CHL1  H26B 7729   4.877   2.341   8.281 -0.4980  0.8594  0.1825
   71CHL1  H26C 7730   5.011   2.421   8.373 -0.1418 -0.9840  0.3880
   71CHL1   C27 7731   5.107   2.228   8.186  0.0192  0.2979 -0.6630
   71CHL1  H27A 7732   5.157   2.221   8.285  2.8731  2.5962 -1.8178
   71CHL1  H27B 7733   5.029   2.152   8.160  0.0573 -0.6020  1.6306
   71CHL1  H27C 7734   5.190   2.211   8.115 -0.0699 -0.1221 -0.6716
   72CHL1    C3 7735   4.831   1.399   7.111  0.2624  0.5091  0.3990
   72CHL1    H3 7736   4.918   1.448   7.160  0.1335  2.0712 -0.8429
   72CHL1    O3 7737   4.852   1.405   6.970  0.8904 -0.5678 -0.1644
   72CHL1   H3' 7738   4.777   1.458   6.940  0.5312 -0.1099  1.4680
   72CHL1    C4 7739   4.837   1.253   7.162 -0.3349  0.0535  0.4739
   72CHL1   H4A 7740   4.776   1.183   7.100  1.9251 -0.8145 -0.8966
   72CHL1   H4B 7741   4.940   1.226   7.133 -0.4363  0.7598 -0.6138
   72CHL1    C5 7742   4.804   1.254   7.309  0.4811 -0.2657 -0.2697
   72CHL1    C6 7743   4.890   1.201   7.393  0.6904 -0.2063 -0.2172
   72CHL1    H6 7744   4.976   1.152   7.346 -1.6746 -3.1771 -1.7907
   72CHL1    C7 7745   4.870   1.180   7.543 -0.4844  0.1235  0.4631
   72CHL1   H7A 7746   4.883   1.074   7.573 -3.0560 -0.4006 -0.0644
   72CHL1   H7B 7747   4.941   1.240   7.605 -0.8785 -0.5441  1.6017
   72CHL1    C8 7748   4.724   1.222   7.585  0.3301  0.6914  0.0110
   72CHL1    H8 7749   4.666   1.129   7.568  2.2741 -0.7305  0.7782
   72CHL1   C14 7750   4.717   1.243   7.734  0.0892 -0.4491 -0.2845
   72CHL1   H14 7751   4.783   1.330   7.756 -0.9855  0.5168 -0.7800
   72CHL1   C15 7752   4.776   1.135   7.824 -0.1799 -0.4665  0.0090
   72CHL1  H15A 7753   4.733   1.038   7.790  0.5635 -0.4898 -0.8828
   72CHL1  H15B 7754   4.886   1.147   7.824 -0.0795 -1.2592  0.5073
   72CHL1   C16 7755   4.725   1.183   7.964 -0.2185  0.1249 -0.2291
   72CHL1  H16A 7756   4.690   1.084   8.001  1.1319  0.1660  1.2621
   72CHL1  H16B 7757   4.787   1.222   8.047 -0.2738 -2.0548  0.9288
   72CHL1   C17 7758   4.610   1.280   7.940 -0.0369 -0.3636  0.1782
   72CHL1   H17 7759   4.652   1.382   7.957  0.9235 -0.8178  0.5415
   72CHL1   C13 7760   4.581   1.275   7.791  0.1602 -0.1065  0.3171
   72CHL1   C18 7761   4.481   1.160   7.768  0.2397  0.1900 -0.0024
   72CHL1  H18A 7762   4.486   1.123   7.663  1.0209 -0.3091  0.1978
   72CHL1  H18B 7763   4.501   1.069   7.829 -2.1805 -0.1868  0.3080
   72CHL1  H18C 7764   4.379   1.191   7.796  0.1259 -0.0476 -0.1485
   72CHL1   C12 7765   4.543   1.411   7.723 -0.5493 -0.1643 -0.1728
   72CHL1  H12A 7766   4.445   1.443   7.763  0.7696  0.0190  3.1876
   72CHL1  H12B 7767   4.615   1.494   7.739 -2.0380  1.4432 -1.4192
   72CHL1   C11 7768   4.530   1.391   7.569  0.3110  0.2635 -0.5948
   72CHL1  H11A 7769   4.449   1.317   7.552 -0.5751  1.1553 -0.3615
   72CHL1  H11B 7770   4.509   1.490   7.524  0.0383  0.6536  0.3771
   72CHL1    C9 7771   4.664   1.340   7.515  0.4106 -0.0552  0.6784
   72CHL1    H9 7772   4.729   1.424   7.547 -0.1410 -0.5148  3.2477
   72CHL1   C10 7773   4.674   1.324   7.361 -0.2818 -0.5166 -0.8010
   72CHL1   C19 7774   4.554   1.239   7.324 -0.2716 -0.3772  0.7482
   72CHL1  H19A 7775   4.541   1.166   7.406 -0.6095 -1.2519 -0.0543
   72CHL1  H19B 7776   4.451   1.280   7.325 -0.3755 -0.4942 -1.1816
   72CHL1  H19C 7777   4.570   1.176   7.234  0.3342 -0.4920  0.9310
   72CHL1    C1 7778   4.659   1.462   7.297  0.5004  0.3719  0.7226
   72CHL1   H1A 7779   4.556   1.503   7.306 -1.1813 -3.4363  1.0387
   72CHL1   H1B 7780   4.726   1.530   7.354  3.1838 -1.2071 -0.3456
   72CHL1    C2 7781   4.693   1.465   7.143  0.2155 -0.3812 -0.1094
   72CHL1   H2A 7782   4.674   1.563   7.094 -3.5980 -0.6794  0.4899
   72CHL1   H2B 7783   4.620   1.394   7.100 -0.7636 -0.0798  1.0087
   72CHL1   C20 7784   4.498   1.262   8.047 -0.7079 -0.4271  0.2623
   72CHL1   H20 7785   4.448   1.166   8.020 -0.3655 -0.4404 -0.3505
   72CHL1   C21 7786   4.385   1.362   8.029  0.4269 -0.3370  0.9696
   72CHL1  H21A 7787   4.431   1.462   8.017 -0.1847 -0.3715 -3.5232
   72CHL1  H21B 7788   4.311   1.352   8.112  2.1217 -0.1292  2.5674
   72CHL1  H21C 7789   4.332   1.339   7.934  1.6237 -1.2018  0.4878
   72CHL1   C22 7790   4.559   1.248   8.195 -0.0139 -0.1741  0.2781
   72CHL1  H22A 7791   4.642   1.175   8.201  1.0471  0.5427 -3.3324
   72CHL1  H22B 7792   4.600   1.349   8.216  0.3940 -0.3135  0.1530
   72CHL1   C23 7793   4.444   1.229   8.300 -0.3352 -0.2985  0.0804
   72CHL1  H23A 7794   4.393   1.326   8.320 -0.3277 -0.5690  1.5607
   72CHL1  H23B 7795   4.371   1.157   8.258  0.6399 -1.8200  0.8826
   72CHL1   C24 7796   4.494   1.174   8.439  0.1375  0.2129 -0.0900
   72CHL1  H24A 7797   4.580   1.106   8.420  0.8192  0.8525  0.5748
   72CHL1  H24B 7798   4.535   1.261   8.495  0.5179  0.2974 -0.4951
   72CHL1   C25 7799   4.388   1.106   8.528 -0.1766  0.5523 -0.2089
   72CHL1   H25 7800   4.436   1.092   8.628  2.0355  0.0742 -1.2594
   72CHL1   C26 7801   4.269   1.192   8.541  1.0415  0.0728  0.2410
   72CHL1  H26A 7802   4.201   1.147   8.617  0.7606 -0.0791 -0.0989
   72CHL1  H26B 7803   4.289   1.292   8.584 -2.8386  0.7563  0.8342
   72CHL1  H26C 7804   4.226   1.211   8.440  0.2491 -1.0187  0.3583
   72CHL1   C27 7805   4.358   0.964   8.480  0.5678  0.5436  0.6289
   72CHL1  H27A 7806   4.265   0.928   8.527  0.0651  0.2208 -0.5906
   72CHL1  H27B 7807   4.345   0.973   8.370  3.5212  0.8307  0.2125
   72CHL1  H27C 7808   4.444   0.894   8.488  2.0421  1.7265 -2.7880
   73CHL1    C3 7809   3.761   3.803   6.961  0.6047  0.1591  0.3373
   73CHL1    H3 7810   3.653   3.785   6.980  0.3183  1.3528 -0.0311
   73CHL1    O3 7811   3.778   3.850   6.831 -0.1895  0.5596 -0.3786
   73CHL1   H3' 7812   3.746   3.776   6.779  0.1042 -0.0410  0.2733
   73CHL1    C4 7813   3.800   3.920   7.055  0.6225 -0.4819 -0.4505
   73CHL1   H4A 7814   3.899   3.962   7.026  1.3851  0.1986  2.6691
   73CHL1   H4B 7815   3.732   4.004   7.028 -1.5534 -2.5220 -1.6845
   73CHL1    C5 7816   3.789   3.878   7.199  0.2036  0.2449 -0.5501
   73CHL1    C6 7817   3.721   3.951   7.281 -0.3223 -0.4935  0.7291
   73CHL1    H6 7818   3.667   4.040   7.244 -0.1997 -1.2956 -1.5462
   73CHL1    C7 7819   3.717   3.935   7.428 -0.0574 -0.4832 -0.1581
   73CHL1   H7A 7820   3.720   4.037   7.473  1.9303  0.1694 -1.6347
   73CHL1   H7B 7821   3.617   3.892   7.450 -0.4516 -0.1261 -1.2165
   73CHL1    C8 7822   3.822   3.842   7.487 -0.1409  0.6159  0.5466
   73CHL1    H8 7823   3.922   3.890   7.492  0.1148  0.0271  1.5616
   73CHL1   C14 7824   3.780   3.802   7.629 -0.0180 -0.6594 -0.1025
   73CHL1   H14 7825   3.684   3.746   7.632  0.6801 -1.8715  1.2312
   73CHL1   C15 7826   3.765   3.919   7.726 -0.2785  0.6965  0.4583
   73CHL1  H15A 7827   3.835   3.999   7.692  0.2573 -0.7548 -2.1055
   73CHL1  H15B 7828   3.665   3.966   7.736 -0.2957  0.6528  0.4947
   73CHL1   C16 7829   3.798   3.854   7.859 -0.6470 -0.1844  0.1007
   73CHL1  H16A 7830   3.875   3.912   7.915 -0.1756 -0.8696  0.1878
   73CHL1  H16B 7831   3.706   3.856   7.920  0.6638 -1.3840  2.2639
   73CHL1   C17 7832   3.827   3.700   7.839  0.2214 -0.1969 -0.7327
   73CHL1   H17 7833   3.731   3.645   7.845  0.8616 -1.1951  2.1042
   73CHL1   C13 7834   3.886   3.704   7.697 -0.6852  0.2242  1.0207
   73CHL1   C18 7835   4.029   3.766   7.703 -0.0933  0.0919 -0.1827
   73CHL1  H18A 7836   4.056   3.816   7.607 -2.4438  0.1825 -0.8473
   73CHL1  H18B 7837   4.034   3.837   7.788  1.2741 -0.3015  0.0941
   73CHL1  H18C 7838   4.104   3.688   7.732 -0.3907 -0.5307 -1.0263
   73CHL1   C12 7839   3.871   3.574   7.611  0.4500  0.4882 -0.5837
   73CHL1  H12A 7840   3.939   3.495   7.648 -2.0649 -0.9434  1.4040
   73CHL1  H12B 7841   3.766   3.537   7.620  1.7112 -3.7778 -1.4803
   73CHL1   C11 7842   3.907   3.598   7.468 -0.5027 -0.9120  0.5216
   73CHL1  H11A 7843   4.009   3.643   7.466 -0.7532 -0.3518 -0.5210
   73CHL1  H11B 7844   3.906   3.502   7.413  1.0716 -1.1255  0.8283
   73CHL1    C9 7845   3.828   3.717   7.395  0.1986 -0.0508 -0.0048
   73CHL1    H9 7846   3.724   3.679   7.396  0.2922 -0.3221 -0.1669
   73CHL1   C10 7847   3.868   3.747   7.247 -0.3306  0.1887 -1.0443
   73CHL1   C19 7848   4.018   3.778   7.233  0.3143  0.6092 -0.9970
   73CHL1  H19A 7849   4.035   3.862   7.303 -0.7806  0.8998 -1.0537
   73CHL1  H19B 7850   4.074   3.684   7.256 -1.1626 -0.2605 -0.7579
   73CHL1  H19C 7851   4.051   3.796   7.129 -0.9106  0.7424 -1.3850
   73CHL1    C1 7852   3.828   3.629   7.150 -0.5257 -0.4809 -0.8261
   73CHL1   H1A 7853   3.893   3.540   7.162 -2.2813 -1.5864  1.2418
   73CHL1   H1B 7854   3.725   3.589   7.164 -0.9609  0.5657 -0.9443
   73CHL1    C2 7855   3.833   3.670   6.998 -1.1924 -0.4033  0.7662
   73CHL1   H2A 7856   3.792   3.587   6.935  1.3403 -0.2967 -1.1648
   73CHL1   H2B 7857   3.940   3.669   6.971 -1.4170 -0.4949 -0.1376
   73CHL1   C20 7858   3.911   3.636   7.952 -0.0155  0.1362  0.7287
   73CHL1   H20 7859   4.002   3.700   7.942 -0.8770  1.4988  1.4557
   73CHL1   C21 7860   3.966   3.494   7.919 -0.4143 -0.1291 -0.3056
   73CHL1  H21A 7861   4.020   3.452   8.007 -0.3938 -1.7877 -1.0842
   73CHL1  H21B 7862   4.032   3.493   7.831 -2.0095  1.2430 -1.5916
   73CHL1  H21C 7863   3.876   3.432   7.903 -0.6082  0.3582 -1.1503
   73CHL1   C22 7864   3.860   3.655   8.096 -0.6739  0.4008  0.3445
   73CHL1  H22A 7865   3.800   3.748   8.107 -0.3738  0.4689  1.5256
   73CHL1  H22B 7866   3.787   3.571   8.100  0.0016 -0.3200 -1.3105
   73CHL1   C23 7867   3.969   3.653   8.198  0.0815 -0.5332 -0.0774
   73CHL1  H23A 7868   3.915   3.636   8.294 -1.7436  1.1267 -0.7491
   73CHL1  H23B 7869   4.034   3.563   8.199  0.7509 -0.0592 -0.0732
   73CHL1   C24 7870   4.058   3.776   8.199 -0.3906  0.3564  0.9929
   73CHL1  H24A 7871   4.099   3.804   8.100  0.8832 -0.1670  1.3511
   73CHL1  H24B 7872   3.998   3.863   8.233 -0.4537  0.2590  1.1329
   73CHL1   C25 7873   4.182   3.765   8.298 -0.0159  0.0869  0.1594
   73CHL1   H25 7874   4.148   3.734   8.399 -1.0542 -1.7719 -0.7082
   73CHL1   C26 7875   4.280   3.655   8.252  0.0390 -0.6531  0.2902
   73CHL1  H26A 7876   4.239   3.552   8.244  1.1118 -1.0162 -0.7821
   73CHL1  H26B 7877   4.311   3.682   8.149 -1.4054 -1.7610 -0.4775
   73CHL1  H26C 7878   4.371   3.653   8.315  0.4377 -0.2884 -0.2688
   73CHL1   C27 7879   4.253   3.902   8.309 -0.1539 -0.3105 -0.1335
   73CHL1  H27A 7880   4.184   3.982   8.341  1.3943  0.4673  1.4209
   73CHL1  H27B 7881   4.327   3.892   8.392 -0.4163 -0.2896  0.1042
   73CHL1  H27C 7882   4.300   3.931   8.213  0.7788  1.0595  0.7039
   74CHL1    C3 7883   2.739   1.601   6.843 -0.1867  0.1602  0.0225
   74CHL1    H3 7884   2.800   1.513   6.872 -0.6094 -0.2025 -0.1783
   74CHL1    O3 7885   2.761   1.628   6.709 -0.0152  0.4225 -0.1701
   74CHL1   H3' 7886   2.741   1.721   6.699  0.0120  0.3036 -1.5060
   74CHL1    C4 7887   2.595   1.560   6.881  0.1717 -0.0964  0.0661
   74CHL1   H4A 7888   2.527   1.643   6.850  0.6294  0.2532 -0.0078
   74CHL1   H4B 7889   2.576   1.479   6.808 -1.5081  0.2585  0.0544
   74CHL1    C5 7890   2.570   1.523   7.027 -0.8056 -0.5503  0.2136
   74CHL1    C6 7891   2.547   1.401   7.069  0.4529  0.3503  0.3504
   74CHL1    H6 7892   2.509   1.321   7.004 -1.2722  0.3117  1.3474
   74CHL1    C7 7893   2.530   1.367   7.219  0.1373 -0.1684  0.8400
   74CHL1   H7A 7894   2.437   1.310   7.236 -0.9978  1.8873  1.9579
   74CHL1   H7B 7895   2.614   1.299   7.244 -0.6518 -1.2004  0.7446
   74CHL1    C8 7896   2.516   1.492   7.310  1.4354 -0.1811  0.6282
   74CHL1    H8 7897   2.416   1.531   7.282  1.9988  0.0604 -1.1837
   74CHL1   C14 7898   2.510   1.451   7.456  0.1604 -0.0077  0.6094
   74CHL1   H14 7899   2.608   1.400   7.466  0.5809  0.4783 -0.7575
   74CHL1   C15 7900   2.408   1.347   7.511 -0.5676  0.3949  0.3312
   74CHL1  H15A 7901   2.305   1.361   7.472 -0.1502 -0.4577 -1.1633
   74CHL1  H15B 7902   2.445   1.246   7.481 -1.9960 -0.4682  1.3566
   74CHL1   C16 7903   2.421   1.367   7.664 -0.1082 -0.7897 -0.1378
   74CHL1  H16A 7904   2.314   1.375   7.696  0.3834  0.9651  1.2654
   74CHL1  H16B 7905   2.452   1.268   7.703  0.8029 -0.7950 -0.8441
   74CHL1   C17 7906   2.517   1.489   7.684 -0.0541  0.5934 -0.2764
   74CHL1   H17 7907   2.623   1.455   7.689 -0.3556 -0.2246  1.0906
   74CHL1   C13 7908   2.508   1.567   7.554 -0.9719  0.3554 -0.5396
   74CHL1   C18 7909   2.375   1.642   7.548 -0.0391  0.6804  0.0016
   74CHL1  H18A 7910   2.399   1.743   7.587  0.6613  1.2851 -1.9201
   74CHL1  H18B 7911   2.329   1.654   7.448 -1.6648 -2.0416  0.3123
   74CHL1  H18C 7912   2.309   1.585   7.617 -0.0576 -2.1991 -2.2065
   74CHL1   C12 7913   2.624   1.659   7.521  0.6187  0.0774 -0.1117
   74CHL1  H12A 7914   2.606   1.743   7.592  0.6126 -0.5471  0.6486
   74CHL1  H12B 7915   2.722   1.617   7.552  0.4339  0.4784  1.0807
   74CHL1   C11 7916   2.625   1.715   7.375 -0.1384 -0.9524 -0.6844
   74CHL1  H11A 7917   2.523   1.760   7.367 -0.0733 -0.2167  1.7918
   74CHL1  H11B 7918   2.707   1.787   7.354 -0.8211 -0.4060 -1.6357
   74CHL1    C9 7919   2.618   1.606   7.269  0.0670  0.1990  0.1974
   74CHL1    H9 7920   2.716   1.556   7.281  2.2807  4.3238  1.0881
   74CHL1   C10 7921   2.616   1.643   7.111  0.4163  0.1530  0.7515
   74CHL1   C19 7922   2.514   1.759   7.101 -0.9407 -0.1828  0.0673
   74CHL1  H19A 7923   2.479   1.785   6.999  1.1809 -0.1925 -0.7063
   74CHL1  H19B 7924   2.420   1.736   7.155 -1.2748 -0.8410 -0.7600
   74CHL1  H19C 7925   2.567   1.850   7.136 -0.8458  0.4159 -1.5395
   74CHL1    C1 7926   2.756   1.694   7.072  0.1397  0.2711 -0.0479
   74CHL1   H1A 7927   2.778   1.784   7.134 -0.3611  0.3539  0.0169
   74CHL1   H1B 7928   2.831   1.622   7.112  0.5266  0.0745 -1.1094
   74CHL1    C2 7929   2.780   1.724   6.925  0.1788 -0.3302  0.8540
   74CHL1   H2A 7930   2.887   1.736   6.899 -0.5366  1.3459 -1.7043
   74CHL1   H2B 7931   2.728   1.816   6.892  1.6645 -0.0997 -1.0167
   74CHL1   C20 7932   2.489   1.563   7.818  0.7708 -0.9363  0.2041
   74CHL1   H20 7933   2.400   1.626   7.797  0.3000 -1.3463  0.9117
   74CHL1   C21 7934   2.611   1.658   7.857  0.5901  0.2942 -0.2613
   74CHL1  H21A 7935   2.648   1.723   7.775  1.1061  0.1363 -0.1601
   74CHL1  H21B 7936   2.690   1.583   7.881  1.1390 -0.0116 -2.7634
   74CHL1  H21C 7937   2.595   1.717   7.950 -1.5986 -0.1971 -0.2818
   74CHL1   C22 7938   2.456   1.464   7.935  1.0829  0.1930 -0.0061
   74CHL1  H22A 7939   2.438   1.536   8.018 -0.0988 -1.9345  1.7121
   74CHL1  H22B 7940   2.365   1.401   7.920  1.0629  0.3289 -0.4494
   74CHL1   C23 7941   2.550   1.365   7.988  0.7369  0.3451  0.4331
   74CHL1  H23A 7942   2.579   1.288   7.914  0.4327 -0.2966  0.9776
   74CHL1  H23B 7943   2.645   1.418   8.012  1.7125 -1.1623 -0.0069
   74CHL1   C24 7944   2.505   1.292   8.114 -0.0145 -0.0991  0.4610
   74CHL1  H24A 7945   2.481   1.366   8.193 -0.3327  1.7545 -1.3047
   74CHL1  H24B 7946   2.415   1.229   8.098 -0.6427  0.6639  0.9206
   74CHL1   C25 7947   2.610   1.192   8.174 -0.1871 -0.4252 -0.3368
   74CHL1   H25 7948   2.651   1.132   8.090  0.4967 -0.7495  0.2200
   74CHL1   C26 7949   2.729   1.262   8.237  0.5998 -0.0378  0.2242
   74CHL1  H26A 7950   2.799   1.200   8.296  0.1494  1.3810  2.3697
   74CHL1  H26B 7951   2.782   1.310   8.151 -0.2387 -2.5174 -1.8163
   74CHL1  H26C 7952   2.689   1.342   8.304  0.6170 -0.4775  0.7645
   74CHL1   C27 7953   2.552   1.085   8.267  0.3257  0.4447 -0.6927
   74CHL1  H27A 7954   2.486   1.016   8.211 -1.5619 -0.8968  2.8595
   74CHL1  H27B 7955   2.640   1.034   8.313 -1.8425 -1.5551  1.5426
   74CHL1  H27C 7956   2.499   1.134   8.351  0.2619  0.0441 -0.4969
   75CHL1    C3 7957   6.766   3.849   6.611  0.4119  0.0894  0.8009
   75CHL1    H3 7958   6.658   3.863   6.634  0.3597 -0.4101  0.8636
   75CHL1    O3 7959   6.781   3.802   6.474 -0.2778 -0.1877 -0.3270
   75CHL1   H3' 7960   6.765   3.879   6.420 -0.3615 -0.6962 -1.0327
   75CHL1    C4 7961   6.836   3.983   6.613 -0.1628  0.1486  0.5806
   75CHL1   H4A 7962   6.936   3.979   6.564 -0.3916  0.7194  0.0530
   75CHL1   H4B 7963   6.776   4.047   6.544 -2.1865 -1.3202  0.8979
   75CHL1    C5 7964   6.841   4.048   6.751 -0.4661 -0.5700  0.1833
   75CHL1    C6 7965   6.794   4.177   6.765 -0.1041 -0.4924  0.2353
   75CHL1    H6 7966   6.755   4.228   6.675  2.0082 -1.2256 -1.1667
   75CHL1    C7 7967   6.808   4.244   6.896  0.0615 -0.3972  0.2442
   75CHL1   H7A 7968   6.863   4.340   6.883 -0.5713  0.0437  0.7458
   75CHL1   H7B 7969   6.704   4.261   6.931  0.1253 -0.0243  0.2561
   75CHL1    C8 7970   6.898   4.164   6.993  0.0279 -0.3049  0.1670
   75CHL1    H8 7971   7.000   4.194   6.963  0.2928 -1.1531  0.1976
   75CHL1   C14 7972   6.876   4.224   7.133 -0.1427 -0.9370 -0.2430
   75CHL1   H14 7973   6.768   4.208   7.151 -0.3198  0.1141 -0.3417
   75CHL1   C15 7974   6.880   4.371   7.151  0.0275 -0.5501  0.0515
   75CHL1  H15A 7975   6.969   4.412   7.099 -0.7512  0.9194 -0.1734
   75CHL1  H15B 7976   6.788   4.421   7.114  0.3330  0.0464  0.0907
   75CHL1   C16 7977   6.899   4.393   7.300  0.0392  0.6321 -0.1668
   75CHL1  H16A 7978   6.993   4.446   7.326 -0.1966  0.5183  0.9498
   75CHL1  H16B 7979   6.809   4.442   7.342 -0.3163  0.8817 -1.1925
   75CHL1   C17 7980   6.919   4.254   7.364  0.2000  0.4485 -0.3294
   75CHL1   H17 7981   6.820   4.221   7.404 -0.0125  1.2655 -0.1427
   75CHL1   C13 7982   6.961   4.166   7.247 -0.2147 -0.7971 -0.7589
   75CHL1   C18 7983   7.111   4.193   7.221  0.3195 -0.3702  0.4177
   75CHL1  H18A 7984   7.152   4.124   7.144  2.4532 -0.7316  1.7856
   75CHL1  H18B 7985   7.122   4.297   7.184 -0.9708 -0.6605 -0.8746
   75CHL1  H18C 7986   7.187   4.182   7.302 -0.5139 -1.0863  1.1199
   75CHL1   C12 7987   6.927   4.024   7.246  1.1246 -0.1060 -0.4435
   75CHL1  H12A 7988   6.978   3.972   7.330  1.6288  0.2716 -0.5070
   75CHL1  H12B 7989   6.819   4.013   7.266  1.2186  1.7784  1.4936
   75CHL1   C11 7990   6.937   3.941   7.119 -0.2564 -0.9176 -0.1917
   75CHL1  H11A 7991   7.047   3.923   7.117  0.3773  2.3037 -0.9482
   75CHL1  H11B 7992   6.887   3.842   7.126 -1.3309 -0.6451 -2.8723
   75CHL1    C9 7993   6.873   4.013   7.001  0.3504 -0.7997  0.1603
   75CHL1    H9 7994   6.764   4.000   7.018  0.4516 -0.9092  0.7470
   75CHL1   C10 7995   6.898   3.955   6.864  0.2048  0.3894  0.0010
   75CHL1   C19 7996   7.052   3.941   6.837 -0.3922 -0.3716 -0.6926
   75CHL1  H19A 7997   7.117   4.030   6.852  1.2602 -1.3055 -1.8157
   75CHL1  H19B 7998   7.091   3.876   6.918  0.6685 -0.3304 -1.1454
   75CHL1  H19C 7999   7.076   3.904   6.735 -1.5293  0.7689 -1.4020
   75CHL1    C1 8000   6.836   3.809   6.857  0.1974  0.0994 -0.5557
   75CHL1   H1A 8001   6.877   3.732   6.925 -0.1047 -0.7491 -1.3136
   75CHL1   H1B 8002   6.728   3.814   6.884  0.6165 -2.4897  2.1190
   75CHL1    C2 8003   6.836   3.758   6.709  0.6426  0.3056  0.4418
   75CHL1   H2A 8004   6.784   3.660   6.701 -1.6237  1.4582  0.1831
   75CHL1   H2B 8005   6.939   3.734   6.674  0.8098  0.8058  0.5847
   75CHL1   C20 8006   7.008   4.255   7.485  0.4560 -0.5818 -0.9630
   75CHL1   H20 8007   7.111   4.293   7.467 -0.2054  1.5367 -0.5352
   75CHL1   C21 8008   7.019   4.115   7.544 -0.0346  0.2707  0.3054
   75CHL1  H21A 8009   7.087   4.051   7.484 -0.7564  0.0422 -0.2794
   75CHL1  H21B 8010   6.920   4.074   7.572  0.4290  0.8923  3.1247
   75CHL1  H21C 8011   7.069   4.114   7.643  0.1993  1.5412  0.2274
   75CHL1   C22 8012   6.962   4.360   7.596 -0.2255 -0.1107  0.6718
   75CHL1  H22A 8013   7.013   4.327   7.689 -1.3828 -0.6252  1.1447
   75CHL1  H22B 8014   6.983   4.463   7.561 -2.8084 -0.2087 -1.5765
   75CHL1   C23 8015   6.813   4.348   7.630 -0.6204  0.2455 -0.0711
   75CHL1  H23A 8016   6.741   4.391   7.557 -1.9489 -1.3563  0.2391
   75CHL1  H23B 8017   6.783   4.241   7.628 -2.0114  0.6218 -0.2210
   75CHL1   C24 8018   6.772   4.401   7.769  0.3388 -0.0615  0.4613
   75CHL1  H24A 8019   6.824   4.338   7.845  1.2617  1.5849  1.2363
   75CHL1  H24B 8020   6.809   4.506   7.768  0.4348 -0.0947 -0.0215
   75CHL1   C25 8021   6.621   4.389   7.800 -0.6001  0.5464  0.2995
   75CHL1   H25 8022   6.553   4.404   7.713 -0.2871  0.1786 -0.0160
   75CHL1   C26 8023   6.585   4.238   7.826  0.2429  0.3712  0.0110
   75CHL1  H26A 8024   6.622   4.175   7.742 -0.5873  0.7164 -0.6259
   75CHL1  H26B 8025   6.621   4.198   7.923 -0.2937 -1.6631 -0.5898
   75CHL1  H26C 8026   6.475   4.225   7.822  0.1326  1.4209 -0.8082
   75CHL1   C27 8027   6.575   4.465   7.925  0.1573  0.0776  0.5845
   75CHL1  H27A 8028   6.622   4.435   8.021 -0.5895  1.7079  1.4990
   75CHL1  H27B 8029   6.593   4.574   7.916  1.3217 -0.1988 -0.7331
   75CHL1  H27C 8030   6.466   4.449   7.937 -0.0630  1.7331  1.0531
   76CHL1    C3 8031   4.355   6.441   7.258 -0.3979  0.1033  0.1494
   76CHL1    H3 8032   4.456   6.419   7.298 -1.3176  0.7246  3.0991
   76CHL1    O3 8033   4.359   6.415   7.120  0.1017 -0.1028  0.1398
   76CHL1   H3' 8034   4.268   6.435   7.096  0.6005  1.9023 -0.2245
   76CHL1    C4 8035   4.249   6.345   7.321 -0.0688  0.4890  0.2186
   76CHL1   H4A 8036   4.164   6.352   7.250  0.1113 -0.3471 -0.0942
   76CHL1   H4B 8037   4.285   6.241   7.307  2.1624  1.4116 -1.4983
   76CHL1    C5 8038   4.204   6.382   7.459  0.1292  0.6088 -0.4035
   76CHL1    C6 8039   4.211   6.299   7.564  0.0053 -0.4498 -0.0924
   76CHL1    H6 8040   4.257   6.200   7.552  1.0351 -0.0792  0.5882
   76CHL1    C7 8041   4.162   6.324   7.695 -0.8325 -0.3643 -0.2044
   76CHL1   H7A 8042   4.105   6.233   7.728  0.1735 -0.6808  0.7239
   76CHL1   H7B 8043   4.251   6.345   7.759 -0.2995 -1.0421 -0.7145
   76CHL1    C8 8044   4.067   6.442   7.705  0.5072 -0.0906  0.4164
   76CHL1    H8 8045   3.973   6.410   7.654 -0.6580 -0.3569  2.6008
   76CHL1   C14 8046   4.034   6.475   7.847  0.0277  0.0265 -0.2481
   76CHL1   H14 8047   4.132   6.494   7.896  0.8232 -3.7062 -0.0823
   76CHL1   C15 8048   3.965   6.360   7.926 -0.2017  0.0098  0.1382
   76CHL1  H15A 8049   3.891   6.305   7.864  0.6399 -1.0332  0.0396
   76CHL1  H15B 8050   4.049   6.304   7.972  0.0467 -0.1879 -0.5388
   76CHL1   C16 8051   3.889   6.438   8.038  0.5461 -0.0130  0.5525
   76CHL1  H16A 8052   3.779   6.432   8.024  0.4915  1.6127  0.0752
   76CHL1  H16B 8053   3.905   6.404   8.143 -3.3884 -0.0103  1.3335
   76CHL1   C17 8054   3.914   6.587   8.013  0.3867  0.2901 -0.0318
   76CHL1   H17 8055   4.009   6.618   8.060 -0.8212  0.8131  2.1940
   76CHL1   C13 8056   3.941   6.597   7.862  1.0716  0.3244 -0.3901
   76CHL1   C18 8057   3.816   6.581   7.772  0.3840 -0.2575 -0.4948
   76CHL1  H18A 8058   3.848   6.578   7.666 -1.3849  2.0443 -1.1816
   76CHL1  H18B 8059   3.750   6.493   7.791  0.1485 -0.9444 -3.8357
   76CHL1  H18C 8060   3.758   6.674   7.791  1.7261  0.3168  1.0936
   76CHL1   C12 8061   4.030   6.716   7.814 -0.4391  0.1662  0.7257
   76CHL1  H12A 8062   3.979   6.813   7.829 -0.3509  0.6517 -1.7440
   76CHL1  H12B 8063   4.126   6.714   7.870  0.8139  1.0542 -1.2778
   76CHL1   C11 8064   4.073   6.701   7.668  0.1937 -0.3436 -0.0436
   76CHL1  H11A 8065   3.980   6.706   7.607 -0.0302 -2.6853  0.0321
   76CHL1  H11B 8066   4.139   6.785   7.639  0.5802 -0.4013  0.6588
   76CHL1    C9 8067   4.136   6.561   7.639  0.5349  0.6694  1.2193
   76CHL1    H9 8068   4.241   6.558   7.675  1.1028 -1.3872 -0.4085
   76CHL1   C10 8069   4.164   6.533   7.488  0.6043  0.7087  0.1697
   76CHL1   C19 8070   4.034   6.548   7.406 -0.7442  0.1414  0.4937
   76CHL1  H19A 8071   4.045   6.514   7.301 -1.2759 -0.4756  0.6353
   76CHL1  H19B 8072   3.948   6.500   7.457 -2.8239  1.0656 -1.8832
   76CHL1  H19C 8073   4.015   6.657   7.396 -0.8429  0.0243 -0.7683
   76CHL1    C1 8074   4.276   6.618   7.432  0.4212 -0.6004 -0.3350
   76CHL1   H1A 8075   4.253   6.725   7.452 -0.7306 -0.3681 -2.6099
   76CHL1   H1B 8076   4.367   6.599   7.494  0.6891 -0.3460 -0.6488
   76CHL1    C2 8077   4.320   6.595   7.288  0.6782  0.1940  0.5187
   76CHL1   H2A 8078   4.406   6.654   7.248  0.7927  0.2210  0.7964
   76CHL1   H2B 8079   4.233   6.625   7.227  1.1584 -1.7093 -1.2206
   76CHL1   C20 8080   3.802   6.677   8.056 -0.0131  0.0699 -0.6858
   76CHL1   H20 8081   3.708   6.667   7.998  0.3157  1.1022 -1.4173
   76CHL1   C21 8082   3.842   6.823   8.048  0.3894 -0.3293 -0.2737
   76CHL1  H21A 8083   3.764   6.884   8.099  0.6652  0.6229 -0.9684
   76CHL1  H21B 8084   3.835   6.862   7.944 -1.2444  0.2613  0.0296
   76CHL1  H21C 8085   3.935   6.855   8.099  0.8696  1.1381 -1.9583
   76CHL1   C22 8086   3.747   6.647   8.205  0.1882  0.5327 -0.2469
   76CHL1  H22A 8087   3.654   6.705   8.223  0.8096  1.3700  0.3650
   76CHL1  H22B 8088   3.714   6.541   8.203 -0.0299  0.5934 -2.3508
   76CHL1   C23 8089   3.851   6.671   8.321  0.1601 -0.5419 -0.3047
   76CHL1  H23A 8090   3.941   6.605   8.313  0.7695  0.2023  0.3149
   76CHL1  H23B 8091   3.880   6.778   8.323 -1.3385 -0.1185 -0.1177
   76CHL1   C24 8092   3.795   6.649   8.469  0.0352 -0.3587  0.1221
   76CHL1  H24A 8093   3.695   6.694   8.488  0.4858 -0.1420  2.1971
   76CHL1  H24B 8094   3.785   6.539   8.470  2.3116 -0.6427 -1.0483
   76CHL1   C25 8095   3.888   6.694   8.584 -0.1503  0.3256 -0.3068
   76CHL1   H25 8096   3.840   6.660   8.678 -1.1298  0.9966 -0.5481
   76CHL1   C26 8097   4.022   6.630   8.557 -0.2255 -0.4695  0.1835
   76CHL1  H26A 8098   4.079   6.629   8.653 -0.3829 -1.4725  0.2811
   76CHL1  H26B 8099   4.016   6.521   8.535 -0.1062 -0.4530  0.0665
   76CHL1  H26C 8100   4.074   6.696   8.485 -0.1013 -0.8151 -0.0456
   76CHL1   C27 8101   3.901   6.850   8.603  0.5636  0.5087  0.4323
   76CHL1  H27A 8102   3.891   6.895   8.502  0.4958 -0.5079 -0.0298
   76CHL1  H27B 8103   3.823   6.889   8.672  2.0478  1.5210  1.5896
   76CHL1  H27C 8104   3.994   6.873   8.660  0.8741 -1.0392  0.6034
   77CHL1    C3 8105   4.194   4.574   6.700  0.5719  1.1011 -1.2937
   77CHL1    H3 8106   4.264   4.488   6.699  0.1865  0.6968  1.1266
   77CHL1    O3 8107   4.173   4.635   6.574 -0.2001 -0.1735  0.3930
   77CHL1   H3' 8108   4.116   4.576   6.524  0.2445  1.7389 -2.6601
   77CHL1    C4 8109   4.050   4.531   6.751  0.2581  0.0735 -0.2029
   77CHL1   H4A 8110   3.984   4.620   6.743 -0.9873 -0.9805 -2.6811
   77CHL1   H4B 8111   4.013   4.464   6.670 -0.4985  0.3010 -0.0576
   77CHL1    C5 8112   4.054   4.468   6.891  0.0159  0.0055 -0.3967
   77CHL1    C6 8113   4.020   4.340   6.911 -0.1125 -0.5386 -0.6529
   77CHL1    H6 8114   3.987   4.273   6.830  2.0454 -2.2827 -0.2007
   77CHL1    C7 8115   4.025   4.272   7.049  0.3087  0.2907  0.0701
   77CHL1   H7A 8116   3.938   4.205   7.061  0.9023 -0.4239  0.4972
   77CHL1   H7B 8117   4.116   4.209   7.055 -0.3467 -0.7552 -0.7480
   77CHL1    C8 8118   4.039   4.369   7.169 -0.4904 -0.5716 -0.5549
   77CHL1    H8 8119   3.940   4.417   7.182  0.1309  0.5436  0.3065
   77CHL1   C14 8120   4.087   4.292   7.296  0.5162  0.4347 -0.0642
   77CHL1   H14 8121   4.191   4.268   7.265  0.7221  2.6520 -1.3225
   77CHL1   C15 8122   4.019   4.164   7.332  0.1432  0.0594  0.8167
   77CHL1  H15A 8123   3.910   4.181   7.326  0.2716  0.4103 -1.7962
   77CHL1  H15B 8124   4.045   4.084   7.259 -0.8873 -0.3600  0.8982
   77CHL1   C16 8125   4.077   4.140   7.471 -0.8507 -0.4416 -0.1573
   77CHL1  H16A 8126   3.995   4.113   7.541  0.4531  0.2788  1.7459
   77CHL1  H16B 8127   4.154   4.060   7.474  1.0398  1.2294 -1.7347
   77CHL1   C17 8128   4.144   4.270   7.520  0.0666  0.0880 -0.0494
   77CHL1   H17 8129   4.252   4.256   7.503  0.9243  0.0372  4.2453
   77CHL1   C13 8130   4.092   4.377   7.420  0.3359  0.5170  1.2390
   77CHL1   C18 8131   3.956   4.426   7.466  0.7100  0.2523 -0.4246
   77CHL1  H18A 8132   3.884   4.348   7.500  0.1165  0.9140 -0.1262
   77CHL1  H18B 8133   3.976   4.500   7.546  0.4057  1.1478 -1.1630
   77CHL1  H18C 8134   3.892   4.488   7.400 -0.7794  1.9524  2.4069
   77CHL1   C12 8135   4.192   4.485   7.391  0.4302 -1.1230 -0.2415
   77CHL1  H12A 8136   4.202   4.552   7.479 -0.6831  0.0709 -0.9885
   77CHL1  H12B 8137   4.288   4.442   7.357  0.5805 -0.4776 -0.6549
   77CHL1   C11 8138   4.158   4.574   7.262 -0.8927 -0.0645 -0.0017
   77CHL1  H11A 8139   4.060   4.619   7.290 -1.6302 -0.8842 -1.1778
   77CHL1  H11B 8140   4.233   4.656   7.256  1.3213 -1.8904  1.1840
   77CHL1    C9 8141   4.142   4.478   7.135 -0.4214  0.0900 -0.0215
   77CHL1    H9 8142   4.240   4.426   7.123 -0.6139 -0.6221  1.3227
   77CHL1   C10 8143   4.109   4.556   7.005  0.2572  0.3452  0.1041
   77CHL1   C19 8144   3.996   4.659   7.032  0.6149  0.2621  0.1785
   77CHL1  H19A 8145   4.025   4.731   7.112 -2.9571 -0.3778  2.2514
   77CHL1  H19B 8146   3.981   4.716   6.937  0.9674 -0.9102 -0.5992
   77CHL1  H19C 8147   3.906   4.601   7.061  1.6312 -0.8505  1.1990
   77CHL1    C1 8148   4.241   4.635   6.947  0.3038  1.0914  0.1009
   77CHL1   H1A 8149   4.262   4.720   7.015  2.9854  0.2118  0.4907
   77CHL1   H1B 8150   4.315   4.553   6.963 -0.4070  0.2619 -0.7435
   77CHL1    C2 8151   4.252   4.677   6.803 -0.2991 -0.0356  0.1942
   77CHL1   H2A 8152   4.357   4.689   6.770 -1.0866  0.9850 -2.1098
   77CHL1   H2B 8153   4.212   4.778   6.780 -0.6497  0.5633  3.0059
   77CHL1   C20 8154   4.137   4.289   7.669 -0.1762  0.3385  0.4027
   77CHL1   H20 8155   4.027   4.299   7.683 -0.7527 -2.1078 -1.6874
   77CHL1   C21 8156   4.200   4.418   7.714 -0.7808 -0.4425 -0.3800
   77CHL1  H21A 8157   4.198   4.425   7.825 -0.3051 -0.8309 -0.3453
   77CHL1  H21B 8158   4.143   4.501   7.667  1.0176  1.2148  0.2207
   77CHL1  H21C 8159   4.309   4.421   7.693 -0.8100  1.4702 -0.4748
   77CHL1   C22 8160   4.188   4.161   7.746  0.3977 -0.6771  0.4533
   77CHL1  H22A 8161   4.111   4.083   7.728 -1.1511  1.0437 -0.8882
   77CHL1  H22B 8162   4.288   4.136   7.705  0.6821 -1.2601  1.4912
   77CHL1   C23 8163   4.194   4.176   7.899 -0.2292 -0.1861 -0.0205
   77CHL1  H23A 8164   4.237   4.081   7.936 -1.4641 -0.8828 -0.3128
   77CHL1  H23B 8165   4.254   4.263   7.932 -1.0742  0.8548 -1.1236
   77CHL1   C24 8166   4.055   4.191   7.970  0.3317  0.0013  0.2058
   77CHL1  H24A 8167   4.023   4.295   7.947 -2.3224 -1.2194 -2.1381
   77CHL1  H24B 8168   3.986   4.109   7.943 -0.5991  0.8779 -0.1100
   77CHL1   C25 8169   4.056   4.172   8.124 -0.2860 -0.0849  0.8220
   77CHL1   H25 8170   4.075   4.063   8.139  0.3992  0.1435  1.7545
   77CHL1   C26 8171   4.164   4.251   8.193 -0.5561 -0.2028 -0.3224
   77CHL1  H26A 8172   4.265   4.234   8.149  0.1551  0.4895  0.9836
   77CHL1  H26B 8173   4.140   4.359   8.184  0.4577  0.0408 -0.2231
   77CHL1  H26C 8174   4.170   4.223   8.300  0.5095  2.3247  0.3542
   77CHL1   C27 8175   3.920   4.190   8.195  0.0632 -0.0443  0.9395
   77CHL1  H27A 8176   3.880   4.294   8.201  2.0416  0.7509  1.0518
   77CHL1  H27B 8177   3.845   4.121   8.151  0.7262 -1.1017  1.4569
   77CHL1  H27C 8178   3.933   4.162   8.301 -0.2936 -0.0589  0.9823
   78CHL1    C3 8179   4.726   5.254   6.819 -0.3202  0.5094 -0.5920
   78CHL1    H3 8180   4.775   5.156   6.803  1.8881  1.4054  0.3583
   78CHL1    O3 8181   4.633   5.272   6.713 -0.1840  0.4330  0.2901
   78CHL1   H3' 8182   4.615   5.183   6.684 -4.3791  0.6687  1.4948
   78CHL1    C4 8183   4.647   5.240   6.953 -0.6268  0.1544 -0.3734
   78CHL1   H4A 8184   4.572   5.321   6.963 -3.4589 -2.1211 -1.6557
   78CHL1   H4B 8185   4.593   5.143   6.943  0.7270 -0.4882 -1.7452
   78CHL1    C5 8186   4.754   5.236   7.067  0.5435  0.2907  0.1131
   78CHL1    C6 8187   4.739   5.144   7.162 -0.2896 -0.0110 -0.0336
   78CHL1    H6 8188   4.654   5.076   7.148  0.6779 -1.6606  1.6701
   78CHL1    C7 8189   4.825   5.120   7.274 -0.4889 -0.5152  0.0447
   78CHL1   H7A 8190   4.768   5.112   7.370 -1.6419 -0.6257 -0.6291
   78CHL1   H7B 8191   4.874   5.021   7.263  1.6330  0.3518  1.1502
   78CHL1    C8 8192   4.926   5.236   7.301 -0.1508 -0.4473 -0.6491
   78CHL1    H8 8193   4.866   5.311   7.358  0.8875 -0.8417  1.0579
   78CHL1   C14 8194   5.040   5.195   7.385 -0.7858  0.2541 -0.4806
   78CHL1   H14 8195   5.104   5.131   7.321  2.6734  2.3338  0.6061
   78CHL1   C15 8196   5.013   5.113   7.511  0.0613  0.4809 -0.6072
   78CHL1  H15A 8197   4.929   5.153   7.573  0.9751  1.4709  0.0215
   78CHL1  H15B 8198   4.997   5.009   7.474 -1.0077  0.7011 -0.8146
   78CHL1   C16 8199   5.150   5.126   7.591  0.4653  0.7140 -0.0663
   78CHL1  H16A 8200   5.131   5.160   7.695  1.0229 -0.5976  0.4939
   78CHL1  H16B 8201   5.197   5.025   7.597  0.9641  0.9291 -0.2915
   78CHL1   C17 8202   5.242   5.232   7.519 -0.2440 -0.2876 -0.2041
   78CHL1   H17 8203   5.312   5.176   7.454 -0.1127  0.4453 -0.7092
   78CHL1   C13 8204   5.143   5.306   7.427 -0.1177  0.7238  0.0574
   78CHL1   C18 8205   5.071   5.412   7.521 -0.0699  0.1569 -0.1644
   78CHL1  H18A 8206   4.997   5.473   7.465 -2.3001 -1.1317  1.2639
   78CHL1  H18B 8207   5.017   5.354   7.599 -0.9671  0.1784 -0.7550
   78CHL1  H18C 8208   5.148   5.479   7.564 -0.3386  0.8000 -0.6652
   78CHL1   C12 8209   5.196   5.377   7.299 -0.1206  0.5431  0.2008
   78CHL1  H12A 8210   5.248   5.472   7.323  5.3121 -1.3942 -2.2730
   78CHL1  H12B 8211   5.279   5.319   7.253  0.2600  1.7142 -0.6242
   78CHL1   C11 8212   5.087   5.404   7.197 -0.3365 -0.8517  0.1478
   78CHL1  H11A 8213   5.040   5.499   7.230 -0.5014 -1.6777  2.4782
   78CHL1  H11B 8214   5.128   5.435   7.098  0.1928 -0.8953  0.3483
   78CHL1    C9 8215   4.983   5.300   7.171 -0.6499  0.3836 -0.6164
   78CHL1    H9 8216   5.029   5.211   7.122 -0.8473  0.3284 -0.7002
   78CHL1   C10 8217   4.868   5.339   7.071 -0.2654  0.2914  0.5023
   78CHL1   C19 8218   4.799   5.474   7.107 -0.0393 -0.5534  0.2109
   78CHL1  H19A 8219   4.779   5.475   7.216 -2.4935 -0.7554 -0.1708
   78CHL1  H19B 8220   4.864   5.562   7.086 -1.4155  0.0296 -2.0121
   78CHL1  H19C 8221   4.709   5.488   7.044  0.1439 -0.9375 -0.1388
   78CHL1    C1 8222   4.930   5.345   6.932  0.4160 -0.6801  0.3649
   78CHL1   H1A 8223   5.002   5.430   6.928 -1.5627  1.0667 -0.2633
   78CHL1   H1B 8224   4.995   5.257   6.915 -1.4261 -1.9171 -0.5311
   78CHL1    C2 8225   4.831   5.362   6.823 -0.2570 -0.4127  0.2512
   78CHL1   H2A 8226   4.882   5.352   6.725 -1.5464 -1.1620 -0.3808
   78CHL1   H2B 8227   4.793   5.466   6.830  1.6214  0.2370  1.4092
   78CHL1   C20 8228   5.335   5.314   7.620 -0.4709 -0.1916 -0.6193
   78CHL1   H20 8229   5.277   5.376   7.692  2.0917  1.3409  0.2493
   78CHL1   C21 8230   5.436   5.409   7.538 -0.0278  0.5565 -0.1241
   78CHL1  H21A 8231   5.380   5.498   7.503 -0.8120  0.9193  1.8654
   78CHL1  H21B 8232   5.476   5.346   7.456 -3.4813 -2.0059 -0.0992
   78CHL1  H21C 8233   5.520   5.452   7.596  0.5359  0.5718 -0.9398
   78CHL1   C22 8234   5.418   5.225   7.718 -0.3834  0.3696  0.2193
   78CHL1  H22A 8235   5.493   5.296   7.759  1.1628 -0.6119 -0.7947
   78CHL1  H22B 8236   5.346   5.190   7.795  0.3513  2.3566  1.9057
   78CHL1   C23 8237   5.495   5.105   7.653 -0.0320  0.4020 -0.0582
   78CHL1  H23A 8238   5.426   5.032   7.606 -0.8104  1.0310  0.0956
   78CHL1  H23B 8239   5.567   5.147   7.579 -0.0627  1.2267  0.3666
   78CHL1   C24 8240   5.592   5.028   7.755  0.5034  0.1350  1.0413
   78CHL1  H24A 8241   5.690   5.079   7.755  0.8644 -0.3828 -1.8191
   78CHL1  H24B 8242   5.541   5.036   7.854  0.5641  2.2171  0.9490
   78CHL1   C25 8243   5.627   4.883   7.715 -0.0284  0.5527 -0.5365
   78CHL1   H25 8244   5.717   4.844   7.767 -1.2965 -0.8631  0.7270
   78CHL1   C26 8245   5.506   4.788   7.756  0.6334  0.2343  0.1035
   78CHL1  H26A 8246   5.416   4.816   7.697  0.0782 -2.2016 -0.3375
   78CHL1  H26B 8247   5.539   4.684   7.732 -0.5742 -0.4474  1.1988
   78CHL1  H26C 8248   5.484   4.794   7.865 -1.3448  0.7227 -0.2715
   78CHL1   C27 8249   5.662   4.880   7.568  0.0018  1.2757  0.1173
   78CHL1  H27A 8250   5.742   4.956   7.556  1.0246  0.2285  0.1719
   78CHL1  H27B 8251   5.701   4.779   7.544 -1.0701  0.8070  0.3011
   78CHL1  H27C 8252   5.580   4.907   7.498 -2.3177 -0.0362  2.1802
   79CHL1    C3 8253   4.187   5.141   7.086  0.2380 -0.2985 -0.9511
   79CHL1    H3 8254   4.141   5.215   7.155 -0.9546 -1.9815  0.1402
   79CHL1    O3 8255   4.156   5.160   6.949  0.2585  0.2692  0.1065
   79CHL1   H3' 8256   4.230   5.200   6.904  0.4645 -0.6909 -0.4330
   79CHL1    C4 8257   4.341   5.150   7.100 -0.9621  0.1506  0.5074
   79CHL1   H4A 8258   4.386   5.074   7.032  0.4483  3.5828 -2.7772
   79CHL1   H4B 8259   4.365   5.251   7.060 -0.5802  0.1658  0.7765
   79CHL1    C5 8260   4.376   5.123   7.237 -0.2159 -0.3357 -0.0143
   79CHL1    C6 8261   4.439   5.216   7.310 -0.2531  0.1405  0.0613
   79CHL1    H6 8262   4.476   5.310   7.266 -0.9752  0.2368 -0.3490
   79CHL1    C7 8263   4.484   5.191   7.453 -0.2329  0.2743  0.0276
   79CHL1   H7A 8264   4.582   5.238   7.477  0.4635 -0.3371 -1.5115
   79CHL1   H7B 8265   4.409   5.239   7.520 -2.5819 -2.9261 -0.1000
   79CHL1    C8 8266   4.493   5.042   7.484  0.2348  0.7234  0.4796
   79CHL1    H8 8267   4.588   5.008   7.437 -0.7258 -0.1999 -0.8677
   79CHL1   C14 8268   4.503   5.033   7.636  0.4215  0.3883  0.0399
   79CHL1   H14 8269   4.404   5.075   7.664 -0.9384 -0.8876 -2.5197
   79CHL1   C15 8270   4.611   5.105   7.715  0.1519 -0.8285  0.4464
   79CHL1  H15A 8271   4.708   5.066   7.677  0.9149  1.3280  0.0226
   79CHL1  H15B 8272   4.596   5.215   7.704 -4.1892 -1.4834 -3.5661
   79CHL1   C16 8273   4.603   5.045   7.857  0.5654  0.5939  0.3719
   79CHL1  H16A 8274   4.707   5.030   7.893  0.0320 -2.2435  1.0162
   79CHL1  H16B 8275   4.535   5.115   7.909  1.4592  0.3091  2.0038
   79CHL1   C17 8276   4.530   4.911   7.852  0.1477 -0.0586  0.2265
   79CHL1   H17 8277   4.432   4.922   7.903  0.9007 -0.4286  1.7963
   79CHL1   C13 8278   4.502   4.890   7.698 -0.1745  0.6760  0.0572
   79CHL1   C18 8279   4.628   4.814   7.637 -0.6983  0.0843 -0.6000
   79CHL1  H18A 8280   4.623   4.827   7.526  0.2904 -0.3101 -0.7022
   79CHL1  H18B 8281   4.726   4.848   7.674  0.0168 -2.3409 -0.0577
   79CHL1  H18C 8282   4.624   4.707   7.668  1.1995  0.2971  0.5209
   79CHL1   C12 8283   4.374   4.816   7.660 -0.4255 -0.0712  0.2145
   79CHL1  H12A 8284   4.388   4.707   7.678 -2.6563 -0.8361 -2.1009
   79CHL1  H12B 8285   4.289   4.865   7.713  0.1712  1.3563 -0.1274
   79CHL1   C11 8286   4.359   4.825   7.505 -0.4217  0.3545  0.4757
   79CHL1  H11A 8287   4.438   4.761   7.461 -0.1047 -0.9520  2.7528
   79CHL1  H11B 8288   4.262   4.777   7.477  1.6276 -3.2562 -1.1614
   79CHL1    C9 8289   4.359   4.967   7.445 -0.6343 -0.5029 -0.0286
   79CHL1    H9 8290   4.270   5.015   7.490 -0.3228  0.9470 -0.9120
   79CHL1   C10 8291   4.332   4.987   7.295  0.5136  0.0490 -0.3326
   79CHL1   C19 8292   4.420   4.889   7.217  0.3506 -1.2360 -0.5655
   79CHL1  H19A 8293   4.398   4.788   7.258  2.5842 -1.2857  0.6968
   79CHL1  H19B 8294   4.388   4.872   7.112 -1.0480 -1.8131 -0.0637
   79CHL1  H19C 8295   4.527   4.918   7.225 -0.1360  1.0895 -1.5465
   79CHL1    C1 8296   4.182   4.969   7.272  0.2627  0.0584  0.1390
   79CHL1   H1A 8297   4.154   4.866   7.304 -2.0757  1.0161  1.4333
   79CHL1   H1B 8298   4.133   5.046   7.335  0.3724  1.1890 -1.1193
   79CHL1    C2 8299   4.140   5.003   7.129  0.4818 -0.2046 -1.3025
   79CHL1   H2A 8300   4.029   5.009   7.126  0.4964  0.0576 -1.3267
   79CHL1   H2B 8301   4.175   4.919   7.066 -1.4591 -0.8878 -1.5284
   79CHL1   C20 8302   4.598   4.806   7.937  0.0622 -0.3072  0.6407
   79CHL1   H20 8303   4.696   4.779   7.891 -0.7301 -2.4856  0.1127
   79CHL1   C21 8304   4.519   4.677   7.928 -0.3779 -0.0119 -0.2050
   79CHL1  H21A 8305   4.414   4.698   7.958 -0.0799 -1.3203  1.9237
   79CHL1  H21B 8306   4.565   4.599   7.991 -0.2750 -1.0247 -1.4856
   79CHL1  H21C 8307   4.516   4.630   7.827 -0.1210  0.9712 -0.6827
   79CHL1   C22 8308   4.629   4.844   8.084 -0.4262  0.4466 -0.6331
   79CHL1  H22A 8309   4.703   4.767   8.117 -1.0764 -0.1512 -0.5535
   79CHL1  H22B 8310   4.682   4.941   8.095  1.4451 -0.7308  1.9315
   79CHL1   C23 8311   4.496   4.855   8.169  0.2155 -0.0230  0.3432
   79CHL1  H23A 8312   4.418   4.902   8.106  1.4322 -0.7190 -1.7759
   79CHL1  H23B 8313   4.458   4.754   8.195 -0.2569  0.3961  1.3349
   79CHL1   C24 8314   4.515   4.920   8.305 -0.2410 -0.5648  0.7693
   79CHL1  H24A 8315   4.545   5.026   8.290 -2.6761  0.0422 -0.3910
   79CHL1  H24B 8316   4.429   4.925   8.376  1.4927  0.1297  2.9146
   79CHL1   C25 8317   4.635   4.852   8.385 -0.7986 -0.2848 -0.1597
   79CHL1   H25 8318   4.727   4.869   8.325 -1.3361  3.1236 -0.2238
   79CHL1   C26 8319   4.658   4.922   8.516 -0.2184  0.3111  0.4268
   79CHL1  H26A 8320   4.738   4.870   8.571  0.3130  1.2969  0.6102
   79CHL1  H26B 8321   4.690   5.028   8.506 -1.4847  0.6087 -0.8867
   79CHL1  H26C 8322   4.562   4.937   8.571 -0.6374 -0.6703 -0.0149
   79CHL1   C27 8323   4.617   4.700   8.406  0.1368 -0.0693  0.4310
   79CHL1  H27A 8324   4.679   4.652   8.485  3.2769 -0.2731 -1.9391
   79CHL1  H27B 8325   4.515   4.699   8.449  0.3734 -1.2440  1.0061
   79CHL1  H27C 8326   4.634   4.640   8.313  1.6190 -0.1442  0.7156
   80CHL1    C3 8327   3.207   1.424   7.081 -0.1474 -0.2674  0.0731
   80CHL1    H3 8328   3.211   1.315   7.104  1.6492 -0.0493  0.9887
   80CHL1    O3 8329   3.219   1.449   6.939 -0.8049  0.4716 -0.5123
   80CHL1   H3' 8330   3.192   1.540   6.927 -0.9688  0.1876 -2.7247
   80CHL1    C4 8331   3.070   1.480   7.128  0.0154  0.1191 -0.9385
   80CHL1   H4A 8332   3.068   1.584   7.089 -3.4051 -0.7491 -3.6612
   80CHL1   H4B 8333   2.993   1.416   7.080 -0.8073  0.3090  0.0908
   80CHL1    C5 8334   3.059   1.468   7.280  0.0935  1.0438  0.6137
   80CHL1    C6 8335   2.951   1.411   7.335  0.0593  0.4665  0.2902
   80CHL1    H6 8336   2.878   1.382   7.258  3.3405  0.7101 -3.2337
   80CHL1    C7 8337   2.938   1.386   7.483  0.1644  0.3639  0.5912
   80CHL1   H7A 8338   2.836   1.413   7.516 -1.3009 -3.5893 -0.0656
   80CHL1   H7B 8339   2.953   1.276   7.490  0.5874 -0.0261 -3.5622
   80CHL1    C8 8340   3.038   1.471   7.563  0.7093 -0.0298  0.0038
   80CHL1    H8 8341   3.003   1.576   7.554 -0.3987 -0.4432 -0.7040
   80CHL1   C14 8342   3.034   1.424   7.709 -0.0989 -0.1629  0.1374
   80CHL1   H14 8343   3.059   1.316   7.695  2.1610  0.6148 -3.1337
   80CHL1   C15 8344   2.900   1.425   7.780 -0.5568 -0.4321 -0.0116
   80CHL1  H15A 8345   2.868   1.528   7.753 -0.0175 -0.3449 -0.3398
   80CHL1  H15B 8346   2.829   1.353   7.733  1.5170 -1.3472 -1.9714
   80CHL1   C16 8347   2.934   1.399   7.923  0.2876 -0.5391  1.3226
   80CHL1  H16A 8348   2.880   1.460   7.998  0.6096 -1.7515  2.5655
   80CHL1  H16B 8349   2.923   1.292   7.947 -0.2473 -0.5573  1.0106
   80CHL1   C17 8350   3.089   1.423   7.940  0.0557 -0.6137 -0.3469
   80CHL1   H17 8351   3.138   1.324   7.932  1.4739 -0.0977  1.2550
   80CHL1   C13 8352   3.129   1.495   7.801 -0.4122  0.1964 -0.5225
   80CHL1   C18 8353   3.102   1.648   7.796 -0.7236 -0.3890  1.1867
   80CHL1  H18A 8354   3.111   1.684   7.692 -2.5182 -2.3795  0.2892
   80CHL1  H18B 8355   3.007   1.677   7.845  0.8280  2.2021  2.9351
   80CHL1  H18C 8356   3.187   1.687   7.857 -0.5003  2.3139 -0.6675
   80CHL1   C12 8357   3.268   1.460   7.751 -0.2124 -0.3080  0.5117
   80CHL1  H12A 8358   3.358   1.489   7.809 -0.1119 -0.4087  0.4082
   80CHL1  H12B 8359   3.282   1.350   7.741  2.4050 -0.0157  0.0785
   80CHL1   C11 8360   3.292   1.513   7.609  0.3655  0.0957  0.5340
   80CHL1  H11A 8361   3.291   1.623   7.598 -0.4359 -0.0180 -0.8266
   80CHL1  H11B 8362   3.392   1.476   7.577  1.3063  1.6007  1.6203
   80CHL1    C9 8363   3.182   1.458   7.509 -0.0614  0.5260 -0.0724
   80CHL1    H9 8364   3.201   1.349   7.515  0.3652  0.6996  3.3155
   80CHL1   C10 8365   3.179   1.511   7.363  0.4451 -0.4423  1.0126
   80CHL1   C19 8366   3.176   1.666   7.354  0.4879 -0.7309 -0.7706
   80CHL1  H19A 8367   3.263   1.710   7.407 -0.4141  1.9140 -1.3179
   80CHL1  H19B 8368   3.178   1.700   7.248 -0.3225  1.2661 -0.1800
   80CHL1  H19C 8369   3.081   1.699   7.402  1.4226  0.7429  0.1411
   80CHL1    C1 8370   3.310   1.460   7.296 -0.4734 -0.3065 -0.1054
   80CHL1   H1A 8371   3.393   1.505   7.355  0.5592 -1.1084 -0.9140
   80CHL1   H1B 8372   3.299   1.350   7.308  0.9287 -0.4624 -0.1602
   80CHL1    C2 8373   3.322   1.491   7.146  0.1204  0.4033  0.3149
   80CHL1   H2A 8374   3.421   1.454   7.113  1.2068  2.7435  0.7384
   80CHL1   H2B 8375   3.329   1.596   7.109 -0.9329 -0.5548 -2.8702
   80CHL1   C20 8376   3.130   1.492   8.073 -0.2473  0.3812  0.6078
   80CHL1   H20 8377   3.069   1.585   8.078 -3.7240 -1.7688  1.1100
   80CHL1   C21 8378   3.279   1.528   8.075  0.4951  0.2018 -0.6453
   80CHL1  H21A 8379   3.308   1.578   7.979  2.0808  0.0421 -0.2626
   80CHL1  H21B 8380   3.333   1.432   8.082 -0.5896 -0.5084 -1.5729
   80CHL1  H21C 8381   3.299   1.599   8.158 -1.2545 -0.2866  0.2409
   80CHL1   C22 8382   3.087   1.414   8.204  0.0055 -0.2391  0.5346
   80CHL1  H22A 8383   2.981   1.390   8.183 -0.3014  1.7274 -0.4248
   80CHL1  H22B 8384   3.142   1.317   8.207  0.5720 -0.0094 -1.1957
   80CHL1   C23 8385   3.108   1.501   8.329 -0.0903  0.2726  0.0218
   80CHL1  H23A 8386   3.217   1.507   8.350 -0.0593  0.6085 -0.2190
   80CHL1  H23B 8387   3.067   1.604   8.318  0.1901  0.3844  0.0172
   80CHL1   C24 8388   3.043   1.432   8.448 -0.4067 -0.0294 -0.1799
   80CHL1  H24A 8389   2.933   1.442   8.435 -0.3329  0.8258 -0.1928
   80CHL1  H24B 8390   3.073   1.327   8.470  0.0858  0.2514  0.4974
   80CHL1   C25 8391   3.067   1.514   8.580 -0.3474  0.2232 -0.0473
   80CHL1   H25 8392   3.055   1.620   8.551 -0.2565  0.2438 -0.0096
   80CHL1   C26 8393   2.941   1.493   8.665  0.0310 -0.1942  0.6672
   80CHL1  H26A 8394   2.843   1.520   8.619 -0.2370 -0.4407  1.0955
   80CHL1  H26B 8395   2.931   1.386   8.692 -1.1217 -0.2921 -0.0527
   80CHL1  H26C 8396   2.944   1.550   8.760 -1.4590  0.5054  0.3304
   80CHL1   C27 8397   3.199   1.488   8.644 -0.6313  0.6375  0.0618
   80CHL1  H27A 8398   3.286   1.533   8.591 -1.4165  1.3801 -0.6309
   80CHL1  H27B 8399   3.214   1.522   8.748  0.1786  0.4317  0.0210
   80CHL1  H27C 8400   3.216   1.379   8.633  2.5360  1.2009 -2.0468
   81CHL1    C3 8401   1.254   4.109   6.706 -0.0601  0.5993  0.7457
   81CHL1    H3 8402   1.287   4.213   6.728 -1.7060  1.6646 -1.4158
   81CHL1    O3 8403   1.238   4.097   6.565  0.0049 -0.7308  0.5398
   81CHL1   H3' 8404   1.301   4.028   6.539 -0.8988 -0.3517 -3.1176
   81CHL1    C4 8405   1.349   4.003   6.761  0.2447  0.7720  0.1284
   81CHL1   H4A 8406   1.320   3.904   6.719  1.3171  0.6974 -0.4806
   81CHL1   H4B 8407   1.449   4.024   6.716  0.3971 -0.1385  0.0325
   81CHL1    C5 8408   1.356   4.006   6.909 -0.2343  0.8603  0.2160
   81CHL1    C6 8409   1.472   4.013   6.970  0.0556 -0.1637 -0.3531
   81CHL1    H6 8410   1.568   4.027   6.919  1.9307 -0.4903  2.8080
   81CHL1    C7 8411   1.486   4.001   7.114  0.4375  0.1084 -0.2194
   81CHL1   H7A 8412   1.556   3.920   7.146  0.9893  0.0065 -1.6317
   81CHL1   H7B 8413   1.540   4.095   7.136  1.6352  0.0653 -2.6439
   81CHL1    C8 8414   1.356   3.981   7.196 -0.0412  0.2970 -0.1504
   81CHL1    H8 8415   1.328   3.874   7.200  0.7678  0.1127  0.8674
   81CHL1   C14 8416   1.376   4.050   7.338  0.4288 -0.2309  0.4848
   81CHL1   H14 8417   1.379   4.160   7.319  0.8919 -0.4673 -0.8912
   81CHL1   C15 8418   1.491   4.000   7.418 -0.4625 -0.2356 -0.2649
   81CHL1  H15A 8419   1.498   3.890   7.409 -4.1896 -0.4737 -2.0627
   81CHL1  H15B 8420   1.583   4.045   7.375 -0.2325 -0.4246  0.0255
   81CHL1   C16 8421   1.458   4.051   7.560 -1.0795  0.0619 -0.1411
   81CHL1  H16A 8422   1.484   3.965   7.625  1.8189  0.8498 -0.1221
   81CHL1  H16B 8423   1.524   4.138   7.578  2.5632 -2.3335 -0.7977
   81CHL1   C17 8424   1.313   4.102   7.558 -0.5553  0.3508  0.5763
   81CHL1   H17 8425   1.314   4.209   7.531  3.9617  0.0361 -1.3287
   81CHL1   C13 8426   1.252   4.034   7.430  0.0419 -0.5131  0.1226
   81CHL1   C18 8427   1.223   3.888   7.462  0.3610  0.2917 -0.1854
   81CHL1  H18A 8428   1.138   3.890   7.534  1.3082  0.7747  0.9643
   81CHL1  H18B 8429   1.200   3.820   7.378  1.6018 -2.1004  1.2967
   81CHL1  H18C 8430   1.304   3.835   7.517 -0.0534 -0.2976 -0.1476
   81CHL1   C12 8431   1.131   4.103   7.356  0.8463  0.2007 -0.4354
   81CHL1  H12A 8432   1.041   4.079   7.417  0.6738 -0.8564 -1.0809
   81CHL1  H12B 8433   1.144   4.213   7.354 -0.4712  0.4460  1.5035
   81CHL1   C11 8434   1.110   4.054   7.212 -0.3249  0.4258  0.0983
   81CHL1  H11A 8435   1.063   3.953   7.215  2.6823 -1.2013 -1.8659
   81CHL1  H11B 8436   1.032   4.118   7.164  0.0254 -0.4454 -1.7434
   81CHL1    C9 8437   1.241   4.052   7.126  0.3765 -0.7211 -0.4112
   81CHL1    H9 8438   1.256   4.162   7.117 -3.0948 -0.1569 -1.0463
   81CHL1   C10 8439   1.219   4.002   6.981  0.3881 -0.5711 -0.5372
   81CHL1   C19 8440   1.160   3.855   6.979 -0.0438 -0.3373 -0.6914
   81CHL1  H19A 8441   1.226   3.786   7.036  1.1843  1.2270 -0.1630
   81CHL1  H19B 8442   1.065   3.856   7.037  0.9720  1.5153  1.0566
   81CHL1  H19C 8443   1.151   3.812   6.877  0.5751 -1.9787 -0.0894
   81CHL1    C1 8444   1.115   4.093   6.911  0.1125 -0.5057 -0.6277
   81CHL1   H1A 8445   1.016   4.089   6.962  0.7429 -0.4258  0.6480
   81CHL1   H1B 8446   1.149   4.196   6.933  0.2163 -0.1185 -2.4588
   81CHL1    C2 8447   1.117   4.076   6.763 -0.2373 -0.5112 -0.0685
   81CHL1   H2A 8448   1.048   4.141   6.705  1.1025 -0.0074 -1.1567
   81CHL1   H2B 8449   1.087   3.972   6.736 -0.0067  0.2567 -3.7386
   81CHL1   C20 8450   1.240   4.089   7.690  0.1603 -0.3734  0.2864
   81CHL1   H20 8451   1.132   4.104   7.667  0.2239 -1.3904 -0.7685
   81CHL1   C21 8452   1.291   4.205   7.777  1.0374 -0.4093  0.1147
   81CHL1  H21A 8453   1.395   4.180   7.805  1.0912 -0.2443  0.0625
   81CHL1  H21B 8454   1.230   4.210   7.870 -3.3832 -1.1244 -2.4411
   81CHL1  H21C 8455   1.273   4.306   7.735  2.8479  0.6161  1.6999
   81CHL1   C22 8456   1.247   3.952   7.764 -0.4625 -0.3073 -0.7275
   81CHL1  H22A 8457   1.235   3.855   7.712 -1.3581 -0.1054 -0.9040
   81CHL1  H22B 8458   1.349   3.957   7.809 -0.0053  3.2266 -1.8250
   81CHL1   C23 8459   1.149   3.944   7.886 -1.0154  1.4198  0.5688
   81CHL1  H23A 8460   1.171   4.024   7.960 -0.9805  1.2375  0.7598
   81CHL1  H23B 8461   1.042   3.940   7.856 -0.6078 -0.2648 -0.8368
   81CHL1   C24 8462   1.175   3.811   7.966 -0.0084  0.4703  0.0112
   81CHL1  H24A 8463   1.126   3.726   7.914  2.2171 -1.1501  0.4581
   81CHL1  H24B 8464   1.285   3.804   7.980 -0.2539 -2.2292  0.9815
   81CHL1   C25 8465   1.107   3.797   8.102 -0.2698  0.0365 -0.6911
   81CHL1   H25 8466   1.133   3.887   8.161 -1.8150 -0.5898  1.0772
   81CHL1   C26 8467   0.953   3.809   8.088  0.5486 -0.3453 -0.7430
   81CHL1  H26A 8468   0.905   3.810   8.189  3.5453  0.3468  0.8069
   81CHL1  H26B 8469   0.918   3.899   8.033 -0.0994  0.7185  1.2720
   81CHL1  H26C 8470   0.922   3.713   8.042 -0.2913 -1.8285  2.5925
   81CHL1   C27 8471   1.145   3.670   8.178 -0.2528  0.3775  0.8258
   81CHL1  H27A 8472   1.124   3.591   8.103  2.6948  1.4977 -1.3934
   81CHL1  H27B 8473   1.255   3.671   8.196 -0.1168  1.6689  0.0412
   81CHL1  H27C 8474   1.092   3.649   8.273 -0.1924 -0.6324  0.6487
   82CHL1    C3 8475   2.429   3.504   6.960  0.2738  0.0992  0.0290
   82CHL1    H3 8476   2.358   3.419   6.959 -1.6910  1.6581 -0.1382
   82CHL1    O3 8477   2.463   3.527   6.822 -0.0523  0.2339 -0.0021
   82CHL1   H3' 8478   2.519   3.605   6.823 -2.9788  2.5251 -0.7944
   82CHL1    C4 8479   2.359   3.631   7.017  0.6972 -0.0162 -0.3841
   82CHL1   H4A 8480   2.434   3.712   7.010  0.8505 -0.2337 -1.4354
   82CHL1   H4B 8481   2.272   3.644   6.950  0.0353 -3.3987 -0.3477
   82CHL1    C5 8482   2.328   3.614   7.164  0.7257  0.7092  0.2889
   82CHL1    C6 8483   2.199   3.629   7.200  0.2006 -0.4833 -0.3870
   82CHL1    H6 8484   2.122   3.661   7.128 -2.2803 -0.6905  2.0136
   82CHL1    C7 8485   2.156   3.615   7.343  0.2429  0.4081 -0.2170
   82CHL1   H7A 8486   2.089   3.700   7.369  0.6422  0.9793 -0.9961
   82CHL1   H7B 8487   2.088   3.530   7.364  0.1997  0.8984  1.9052
   82CHL1    C8 8488   2.278   3.603   7.443 -0.1005  0.5266 -0.7612
   82CHL1    H8 8489   2.322   3.705   7.450 -0.7623  0.7837 -0.1178
   82CHL1   C14 8490   2.238   3.555   7.584  0.3260 -0.2821  0.3393
   82CHL1   H14 8491   2.201   3.454   7.557  1.0942 -0.3223 -0.6728
   82CHL1   C15 8492   2.125   3.635   7.644  1.2743 -0.3359 -0.0767
   82CHL1  H15A 8493   2.146   3.743   7.636  0.0657 -0.0568  0.2629
   82CHL1  H15B 8494   2.025   3.610   7.601  0.5060 -0.3077  1.6193
   82CHL1   C16 8495   2.129   3.589   7.790 -0.7091  0.0094 -0.2281
   82CHL1  H16A 8496   2.126   3.675   7.860  2.2621  0.0293  0.0151
   82CHL1  H16B 8497   2.047   3.518   7.812 -0.1562 -1.0293 -1.3654
   82CHL1   C17 8498   2.259   3.499   7.806 -0.2103 -0.8727 -0.0526
   82CHL1   H17 8499   2.227   3.393   7.792 -1.1850 -0.5324 -0.4799
   82CHL1   C13 8500   2.347   3.536   7.684 -1.1085  0.3394 -0.2402
   82CHL1   C18 8501   2.420   3.665   7.717  0.0495  0.8320 -1.1111
   82CHL1  H18A 8502   2.445   3.730   7.630  1.0429  0.5527 -1.0488
   82CHL1  H18B 8503   2.363   3.736   7.780 -2.3277  1.1326 -3.3814
   82CHL1  H18C 8504   2.511   3.632   7.771 -0.4764 -0.6329 -1.0712
   82CHL1   C12 8505   2.450   3.429   7.634  1.0652 -0.2826  0.0954
   82CHL1  H12A 8506   2.538   3.436   7.702  1.8728 -1.9792 -0.7126
   82CHL1  H12B 8507   2.413   3.325   7.629 -0.1130  0.1035  0.5992
   82CHL1   C11 8508   2.503   3.461   7.491 -0.4076  0.3739 -0.4092
   82CHL1  H11A 8509   2.566   3.552   7.509  0.7619  0.1406 -2.8844
   82CHL1  H11B 8510   2.574   3.381   7.460  1.3256  1.0611  1.5169
   82CHL1    C9 8511   2.388   3.506   7.393  0.5309 -0.1845 -0.0235
   82CHL1    H9 8512   2.337   3.411   7.367  2.9511 -0.7355 -3.4277
   82CHL1   C10 8513   2.443   3.562   7.259  0.5916  0.5989  0.1210
   82CHL1   C19 8514   2.540   3.676   7.274  0.2580  0.7344  0.0310
   82CHL1  H19A 8515   2.579   3.713   7.177 -0.4765 -0.9566 -0.9604
   82CHL1  H19B 8516   2.497   3.768   7.320  0.6486  0.7853  0.2972
   82CHL1  H19C 8517   2.624   3.649   7.340 -0.1899 -0.0280  0.3018
   82CHL1    C1 8518   2.523   3.446   7.187 -0.2302  0.4894 -1.1401
   82CHL1   H1A 8519   2.623   3.435   7.234 -1.3478 -2.2730  0.9022
   82CHL1   H1B 8520   2.464   3.353   7.202 -0.2187  0.7959  1.3704
   82CHL1    C2 8521   2.556   3.475   7.038 -0.1717 -0.0079 -0.8451
   82CHL1   H2A 8522   2.612   3.385   7.004  1.4979 -0.1718  2.0040
   82CHL1   H2B 8523   2.629   3.559   7.033  0.0791 -0.0676  1.0002
   82CHL1   C20 8524   2.309   3.507   7.949 -0.4898  0.8831 -0.4218
   82CHL1   H20 8525   2.356   3.603   7.980 -1.2946  0.6213  1.7822
   82CHL1   C21 8526   2.408   3.397   7.978 -0.1362  0.5445  0.1805
   82CHL1  H21A 8527   2.499   3.406   7.915 -1.8497  1.3538 -2.3442
   82CHL1  H21B 8528   2.370   3.293   7.972  0.8422  0.1615  0.3148
   82CHL1  H21C 8529   2.447   3.407   8.081  1.2640 -1.8746 -0.0220
   82CHL1   C22 8530   2.192   3.475   8.054  0.3819 -0.3375  0.3063
   82CHL1  H22A 8531   2.110   3.549   8.037  0.3608  0.2615  2.6584
   82CHL1  H22B 8532   2.162   3.373   8.022 -2.3939  0.3145  0.5704
   82CHL1   C23 8533   2.226   3.478   8.199 -0.0620 -0.4809 -0.5753
   82CHL1  H23A 8534   2.265   3.381   8.234 -3.3921 -0.8322  2.7823
   82CHL1  H23B 8535   2.302   3.554   8.227 -0.1396 -0.4055 -0.5671
   82CHL1   C24 8536   2.098   3.506   8.285 -0.2897  0.7085  0.1783
   82CHL1  H24A 8537   2.067   3.610   8.261 -0.1549  0.5566 -0.6769
   82CHL1  H24B 8538   2.024   3.428   8.258  1.5367 -1.5998  1.4860
   82CHL1   C25 8539   2.116   3.494   8.439  0.4413 -0.2470  0.3029
   82CHL1   H25 8540   2.153   3.391   8.459 -0.0398 -0.2331  1.3066
   82CHL1   C26 8541   2.212   3.595   8.502 -0.0812 -0.0215 -0.3911
   82CHL1  H26A 8542   2.303   3.608   8.440  0.8055  0.4447  0.9711
   82CHL1  H26B 8543   2.179   3.701   8.504 -1.3749 -0.4085 -0.3289
   82CHL1  H26C 8544   2.250   3.580   8.605  1.4686  2.4931 -0.5232
   82CHL1   C27 8545   1.976   3.494   8.504  0.4691  0.0042 -0.1368
   82CHL1  H27A 8546   1.929   3.394   8.502  0.5641 -0.0906  1.3056
   82CHL1  H27B 8547   1.996   3.531   8.606  1.3516  3.6078 -1.4416
   82CHL1  H27C 8548   1.915   3.574   8.458 -1.5011 -0.1498  2.0933
   83CHL1    C3 8549   5.113   5.830   6.784 -1.0875  0.2871  0.1627
   83CHL1    H3 8550   5.096   5.721   6.787  1.9676 -0.3282 -1.5609
   83CHL1    O3 8551   5.107   5.874   6.655  0.2841 -0.1144 -0.1864
   83CHL1   H3' 8552   5.013   5.894   6.648 -0.0848 -1.2995  1.0110
   83CHL1    C4 8553   5.008   5.902   6.869 -0.5433  0.2382  0.0500
   83CHL1   H4A 8554   5.023   6.009   6.847 -0.9002 -0.1897 -2.6203
   83CHL1   H4B 8555   4.906   5.882   6.830 -0.4654 -1.2136  0.4977
   83CHL1    C5 8556   5.021   5.871   7.018 -0.6601 -0.2586 -0.2362
   83CHL1    C6 8557   4.925   5.819   7.098  0.3300  0.6407  1.4145
   83CHL1    H6 8558   4.831   5.798   7.046  0.9193 -0.7930  0.8750
   83CHL1    C7 8559   4.923   5.801   7.249 -0.1738 -0.3338  0.2985
   83CHL1   H7A 8560   4.824   5.842   7.278  0.4083  1.3909 -0.0154
   83CHL1   H7B 8561   4.907   5.695   7.279  0.3461 -0.5701 -0.2266
   83CHL1    C8 8562   5.046   5.872   7.309  0.2801 -0.2485  0.1521
   83CHL1    H8 8563   5.030   5.977   7.343  0.9610 -0.2829  0.6124
   83CHL1   C14 8564   5.077   5.795   7.435 -0.5438  0.7052  0.4064
   83CHL1   H14 8565   5.117   5.692   7.419 -0.0962  0.7424  1.2420
   83CHL1   C15 8566   4.954   5.796   7.540 -0.0324  0.4270  0.4951
   83CHL1  H15A 8567   4.898   5.892   7.539  0.4326  0.7053 -1.2676
   83CHL1  H15B 8568   4.879   5.719   7.513 -0.4015 -0.0106  2.5977
   83CHL1   C16 8569   5.016   5.759   7.671 -0.6630 -0.1606  0.2027
   83CHL1  H16A 8570   4.973   5.825   7.749 -2.9909  0.1444 -1.2197
   83CHL1  H16B 8571   5.001   5.650   7.688 -0.9329 -0.6893 -2.8524
   83CHL1   C17 8572   5.167   5.773   7.653 -0.2684 -0.2364  0.4215
   83CHL1   H17 8573   5.213   5.674   7.632  0.9910  0.4260 -0.0608
   83CHL1   C13 8574   5.192   5.854   7.524 -0.3602 -0.1255 -0.3900
   83CHL1   C18 8575   5.178   6.003   7.557  0.4285 -0.4174  0.5247
   83CHL1  H18A 8576   5.248   6.050   7.628  1.1252  0.1686 -0.5193
   83CHL1  H18B 8577   5.178   6.072   7.470 -0.4706  1.0656  1.6617
   83CHL1  H18C 8578   5.077   6.030   7.592  1.5320  1.4378  2.5180
   83CHL1   C12 8579   5.326   5.846   7.437 -0.1830  0.0145 -0.4343
   83CHL1  H12A 8580   5.417   5.887   7.487 -0.3342 -1.4160  1.0939
   83CHL1  H12B 8581   5.351   5.740   7.417 -2.3918  0.0244 -4.0390
   83CHL1   C11 8582   5.299   5.906   7.294 -0.2880  0.4914  0.3912
   83CHL1  H11A 8583   5.285   6.015   7.315  0.9487  0.7192  0.0945
   83CHL1  H11B 8584   5.390   5.886   7.234 -2.3179 -3.1652 -1.7721
   83CHL1    C9 8585   5.173   5.851   7.222 -0.6630  0.2711  0.7192
   83CHL1    H9 8586   5.187   5.741   7.218 -2.2634 -0.0608  2.8550
   83CHL1   C10 8587   5.158   5.901   7.079  0.0399 -1.5372  0.4801
   83CHL1   C19 8588   5.171   6.059   7.081  0.4117  0.6500 -0.0934
   83CHL1  H19A 8589   5.107   6.101   7.162 -2.1038 -0.7317 -1.2203
   83CHL1  H19B 8590   5.278   6.086   7.091  0.7201 -0.9722  1.7343
   83CHL1  H19C 8591   5.122   6.105   6.993 -3.3824 -2.1393  0.2878
   83CHL1    C1 8592   5.267   5.833   6.995  0.7013 -0.1537  0.4828
   83CHL1   H1A 8593   5.372   5.860   7.021  0.3611  0.9638  0.7229
   83CHL1   H1B 8594   5.258   5.723   7.010 -2.8761 -0.4502 -2.5721
   83CHL1    C2 8595   5.253   5.861   6.844  0.2737  0.3707  0.6546
   83CHL1   H2A 8596   5.328   5.798   6.792 -0.2568 -1.0643  1.5907
   83CHL1   H2B 8597   5.276   5.970   6.833  1.9343  0.0128  0.3323
   83CHL1   C20 8598   5.245   5.816   7.786 -0.2151 -0.6702  0.3249
   83CHL1   H20 8599   5.237   5.927   7.781 -2.7885 -0.8351 -0.3073
   83CHL1   C21 8600   5.394   5.778   7.769  0.0765  0.1422  0.2638
   83CHL1  H21A 8601   5.413   5.673   7.739  0.0786 -0.0238  0.8519
   83CHL1  H21B 8602   5.451   5.804   7.860  1.5298  2.0660 -1.0896
   83CHL1  H21C 8603   5.440   5.843   7.690  1.6306  0.4080  1.3497
   83CHL1   C22 8604   5.184   5.755   7.911  0.0443 -0.1689  0.4924
   83CHL1  H22A 8605   5.233   5.804   7.997 -0.1248 -0.0418  0.5164
   83CHL1  H22B 8606   5.076   5.777   7.923  0.4700  4.6718 -1.9416
   83CHL1   C23 8607   5.198   5.605   7.944 -0.0321 -0.4065  1.3061
   83CHL1  H23A 8608   5.116   5.564   7.882  1.4972 -1.5907 -0.0241
   83CHL1  H23B 8609   5.302   5.569   7.930  0.9436  2.0471  1.6871
   83CHL1   C24 8610   5.163   5.571   8.089  0.2202 -0.3716 -0.1494
   83CHL1  H24A 8611   5.230   5.628   8.156 -0.3302  0.4081 -0.2452
   83CHL1  H24B 8612   5.058   5.604   8.107  0.0470  1.5251 -3.7966
   83CHL1   C25 8613   5.173   5.415   8.114  0.0040  0.3002  0.3196
   83CHL1   H25 8614   5.113   5.368   8.033  0.0419 -1.9972  1.5378
   83CHL1   C26 8615   5.303   5.348   8.115  0.1386 -0.0518 -0.4616
   83CHL1  H26A 8616   5.362   5.374   8.025  1.3839 -1.5507 -0.1064
   83CHL1  H26B 8617   5.353   5.394   8.203  1.0842  0.5971 -1.3184
   83CHL1  H26C 8618   5.316   5.242   8.146  1.7675  0.1493 -0.4068
   83CHL1   C27 8619   5.090   5.387   8.239  0.1959  0.0114  0.3092
   83CHL1  H27A 8620   5.131   5.437   8.328  0.2417 -1.1929  0.9920
   83CHL1  H27B 8621   4.982   5.409   8.229  0.2787 -0.3588 -1.9826
   83CHL1  H27C 8622   5.097   5.277   8.252  1.0358 -0.2611 -1.8821
   84CHL1    C3 8623   5.857   1.601   6.921 -0.0998 -0.3122  0.1676
   84CHL1    H3 8624   5.965   1.587   6.945 -0.4091  0.5870  2.3519
   84CHL1    O3 8625   5.847   1.591   6.781 -0.7339 -0.2898 -0.5168
   84CHL1   H3' 8626   5.789   1.521   6.750  1.2501 -1.1103 -2.6748
   84CHL1    C4 8627   5.767   1.509   6.997  0.0852  0.3113  0.5816
   84CHL1   H4A 8628   5.662   1.514   6.962  0.2890  3.5747  0.1226
   84CHL1   H4B 8629   5.809   1.407   6.978 -2.1504 -0.7931  1.2706
   84CHL1    C5 8630   5.777   1.517   7.149  0.2504  0.0533  0.1264
   84CHL1    C6 8631   5.819   1.422   7.231 -0.2429 -1.1014  0.6408
   84CHL1    H6 8632   5.845   1.323   7.191 -1.3355 -0.8395 -0.7902
   84CHL1    C7 8633   5.829   1.438   7.378 -0.4433  0.3988 -0.1688
   84CHL1   H7A 8634   5.790   1.349   7.432  1.0070  0.4778  1.0967
   84CHL1   H7B 8635   5.937   1.451   7.402 -0.3284  0.1063 -0.5351
   84CHL1    C8 8636   5.753   1.562   7.435 -0.1043 -0.2502  0.2674
   84CHL1    H8 8637   5.644   1.545   7.427 -0.0261 -0.3294 -0.7304
   84CHL1   C14 8638   5.784   1.601   7.584 -0.0083  0.4486  1.1579
   84CHL1   H14 8639   5.888   1.638   7.586 -0.5858  2.1855  0.4445
   84CHL1   C15 8640   5.778   1.492   7.692  0.4686 -0.5003 -0.4629
   84CHL1  H15A 8641   5.675   1.451   7.697  0.4179 -0.6458 -2.1344
   84CHL1  H15B 8642   5.850   1.408   7.683 -0.9063 -1.8465  0.6285
   84CHL1   C16 8643   5.787   1.572   7.822 -0.6854  0.2113 -0.2180
   84CHL1  H16A 8644   5.705   1.535   7.886  2.4971 -3.1428  2.3065
   84CHL1  H16B 8645   5.885   1.548   7.869 -1.5664  0.3575  1.7840
   84CHL1   C17 8646   5.756   1.720   7.789  0.2282  0.6327 -0.6405
   84CHL1   H17 8647   5.853   1.775   7.785 -0.2243  1.5056 -0.0342
   84CHL1   C13 8648   5.698   1.717   7.644  0.1211 -0.0895  0.2150
   84CHL1   C18 8649   5.549   1.676   7.641 -0.7582  0.6773  0.0081
   84CHL1  H18A 8650   5.497   1.770   7.670 -3.2625 -0.5362 -0.2309
   84CHL1  H18B 8651   5.494   1.658   7.547 -0.9738  0.6399  0.1393
   84CHL1  H18C 8652   5.525   1.587   7.702  1.3637  0.0058 -0.0618
   84CHL1   C12 8653   5.727   1.845   7.555  0.3724 -0.2728 -0.2765
   84CHL1  H12A 8654   5.666   1.920   7.610 -0.1369 -0.6662 -0.2995
   84CHL1  H12B 8655   5.832   1.876   7.573  0.3101  0.4576 -1.0923
   84CHL1   C11 8656   5.695   1.812   7.408 -0.0998 -1.2461 -0.8493
   84CHL1  H11A 8657   5.585   1.824   7.401  0.0335  0.5416 -0.3224
   84CHL1  H11B 8658   5.732   1.895   7.345  1.2405 -2.4461 -1.7149
   84CHL1    C9 8659   5.779   1.691   7.347 -0.2602 -0.4599 -0.3656
   84CHL1    H9 8660   5.887   1.706   7.365 -0.2667  1.5258 -1.6639
   84CHL1   C10 8661   5.750   1.666   7.196  0.0653  0.3311 -0.3016
   84CHL1   C19 8662   5.605   1.708   7.168  0.1493  0.6242  0.9367
   84CHL1  H19A 8663   5.529   1.673   7.240 -1.2428 -0.7335 -1.0845
   84CHL1  H19B 8664   5.604   1.819   7.171 -2.2529  0.6453  1.1173
   84CHL1  H19C 8665   5.578   1.677   7.065  0.8225 -3.6301  1.8474
   84CHL1    C1 8666   5.846   1.758   7.108 -0.0162 -0.1120 -0.1566
   84CHL1   H1A 8667   5.820   1.859   7.149 -0.7438 -0.8591  1.3176
   84CHL1   H1B 8668   5.948   1.732   7.144  1.0998 -0.2979 -3.1655
   84CHL1    C2 8669   5.824   1.747   6.964  0.0025  0.0155  0.0568
   84CHL1   H2A 8670   5.894   1.813   6.908 -1.1137  0.3744 -0.9807
   84CHL1   H2B 8671   5.719   1.770   6.935 -0.2166 -0.9617  0.0398
   84CHL1   C20 8672   5.682   1.791   7.904  0.0963 -0.4658  0.1469
   84CHL1   H20 8673   5.581   1.749   7.925 -0.6772  1.2518  0.0478
   84CHL1   C21 8674   5.670   1.935   7.875 -0.5455  0.0322  0.1980
   84CHL1  H21A 8675   5.576   1.951   7.819 -1.6383 -3.9584  0.5922
   84CHL1  H21B 8676   5.749   1.969   7.805 -0.1082  1.0007  1.1268
   84CHL1  H21C 8677   5.673   1.999   7.967  0.5724  0.6185 -0.2242
   84CHL1   C22 8678   5.758   1.765   8.036 -0.2263 -0.3753 -0.3530
   84CHL1  H22A 8679   5.811   1.668   8.037 -1.2496 -0.9568  1.1440
   84CHL1  H22B 8680   5.837   1.839   8.060 -0.4807 -0.5796  1.2205
   84CHL1   C23 8681   5.660   1.771   8.159  0.4490 -1.0199  0.7333
   84CHL1  H23A 8682   5.617   1.873   8.166 -1.4352 -1.8574  2.1792
   84CHL1  H23B 8683   5.572   1.704   8.149  1.1128 -2.0599  1.5525
   84CHL1   C24 8684   5.736   1.734   8.287  0.0808  0.1398  0.1510
   84CHL1  H24A 8685   5.662   1.705   8.364 -0.1093 -1.2141 -0.5148
   84CHL1  H24B 8686   5.795   1.642   8.269  0.8733  0.1547  2.3861
   84CHL1   C25 8687   5.820   1.851   8.352 -0.0027 -1.0505 -0.2135
   84CHL1   H25 8688   5.891   1.883   8.273 -1.5344 -0.4549 -1.3899
   84CHL1   C26 8689   5.741   1.969   8.405 -0.3812  0.1765  0.7984
   84CHL1  H26A 8690   5.686   2.021   8.324 -0.7258  0.8247  1.4370
   84CHL1  H26B 8691   5.660   1.937   8.474  0.3603 -2.3067  0.6086
   84CHL1  H26C 8692   5.797   2.053   8.451  2.5986  1.0791 -3.8180
   84CHL1   C27 8693   5.902   1.792   8.467 -0.4687 -0.6866 -0.2056
   84CHL1  H27A 8694   5.835   1.770   8.553  0.8811 -0.0772  1.0407
   84CHL1  H27B 8695   5.950   1.705   8.417  0.4359  1.3579 -3.2492
   84CHL1  H27C 8696   5.978   1.865   8.503 -0.9390 -1.2797  2.1206
   85CHL1    C3 8697   5.731   6.702   6.823 -0.3451 -0.5707  0.8490
   85CHL1    H3 8698   5.648   6.628   6.832 -0.1761 -0.9861 -0.6403
   85CHL1    O3 8699   5.726   6.755   6.685  0.7245 -0.1480 -0.5650
   85CHL1   H3' 8700   5.646   6.808   6.691  0.8549  0.1773 -1.4455
   85CHL1    C4 8701   5.707   6.816   6.925  0.2264 -0.4105  0.1999
   85CHL1   H4A 8702   5.778   6.898   6.902 -0.3842  0.6927  2.0550
   85CHL1   H4B 8703   5.605   6.856   6.911 -0.0756 -1.9399 -2.7117
   85CHL1    C5 8704   5.733   6.765   7.065  0.0827 -0.9139  0.1812
   85CHL1    C6 8705   5.642   6.787   7.159  0.0647 -1.2573  0.0462
   85CHL1    H6 8706   5.551   6.841   7.130  0.0547 -0.6139  1.2065
   85CHL1    C7 8707   5.652   6.740   7.302 -0.0043  0.5663  0.0909
   85CHL1   H7A 8708   5.618   6.813   7.378 -1.7356 -0.0200 -0.0850
   85CHL1   H7B 8709   5.600   6.642   7.308  1.0733 -0.0820 -0.6153
   85CHL1    C8 8710   5.804   6.708   7.343 -0.4301 -0.4255 -0.4545
   85CHL1    H8 8711   5.856   6.804   7.364 -2.1039  1.0075 -2.3757
   85CHL1   C14 8712   5.804   6.636   7.472  0.7031  0.4212 -0.1004
   85CHL1   H14 8713   5.770   6.535   7.439 -0.5305  1.0870 -0.9500
   85CHL1   C15 8714   5.719   6.680   7.589  0.2249 -0.2705 -0.1457
   85CHL1  H15A 8715   5.720   6.788   7.615 -2.4944 -0.0182 -0.7556
   85CHL1  H15B 8716   5.609   6.662   7.586 -0.4044  3.0515 -0.6929
   85CHL1   C16 8717   5.776   6.590   7.708 -0.0783 -0.0974 -0.8670
   85CHL1  H16A 8718   5.772   6.658   7.796  0.9863 -0.8745 -0.1837
   85CHL1  H16B 8719   5.718   6.495   7.711  0.1761 -0.2733  2.2115
   85CHL1   C17 8720   5.913   6.548   7.665  0.3039  0.4819  0.0625
   85CHL1   H17 8721   5.903   6.442   7.632 -0.7332  0.4834  0.3511
   85CHL1   C13 8722   5.943   6.621   7.528 -0.6568 -0.0121  0.0878
   85CHL1   C18 8723   6.013   6.754   7.562  0.1480 -1.5356 -0.1733
   85CHL1  H18A 8724   6.116   6.738   7.600  0.5655  2.3472  0.7294
   85CHL1  H18B 8725   6.018   6.819   7.473 -2.5753  0.0210  0.6787
   85CHL1  H18C 8726   5.955   6.803   7.643  0.2499 -0.7000 -0.6004
   85CHL1   C12 8727   6.035   6.539   7.431  0.5920 -0.2365 -0.5832
   85CHL1  H12A 8728   6.139   6.521   7.465  0.1462 -0.1563  0.8532
   85CHL1  H12B 8729   5.982   6.441   7.418 -0.7875  0.1674  1.5780
   85CHL1   C11 8730   6.029   6.601   7.286  0.4344 -0.4701  0.2422
   85CHL1  H11A 8731   6.086   6.694   7.303 -0.2148  0.0205 -0.2083
   85CHL1  H11B 8732   6.085   6.529   7.222  0.5069 -1.5673  1.4982
   85CHL1    C9 8733   5.884   6.627   7.234  0.3288 -0.3137  0.5501
   85CHL1    H9 8734   5.828   6.531   7.235  0.4952 -0.4343 -0.8736
   85CHL1   C10 8735   5.867   6.697   7.094 -0.3952 -0.2430 -0.2400
   85CHL1   C19 8736   5.986   6.800   7.082  0.2481  0.5825  0.6393
   85CHL1  H19A 8737   6.085   6.756   7.105  0.9387  1.0167 -1.2649
   85CHL1  H19B 8738   5.983   6.843   6.979 -0.6078  0.0981  0.4490
   85CHL1  H19C 8739   5.965   6.886   7.149 -1.0449  1.5823 -0.9427
   85CHL1    C1 8740   5.878   6.585   6.989 -0.6970 -0.0607  0.2993
   85CHL1   H1A 8741   5.973   6.528   6.998 -0.6149 -0.1606 -0.9977
   85CHL1   H1B 8742   5.798   6.515   7.019 -1.0714 -0.5545 -1.7181
   85CHL1    C2 8743   5.864   6.628   6.846 -0.1649  0.1741  0.6006
   85CHL1   H2A 8744   5.870   6.542   6.775  1.3435 -0.6844  1.7213
   85CHL1   H2B 8745   5.936   6.710   6.823  0.8794 -1.0308 -0.6027
   85CHL1   C20 8746   6.010   6.543   7.785  0.1789  0.1419 -0.4517
   85CHL1   H20 8747   6.042   6.648   7.804 -0.3758  0.1927  0.2343
   85CHL1   C21 8748   6.129   6.456   7.740 -0.3820  1.1812 -0.7904
   85CHL1  H21A 8749   6.087   6.355   7.719  1.0155  0.1590  0.9796
   85CHL1  H21B 8750   6.207   6.448   7.819 -1.9041 -0.3160  0.6617
   85CHL1  H21C 8751   6.169   6.485   7.641 -0.0082 -0.7809 -1.2510
   85CHL1   C22 8752   5.949   6.500   7.924  0.3146 -0.8822 -0.0848
   85CHL1  H22A 8753   5.877   6.578   7.958  0.2359 -0.8562 -0.3105
   85CHL1  H22B 8754   5.891   6.406   7.925  1.1154 -1.3859 -0.5376
   85CHL1   C23 8755   6.063   6.489   8.034  0.1717  0.2231  0.4473
   85CHL1  H23A 8756   5.996   6.463   8.119  1.1973 -0.0482  1.1963
   85CHL1  H23B 8757   6.129   6.407   7.998  0.5695  0.0357  1.5543
   85CHL1   C24 8758   6.149   6.604   8.064 -1.1258  0.1032 -0.3010
   85CHL1  H24A 8759   6.207   6.643   7.977  1.1556 -1.6512  0.3262
   85CHL1  H24B 8760   6.086   6.690   8.095 -0.9133  0.4422 -0.7850
   85CHL1   C25 8761   6.241   6.587   8.177 -0.9098  0.6633 -0.0335
   85CHL1   H25 8762   6.323   6.520   8.142 -0.0040  1.9107 -0.3743
   85CHL1   C26 8763   6.320   6.718   8.207  0.6629 -0.0791 -0.0520
   85CHL1  H26A 8764   6.402   6.684   8.274 -0.6342 -2.1512  0.5944
   85CHL1  H26B 8765   6.362   6.770   8.119  0.4466 -0.1046 -0.1713
   85CHL1  H26C 8766   6.249   6.791   8.252 -0.3276 -1.2858  0.4019
   85CHL1   C27 8767   6.182   6.528   8.307 -0.1706  0.0126 -0.6943
   85CHL1  H27A 8768   6.093   6.582   8.344  0.2726  0.4565 -0.2600
   85CHL1  H27B 8769   6.156   6.421   8.293  0.7568 -0.1330 -1.4366
   85CHL1  H27C 8770   6.258   6.538   8.387  1.1854  0.7267 -2.0042
   86CHL1    C3 8771   2.200   3.026   6.827 -0.4584  0.1654  0.0240
   86CHL1    H3 8772   2.235   2.921   6.839  1.1087  0.8617  2.4372
   86CHL1    O3 8773   2.218   3.073   6.695  0.0911 -0.4947  0.7399
   86CHL1   H3' 8774   2.254   3.162   6.705  0.3036 -0.7238  2.2456
   86CHL1    C4 8775   2.061   3.046   6.875 -0.3920 -0.2889 -0.0260
   86CHL1   H4A 8776   2.032   3.152   6.858  0.0764 -0.1247  0.1843
   86CHL1   H4B 8777   1.993   2.980   6.817  0.7896 -2.5695  1.0730
   86CHL1    C5 8778   2.046   3.014   7.020 -0.0549  0.2077 -0.3867
   86CHL1    C6 8779   1.962   2.914   7.077 -0.9495  0.1988 -0.0128
   86CHL1    H6 8780   1.897   2.853   7.012  2.5118 -2.4308 -1.3568
   86CHL1    C7 8781   1.941   2.895   7.224 -0.5207  0.2181 -0.2825
   86CHL1   H7A 8782   1.832   2.876   7.240 -0.2098  0.4050  2.7806
   86CHL1   H7B 8783   1.986   2.799   7.256 -1.2272  0.3765  1.2861
   86CHL1    C8 8784   1.993   3.009   7.312 -0.1943  0.1343 -0.2038
   86CHL1    H8 8785   1.919   3.089   7.294  0.3754  1.1482  1.6963
   86CHL1   C14 8786   2.002   2.972   7.462 -0.4315  0.1966 -0.4952
   86CHL1   H14 8787   2.078   2.892   7.477 -1.4553 -0.5451  1.0940
   86CHL1   C15 8788   1.872   2.928   7.526 -0.2992 -0.2537 -1.1758
   86CHL1  H15A 8789   1.780   2.975   7.486 -0.8898  1.2445  1.6836
   86CHL1  H15B 8790   1.859   2.818   7.513  1.4116 -0.6955  0.4296
   86CHL1   C16 8791   1.881   2.955   7.676 -0.6041 -0.1907 -0.2522
   86CHL1  H16A 8792   1.801   3.024   7.709  1.3984  0.7143  3.2764
   86CHL1  H16B 8793   1.866   2.867   7.742 -0.9380  1.3847  1.8769
   86CHL1   C17 8794   2.020   3.018   7.693 -0.1637  0.0658  0.1657
   86CHL1   H17 8795   2.091   2.934   7.709 -0.7792 -0.5732 -0.3769
   86CHL1   C13 8796   2.051   3.082   7.554  0.1157  0.7708  0.5397
   86CHL1   C18 8797   1.965   3.209   7.535  0.4092 -0.3862  0.5394
   86CHL1  H18A 8798   2.009   3.290   7.597  0.6478 -1.4415  1.7981
   86CHL1  H18B 8799   1.966   3.243   7.429  0.2924  1.0420  0.9774
   86CHL1  H18C 8800   1.856   3.193   7.547  0.1521 -0.8360 -1.8132
   86CHL1   C12 8801   2.197   3.103   7.513 -0.3538 -0.4926  0.8028
   86CHL1  H12A 8802   2.236   3.182   7.581 -1.9628  0.5555  0.5663
   86CHL1  H12B 8803   2.261   3.014   7.525  2.7062  1.5260  0.5675
   86CHL1   C11 8804   2.204   3.138   7.364 -0.4188 -0.2955  0.9727
   86CHL1  H11A 8805   2.151   3.235   7.361 -1.4084 -0.8541 -0.7840
   86CHL1  H11B 8806   2.308   3.157   7.329 -1.1342 -0.8331 -1.6592
   86CHL1    C9 8807   2.133   3.046   7.263  0.2228 -0.3222  0.1109
   86CHL1    H9 8808   2.193   2.953   7.254  0.2926 -0.1230 -2.3880
   86CHL1   C10 8809   2.134   3.098   7.113  0.2638 -0.0635 -0.1178
   86CHL1   C19 8810   2.082   3.253   7.115  0.2738 -0.0086  0.0103
   86CHL1  H19A 8811   1.986   3.273   7.166  0.5789  1.7498 -0.0412
   86CHL1  H19B 8812   2.161   3.312   7.168  0.1935 -0.6499  0.8738
   86CHL1  H19C 8813   2.078   3.294   7.012  1.1031 -2.7309 -1.2166
   86CHL1    C1 8814   2.280   3.092   7.057 -0.1279 -0.1271 -0.5037
   86CHL1   H1A 8815   2.340   3.161   7.120 -0.3102 -0.1019 -0.3586
   86CHL1   H1B 8816   2.313   2.989   7.083 -1.2333  0.0454  1.8241
   86CHL1    C2 8817   2.301   3.118   6.909 -0.1672  0.4812 -0.1635
   86CHL1   H2A 8818   2.406   3.107   6.874  0.0739  0.4449  0.5619
   86CHL1   H2B 8819   2.275   3.225   6.895  0.7801  0.9425  1.3418
   86CHL1   C20 8820   2.040   3.120   7.818  0.6048  0.0494 -0.0446
   86CHL1   H20 8821   2.027   3.222   7.777  0.9775  0.7302  1.4923
   86CHL1   C21 8822   2.181   3.104   7.867 -0.6936 -0.5441  0.3674
   86CHL1  H21A 8823   2.258   3.158   7.807  0.9107 -1.6522  1.3236
   86CHL1  H21B 8824   2.211   2.997   7.868 -0.4910 -0.4877  0.8704
   86CHL1  H21C 8825   2.182   3.150   7.968 -1.5296 -0.9497  0.5670
   86CHL1   C22 8826   1.942   3.090   7.931 -0.0324  0.7211  0.1111
   86CHL1  H22A 8827   1.838   3.060   7.906 -0.4480  1.4080  0.9461
   86CHL1  H22B 8828   1.981   3.000   7.982 -0.5490  1.1376  1.2778
   86CHL1   C23 8829   1.932   3.210   8.025 -0.3405  0.1644  0.1364
   86CHL1  H23A 8830   2.028   3.237   8.074  1.4861  2.1031 -3.9874
   86CHL1  H23B 8831   1.894   3.291   7.959 -1.3958  0.0352  0.5569
   86CHL1   C24 8832   1.831   3.206   8.148 -0.5917 -0.7371 -0.1259
   86CHL1  H24A 8833   1.795   3.310   8.164  0.1203 -0.5378  0.2443
   86CHL1  H24B 8834   1.741   3.150   8.114 -1.3737 -0.0986  0.8261
   86CHL1   C25 8835   1.878   3.174   8.289 -0.1250  0.3687 -0.2463
   86CHL1   H25 8836   1.954   3.252   8.310 -1.6816  1.5572  1.2092
   86CHL1   C26 8837   1.759   3.199   8.387  1.0239  0.6262  0.1329
   86CHL1  H26A 8838   1.736   3.307   8.375 -0.6063  0.2323 -0.4921
   86CHL1  H26B 8839   1.668   3.145   8.354  1.7734 -0.2406 -0.5518
   86CHL1  H26C 8840   1.784   3.172   8.492 -2.5231 -2.9795  0.2549
   86CHL1   C27 8841   1.937   3.037   8.310  0.5979  0.5538 -0.2722
   86CHL1  H27A 8842   1.970   3.016   8.414  0.8392 -2.1904 -0.8357
   86CHL1  H27B 8843   1.853   2.964   8.299  0.7948  0.4787 -1.3889
   86CHL1  H27C 8844   2.022   3.008   8.244 -2.5196 -3.7633 -2.9488
   87CHL1    C3 8845   1.455   1.824   6.861 -0.1985 -0.0801  0.7451
   87CHL1    H3 8846   1.380   1.904   6.877 -0.8259  0.1147 -2.4859
   87CHL1    O3 8847   1.468   1.778   6.721 -0.2514 -0.3183  0.0820
   87CHL1   H3' 8848   1.560   1.751   6.712  0.5634  2.1103  0.3733
   87CHL1    C4 8849   1.598   1.861   6.903  0.7525  0.8949 -0.2360
   87CHL1   H4A 8850   1.660   1.771   6.883 -1.6269 -0.9341  0.0536
   87CHL1   H4B 8851   1.634   1.938   6.832  2.2265  0.5440  0.1006
   87CHL1    C5 8852   1.599   1.922   7.040 -0.2351  0.5521 -0.0309
   87CHL1    C6 8853   1.635   2.050   7.066 -0.5832 -0.3935 -0.4213
   87CHL1    H6 8854   1.671   2.115   6.985  4.0495 -1.2711  0.6247
   87CHL1    C7 8855   1.645   2.110   7.200 -0.4877 -0.6232  0.6552
   87CHL1   H7A 8856   1.747   2.152   7.214 -0.6460  0.8313 -1.9060
   87CHL1   H7B 8857   1.576   2.198   7.201 -1.4413 -1.3432  2.2408
   87CHL1    C8 8858   1.604   2.008   7.309  0.3370  0.4146  0.0234
   87CHL1    H8 8859   1.697   1.955   7.339  0.3843 -0.7809 -2.0456
   87CHL1   C14 8860   1.557   2.087   7.436 -0.0009 -0.0129  1.0096
   87CHL1   H14 8861   1.454   2.126   7.418  1.5278  2.6923 -3.3818
   87CHL1   C15 8862   1.622   2.208   7.477 -0.3790 -0.0133 -0.3821
   87CHL1  H15A 8863   1.732   2.189   7.479 -0.5781 -1.1887  0.5960
   87CHL1  H15B 8864   1.603   2.309   7.437  2.4249  1.3563  1.3915
   87CHL1   C16 8865   1.574   2.227   7.625 -0.2200  0.0888 -0.5529
   87CHL1  H16A 8866   1.667   2.247   7.683 -0.1138  4.2912 -1.7787
   87CHL1  H16B 8867   1.515   2.321   7.635  0.2449  0.5382 -1.9153
   87CHL1   C17 8868   1.491   2.108   7.662  0.3814 -0.5322  0.4225
   87CHL1   H17 8869   1.383   2.132   7.649  0.4439 -0.5556 -0.1378
   87CHL1   C13 8870   1.533   1.998   7.557  0.2219 -0.1238  0.3853
   87CHL1   C18 8871   1.670   1.932   7.596  0.3571  0.1134  0.1437
   87CHL1  H18A 8872   1.653   1.879   7.692 -0.5836  0.7873  0.3722
   87CHL1  H18B 8873   1.704   1.861   7.518 -2.6607 -1.6596  0.2746
   87CHL1  H18C 8874   1.750   2.006   7.618  0.3142  0.2193 -0.0419
   87CHL1   C12 8875   1.417   1.894   7.522 -0.2911 -0.5002  0.6143
   87CHL1  H12A 8876   1.411   1.813   7.599 -0.8949 -0.4088  0.6686
   87CHL1  H12B 8877   1.327   1.958   7.516 -0.0292 -0.2674 -1.1313
   87CHL1   C11 8878   1.456   1.816   7.394  0.8783 -0.5169  0.3847
   87CHL1  H11A 8879   1.536   1.743   7.415  0.5461 -2.1062 -3.1273
   87CHL1  H11B 8880   1.364   1.761   7.363  0.5023  0.7571 -0.8587
   87CHL1    C9 8881   1.500   1.905   7.276  0.2879 -0.0853 -0.0197
   87CHL1    H9 8882   1.408   1.961   7.248 -0.0041 -0.4121  0.2722
   87CHL1   C10 8883   1.541   1.822   7.146  0.0693 -0.0848  0.6176
   87CHL1   C19 8884   1.651   1.727   7.183  0.0880 -0.0052  0.0286
   87CHL1  H19A 8885   1.699   1.685   7.091  0.1507 -0.1680  0.1349
   87CHL1  H19B 8886   1.723   1.786   7.244  0.0167 -0.9142  1.0167
   87CHL1  H19C 8887   1.617   1.638   7.240  0.3844 -0.9158 -1.1494
   87CHL1    C1 8888   1.413   1.746   7.095  0.2758  0.0978  0.6221
   87CHL1   H1A 8889   1.401   1.653   7.154 -2.3858  0.8355  1.4093
   87CHL1   H1B 8890   1.323   1.806   7.123  0.1736  0.2269  0.0296
   87CHL1    C2 8891   1.403   1.705   6.946 -0.1445 -0.6957 -0.2779
   87CHL1   H2A 8892   1.301   1.671   6.919 -0.1343 -1.3222  0.4176
   87CHL1   H2B 8893   1.469   1.617   6.926  2.0228 -0.0127  3.0805
   87CHL1   C20 8894   1.512   2.075   7.813  0.4134 -0.1389  0.2648
   87CHL1   H20 8895   1.606   2.024   7.843  0.2319 -0.8664 -0.3733
   87CHL1   C21 8896   1.400   1.969   7.850  0.0621  0.3548  0.9192
   87CHL1  H21A 8897   1.299   1.992   7.812  0.0992 -1.1135 -0.1719
   87CHL1  H21B 8898   1.396   1.951   7.960 -0.6375 -2.2623  0.5504
   87CHL1  H21C 8899   1.431   1.873   7.802 -1.2244  1.1525 -1.6983
   87CHL1   C22 8900   1.503   2.201   7.907  0.2821  0.0584 -0.3545
   87CHL1  H22A 8901   1.584   2.266   7.869 -0.4481  0.0567 -2.0213
   87CHL1  H22B 8902   1.404   2.252   7.897 -0.7137 -1.9615 -1.4998
   87CHL1   C23 8903   1.536   2.164   8.047 -0.1785 -0.1185  0.3402
   87CHL1  H23A 8904   1.466   2.099   8.104  0.8501 -2.7185 -1.1653
   87CHL1  H23B 8905   1.625   2.098   8.057 -0.7250 -0.5586  3.2785
   87CHL1   C24 8906   1.570   2.280   8.145  0.1986 -0.1537  0.0237
   87CHL1  H24A 8907   1.616   2.229   8.232 -1.4899 -0.8882  0.5299
   87CHL1  H24B 8908   1.644   2.330   8.079 -1.6468  2.4044 -0.2983
   87CHL1   C25 8909   1.453   2.373   8.189  0.3140 -0.3690 -0.5232
   87CHL1   H25 8910   1.408   2.401   8.091 -1.7777 -1.0718  0.1923
   87CHL1   C26 8911   1.344   2.308   8.274  0.8910  0.7298  0.2298
   87CHL1  H26A 8912   1.396   2.271   8.365  0.8601 -0.1870 -0.1100
   87CHL1  H26B 8913   1.277   2.378   8.329  1.9871  0.2897  2.2479
   87CHL1  H26C 8914   1.287   2.225   8.227  0.5909 -0.6601  2.8439
   87CHL1   C27 8915   1.507   2.503   8.261  0.4703 -0.6980  1.0803
   87CHL1  H27A 8916   1.538   2.486   8.366  0.5927  0.9531  1.3424
   87CHL1  H27B 8917   1.583   2.556   8.199 -0.7627 -0.5571 -0.3851
   87CHL1  H27C 8918   1.425   2.575   8.278  1.4471  0.5490  0.7128
   88CHL1    C3 8919   6.398   0.222   6.808 -0.3006 -0.2284  0.1208
   88CHL1    H3 8920   6.322   0.301   6.829 -0.6118 -0.9569  1.9287
   88CHL1    O3 8921   6.422   0.199   6.666  0.5075 -0.0926 -0.2226
   88CHL1   H3' 8922   6.453   0.280   6.625 -0.6639 -0.2847 -1.5357
   88CHL1    C4 8923   6.520   0.269   6.880  0.5384 -0.3205 -0.5596
   88CHL1   H4A 8924   6.604   0.204   6.848  0.3213 -1.3774  0.8911
   88CHL1   H4B 8925   6.546   0.370   6.844  0.6151 -1.2724 -3.4623
   88CHL1    C5 8926   6.513   0.276   7.032  0.0699  0.6358 -0.7901
   88CHL1    C6 8927   6.543   0.392   7.098 -0.1549  0.5700  0.3544
   88CHL1    H6 8928   6.588   0.470   7.035  0.3148 -0.3357 -0.4694
   88CHL1    C7 8929   6.546   0.400   7.244  1.1798 -0.2585  0.3270
   88CHL1   H7A 8930   6.642   0.438   7.286  0.2888  0.4827  1.7603
   88CHL1   H7B 8931   6.463   0.467   7.272  0.1125 -0.8679 -1.2657
   88CHL1    C8 8932   6.534   0.261   7.321  0.1139  0.1969  0.0254
   88CHL1    H8 8933   6.635   0.217   7.303  0.4441  0.7318  0.5430
   88CHL1   C14 8934   6.493   0.286   7.466 -0.3405 -0.7209  0.2918
   88CHL1   H14 8935   6.395   0.336   7.452 -0.1730 -0.8333 -1.3854
   88CHL1   C15 8936   6.587   0.378   7.547  0.9076  0.8889  0.1992
   88CHL1  H15A 8937   6.690   0.335   7.552 -0.0327 -1.8072 -1.3423
   88CHL1  H15B 8938   6.583   0.485   7.517 -0.3827  1.4296  2.1428
   88CHL1   C16 8939   6.519   0.379   7.689  0.3278 -0.0110 -0.2629
   88CHL1  H16A 8940   6.592   0.368   7.772 -1.6717 -2.6956  1.3064
   88CHL1  H16B 8941   6.446   0.459   7.711  2.0105  1.0496  1.8323
   88CHL1   C17 8942   6.422   0.249   7.690 -0.2831  0.6061  0.1924
   88CHL1   H17 8943   6.324   0.294   7.667 -0.3071  0.3230 -0.2694
   88CHL1   C13 8944   6.463   0.167   7.563 -0.6720  0.6117  0.3622
   88CHL1   C18 8945   6.595   0.087   7.581  0.0430 -0.4639 -0.2966
   88CHL1  H18A 8946   6.653   0.069   7.488  3.1876 -0.3690  1.5087
   88CHL1  H18B 8947   6.659   0.134   7.659 -0.5489 -0.9184  0.4782
   88CHL1  H18C 8948   6.558  -0.010   7.619  0.0251  0.1164  1.2244
   88CHL1   C12 8949   6.354   0.089   7.485  0.3039  0.5567  0.1666
   88CHL1  H12A 8950   6.338  -0.011   7.531  0.2646 -0.6271 -2.2682
   88CHL1  H12B 8951   6.254   0.137   7.480 -0.4352 -1.0760 -2.2508
   88CHL1   C11 8952   6.388   0.059   7.335  0.2828  0.0251  0.7205
   88CHL1  H11A 8953   6.470  -0.015   7.340 -0.0694 -0.3567  0.9332
   88CHL1  H11B 8954   6.313  -0.003   7.282  2.0497 -0.2521 -1.6421
   88CHL1    C9 8955   6.428   0.179   7.251 -0.5412  0.2940 -0.6164
   88CHL1    H9 8956   6.340   0.246   7.255 -3.2967 -3.0866  1.4169
   88CHL1   C10 8957   6.457   0.151   7.101 -0.5080  0.2256  0.0462
   88CHL1   C19 8958   6.559   0.040   7.092 -0.3248 -0.3900 -0.8459
   88CHL1  H19A 8959   6.650   0.079   7.141 -1.6622 -0.2627  1.7154
   88CHL1  H19B 8960   6.550  -0.053   7.153 -1.0297  0.2571  0.0634
   88CHL1  H19C 8961   6.567   0.009   6.986 -1.6623  3.0976 -2.1111
   88CHL1    C1 8962   6.326   0.112   7.027  0.2178 -0.0152  0.2262
   88CHL1   H1A 8963   6.289   0.019   7.074  0.9829 -0.1341  0.6022
   88CHL1   H1B 8964   6.249   0.189   7.051  0.3147  0.2459 -0.2766
   88CHL1    C2 8965   6.343   0.093   6.876 -0.8292 -0.1681  0.1284
   88CHL1   H2A 8966   6.242   0.064   6.840 -1.0223 -2.6396  2.3233
   88CHL1   H2B 8967   6.402   0.001   6.853 -1.8413 -0.4212 -1.6942
   88CHL1   C20 8968   6.415   0.183   7.831  0.2044  0.2457 -0.1965
   88CHL1   H20 8969   6.518   0.146   7.852  0.0426  0.1963  0.5412
   88CHL1   C21 8970   6.326   0.059   7.842 -0.3218  0.0170  0.4075
   88CHL1  H21A 8971   6.340   0.009   7.941  1.5139  1.2639  0.8411
   88CHL1  H21B 8972   6.358  -0.011   7.763 -0.4798  1.0983 -0.6416
   88CHL1  H21C 8973   6.219   0.070   7.817 -0.6274 -1.7564  0.7977
   88CHL1   C22 8974   6.362   0.287   7.931 -0.1384 -0.1668  0.5216
   88CHL1  H22A 8975   6.423   0.380   7.931 -3.2559  2.0894 -1.7232
   88CHL1  H22B 8976   6.260   0.326   7.910 -0.3593 -0.7663  0.4536
   88CHL1   C23 8977   6.349   0.236   8.079 -0.8521 -0.2233 -0.6017
   88CHL1  H23A 8978   6.259   0.171   8.074 -0.0317 -1.4171 -0.2570
   88CHL1  H23B 8979   6.433   0.172   8.115  1.0204 -0.6123 -5.0001
   88CHL1   C24 8980   6.319   0.358   8.169 -0.4102 -0.2133  0.4458
   88CHL1  H24A 8981   6.413   0.416   8.177  0.1447 -1.1240  0.5714
   88CHL1  H24B 8982   6.244   0.410   8.105  1.5904 -0.7989 -2.6150
   88CHL1   C25 8983   6.259   0.332   8.311  0.5153  0.2842 -0.4913
   88CHL1   H25 8984   6.162   0.280   8.294 -0.9012  2.5507  0.1746
   88CHL1   C26 8985   6.345   0.248   8.405  0.2635  0.2344 -0.0413
   88CHL1  H26A 8986   6.290   0.237   8.501  0.9597  1.8493  0.5821
   88CHL1  H26B 8987   6.376   0.146   8.371 -0.8439 -0.0172 -0.3214
   88CHL1  H26C 8988   6.441   0.301   8.420 -0.7908  2.1000  0.3228
   88CHL1   C27 8989   6.235   0.473   8.374 -0.2655 -0.1373  0.2501
   88CHL1  H27A 8990   6.318   0.542   8.400 -0.2872  1.4568 -3.2575
   88CHL1  H27B 8991   6.185   0.539   8.300 -0.9892 -1.4577 -0.4643
   88CHL1  H27C 8992   6.172   0.462   8.465 -1.3238 -0.2323 -0.4781
   89CHL1    C3 8993   3.011   3.306   7.047 -0.1832 -0.3212 -0.4796
   89CHL1    H3 8994   2.933   3.235   7.084 -0.4467  0.4305  0.4194
   89CHL1    O3 8995   2.986   3.330   6.909  0.8602 -0.3905 -0.3260
   89CHL1   H3' 8996   3.075   3.345   6.875  1.6406 -1.0796  1.3073
   89CHL1    C4 8997   2.970   3.427   7.130 -0.1474 -0.2330  0.0705
   89CHL1   H4A 8998   3.020   3.511   7.077  0.0890 -0.9331 -0.8378
   89CHL1   H4B 8999   2.864   3.457   7.116  0.3242  1.5289 -0.0767
   89CHL1    C5 9000   3.027   3.430   7.271  0.1624 -0.6974  0.1309
   89CHL1    C6 9001   2.946   3.456   7.379 -0.5446 -0.6026  0.9358
   89CHL1    H6 9002   2.841   3.486   7.366  0.3554  1.4612 -3.4865
   89CHL1    C7 9003   2.989   3.464   7.526  0.3700  0.3977 -0.8657
   89CHL1   H7A 9004   2.968   3.559   7.579 -0.1626  0.0970 -0.5273
   89CHL1   H7B 9005   2.943   3.381   7.584  0.4691  0.9791  0.0627
   89CHL1    C8 9006   3.143   3.452   7.537  0.5048  0.5888  0.0197
   89CHL1    H8 9007   3.184   3.549   7.502  0.3144  1.3415  1.7416
   89CHL1   C14 9008   3.190   3.416   7.680  0.2817 -0.1834 -0.5450
   89CHL1   H14 9009   3.150   3.315   7.703 -2.8669  0.3774 -2.8708
   89CHL1   C15 9010   3.130   3.498   7.786  0.4703 -0.0218 -0.5231
   89CHL1  H15A 9011   3.128   3.607   7.768 -1.2567  0.4840  2.2300
   89CHL1  H15B 9012   3.026   3.463   7.803  0.3911  0.3140 -0.3210
   89CHL1   C16 9013   3.207   3.457   7.916  0.2185 -0.3804 -0.1820
   89CHL1  H16A 9014   3.219   3.546   7.981  0.4700 -1.4350  1.2825
   89CHL1  H16B 9015   3.140   3.394   7.978  2.0459  1.6401  4.3375
   89CHL1   C17 9016   3.326   3.368   7.869  0.6715 -0.2894 -0.0240
   89CHL1   H17 9017   3.288   3.264   7.871  1.5869 -0.6285  0.1706
   89CHL1   C13 9018   3.342   3.404   7.718  0.5722 -0.4373  0.3823
   89CHL1   C18 9019   3.406   3.547   7.693 -0.5940 -0.7842 -0.5030
   89CHL1  H18A 9020   3.370   3.615   7.773 -1.4534  0.7231 -2.0979
   89CHL1  H18B 9021   3.516   3.538   7.711 -0.6140  0.2013  0.1805
   89CHL1  H18C 9022   3.395   3.583   7.588  0.9954 -0.6640 -0.6506
   89CHL1   C12 9023   3.403   3.299   7.619  0.3528  0.2395  0.1091
   89CHL1  H12A 9024   3.514   3.309   7.626  0.4938 -1.4033  0.6244
   89CHL1  H12B 9025   3.372   3.198   7.651  3.1020  0.2718  3.5292
   89CHL1   C11 9026   3.363   3.335   7.471 -0.0811  0.6447 -0.2668
   89CHL1  H11A 9027   3.417   3.429   7.445 -0.5556  1.1129  0.4245
   89CHL1  H11B 9028   3.403   3.259   7.400 -1.6990 -0.2062 -0.3227
   89CHL1    C9 9029   3.205   3.347   7.443 -0.6997 -0.1817  0.0660
   89CHL1    H9 9030   3.166   3.248   7.474  1.4322 -0.7750  1.0681
   89CHL1   C10 9031   3.169   3.377   7.295 -0.1236 -0.3240  0.2681
   89CHL1   C19 9032   3.265   3.481   7.238  0.3534 -0.2641  0.3148
   89CHL1  H19A 9033   3.236   3.510   7.135  1.7500 -0.7039 -0.2251
   89CHL1  H19B 9034   3.274   3.571   7.302  0.9318  0.0569 -0.2060
   89CHL1  H19C 9035   3.367   3.439   7.222  0.0542 -0.6689 -0.6076
   89CHL1    C1 9036   3.185   3.247   7.211  0.2802 -0.4629  0.8912
   89CHL1   H1A 9037   3.289   3.208   7.209 -0.4686 -2.6027 -0.9376
   89CHL1   H1B 9038   3.119   3.172   7.261 -1.5868  1.3296  1.2304
   89CHL1    C2 9039   3.150   3.253   7.061 -0.1054  0.0865  0.1878
   89CHL1   H2A 9040   3.182   3.165   7.002 -2.0396 -0.8508  0.4882
   89CHL1   H2B 9041   3.226   3.322   7.018 -1.6804  1.4087 -0.5970
   89CHL1   C20 9042   3.452   3.374   7.960 -0.5648  0.0788 -0.0479
   89CHL1   H20 9043   3.484   3.480   7.961 -0.5053  0.0599  0.1081
   89CHL1   C21 9044   3.570   3.291   7.914  0.1484 -0.6971  0.3280
   89CHL1  H21A 9045   3.593   3.317   7.808 -1.7721 -0.3971 -0.0593
   89CHL1  H21B 9046   3.547   3.183   7.904 -0.2913 -0.5248 -0.7443
   89CHL1  H21C 9047   3.659   3.306   7.978 -1.0137  0.5083  1.7392
   89CHL1   C22 9048   3.418   3.322   8.106 -0.5011  0.3276  0.0406
   89CHL1  H22A 9049   3.317   3.366   8.124 -0.6152  1.5526 -2.9756
   89CHL1  H22B 9050   3.406   3.212   8.098 -2.9229  0.2192  3.2858
   89CHL1   C23 9051   3.515   3.367   8.210 -0.2446  0.9780 -0.5057
   89CHL1  H23A 9052   3.486   3.309   8.301  0.4818 -0.2219 -1.0099
   89CHL1  H23B 9053   3.619   3.346   8.178  0.0967  2.4880 -0.4542
   89CHL1   C24 9054   3.508   3.512   8.258  0.5511  0.0810  0.1932
   89CHL1  H24A 9055   3.516   3.579   8.170 -0.8053  0.9707  0.7151
   89CHL1  H24B 9056   3.409   3.533   8.303  0.8985  2.6815 -0.1147
   89CHL1   C25 9057   3.606   3.549   8.370 -0.3402  0.2103  0.3443
   89CHL1   H25 9058   3.708   3.521   8.338 -0.6204  1.4881 -1.9139
   89CHL1   C26 9059   3.593   3.693   8.397 -0.1397 -0.4736 -0.1537
   89CHL1  H26A 9060   3.686   3.723   8.450  0.1419 -0.4857 -0.6306
   89CHL1  H26B 9061   3.580   3.752   8.304 -0.9036  1.0429  0.8807
   89CHL1  H26C 9062   3.506   3.721   8.460  0.5467 -0.2017  0.7006
   89CHL1   C27 9063   3.580   3.482   8.511  0.1959  0.0074  0.0324
   89CHL1  H27A 9064   3.576   3.371   8.509  0.0004 -0.0093 -2.2375
   89CHL1  H27B 9065   3.649   3.522   8.588 -0.8430 -1.4068  1.7879
   89CHL1  H27C 9066   3.475   3.501   8.542  0.7803 -1.5388  3.3808
   90CHL1    C3 9067   2.206   5.092   7.018  0.0023  1.0579 -0.0930
   90CHL1    H3 9068   2.110   5.145   7.034  0.9916  2.4741  1.5747
   90CHL1    O3 9069   2.217   5.074   6.879  0.2946  0.0786 -0.1051
   90CHL1   H3' 9070   2.299   5.027   6.865  0.6362  1.0246 -1.4456
   90CHL1    C4 9071   2.335   5.160   7.067  0.4464 -0.6019  0.0644
   90CHL1   H4A 9072   2.424   5.104   7.031  1.1816 -1.4798  2.9606
   90CHL1   H4B 9073   2.330   5.264   7.027 -1.1925 -0.6261  0.1760
   90CHL1    C5 9074   2.347   5.168   7.218  0.5388  0.3078  0.1173
   90CHL1    C6 9075   2.384   5.278   7.280 -1.1845 -0.5267 -0.5344
   90CHL1    H6 9076   2.421   5.368   7.228  0.9739 -1.9379 -1.6172
   90CHL1    C7 9077   2.412   5.296   7.428  0.0432  0.2567  0.7898
   90CHL1   H7A 9078   2.506   5.351   7.450  0.4625 -0.7401  1.5486
   90CHL1   H7B 9079   2.335   5.363   7.470 -0.6291 -0.2444  0.3716
   90CHL1    C8 9080   2.416   5.161   7.502 -0.0244 -0.1496 -0.6777
   90CHL1    H8 9081   2.519   5.121   7.495  0.0104 -0.0833 -0.5497
   90CHL1   C14 9082   2.391   5.192   7.650 -0.1544 -0.0844 -0.2013
   90CHL1   H14 9083   2.287   5.230   7.654 -0.3695 -0.7229  0.7595
   90CHL1   C15 9084   2.477   5.299   7.720 -0.2933 -0.1489  0.0474
   90CHL1  H15A 9085   2.578   5.319   7.676 -0.1562  2.8922  1.4497
   90CHL1  H15B 9086   2.433   5.401   7.712 -0.7314 -0.4926 -2.8155
   90CHL1   C16 9087   2.480   5.254   7.865 -0.2312 -0.1340 -0.1972
   90CHL1  H16A 9088   2.588   5.229   7.875  0.5986  2.4628 -1.8651
   90CHL1  H16B 9089   2.457   5.341   7.930 -0.4792  0.1979 -0.7254
   90CHL1   C17 9090   2.394   5.125   7.883 -0.6216  0.1534  0.0438
   90CHL1   H17 9091   2.291   5.163   7.900 -0.7396 -0.5019  0.8263
   90CHL1   C13 9092   2.392   5.064   7.741 -0.0556  0.0082 -0.1153
   90CHL1   C18 9093   2.526   4.991   7.717  0.1063 -0.2267 -0.3029
   90CHL1  H18A 9094   2.528   4.954   7.612 -2.7326  0.1568 -0.5643
   90CHL1  H18B 9095   2.597   5.074   7.735 -1.3155  0.5107  2.4262
   90CHL1  H18C 9096   2.547   4.915   7.795  1.2548 -1.8458 -2.0901
   90CHL1   C12 9097   2.274   4.982   7.699  0.2056 -0.4222  0.3613
   90CHL1  H12A 9098   2.262   4.889   7.757 -2.6668 -0.7514 -0.5900
   90CHL1  H12B 9099   2.188   5.052   7.707  0.9942  0.8056 -1.2522
   90CHL1   C11 9100   2.275   4.946   7.547 -0.8205 -0.2089  0.5356
   90CHL1  H11A 9101   2.356   4.872   7.533 -1.9638 -1.9659  2.5756
   90CHL1  H11B 9102   2.179   4.897   7.519 -0.4446 -1.0299  0.6514
   90CHL1    C9 9103   2.302   5.070   7.456 -0.2291  0.3027 -0.0795
   90CHL1    H9 9104   2.214   5.137   7.465  0.0055  0.5201  0.7506
   90CHL1   C10 9105   2.316   5.041   7.302 -0.1005  0.3978 -0.4782
   90CHL1   C19 9106   2.452   4.952   7.289  0.4553  0.5965  0.7310
   90CHL1  H19A 9107   2.419   4.853   7.327 -1.1251 -0.1815 -2.2914
   90CHL1  H19B 9108   2.468   4.928   7.182  1.1074 -1.5965  1.2736
   90CHL1  H19C 9109   2.547   4.997   7.324 -0.2399  3.0507 -0.3329
   90CHL1    C1 9110   2.184   4.979   7.243  0.1137  0.5129 -0.4872
   90CHL1   H1A 9111   2.163   4.879   7.286 -0.7794  0.3549 -1.2584
   90CHL1   H1B 9112   2.100   5.050   7.262  2.0289  2.5767  0.8388
   90CHL1    C2 9113   2.199   4.959   7.088  0.0496 -0.2186  0.3610
   90CHL1   H2A 9114   2.110   4.905   7.050  1.2630 -1.7319 -0.4562
   90CHL1   H2B 9115   2.290   4.900   7.065  1.0622 -0.0142  3.3342
   90CHL1   C20 9116   2.431   5.041   8.012  0.1147 -0.1357 -0.0193
   90CHL1   H20 9117   2.532   5.003   7.987  0.9487  2.0248 -0.1884
   90CHL1   C21 9118   2.326   4.928   8.034  0.1335  0.3424 -0.1717
   90CHL1  H21A 9119   2.223   4.957   8.066  0.7289 -0.7728  3.2466
   90CHL1  H21B 9120   2.361   4.861   8.116  0.9560  1.6684  0.5925
   90CHL1  H21C 9121   2.315   4.862   7.946  0.6418 -1.1366  0.8289
   90CHL1   C22 9122   2.470   5.132   8.133  1.0829  0.2475 -0.7781
   90CHL1  H22A 9123   2.543   5.211   8.105  1.7491  0.0292  0.2853
   90CHL1  H22B 9124   2.377   5.175   8.175 -1.2805 -5.4079  0.6556
   90CHL1   C23 9125   2.543   5.060   8.245 -1.0346 -0.2300 -0.1071
   90CHL1  H23A 9126   2.462   4.988   8.272 -0.9406 -0.8639 -1.4578
   90CHL1  H23B 9127   2.631   5.008   8.203  0.2780  2.9853 -1.6733
   90CHL1   C24 9128   2.600   5.150   8.360  0.1677  1.0082  0.4509
   90CHL1  H24A 9129   2.639   5.247   8.324  0.9397  0.1374 -1.1843
   90CHL1  H24B 9130   2.512   5.182   8.420  0.8885  1.2470  1.4137
   90CHL1   C25 9131   2.711   5.093   8.446  0.7234  0.6912 -0.0229
   90CHL1   H25 9132   2.785   5.051   8.375  1.4426 -1.0080  1.6360
   90CHL1   C26 9133   2.786   5.195   8.530  0.7441  0.2358 -0.4582
   90CHL1  H26A 9134   2.818   5.281   8.468  1.9431  2.6510  3.1995
   90CHL1  H26B 9135   2.726   5.235   8.615  0.7957 -2.5682  1.0417
   90CHL1  H26C 9136   2.875   5.152   8.581  0.2471 -0.8253 -0.4376
   90CHL1   C27 9137   2.667   4.975   8.526 -0.4174  1.5293 -0.1412
   90CHL1  H27A 9138   2.583   4.996   8.595  1.1853  3.5309  1.3370
   90CHL1  H27B 9139   2.632   4.894   8.459  1.4748  1.5854 -1.2668
   90CHL1  H27C 9140   2.748   4.935   8.591 -2.0668 -2.6943 -0.3586
   91CHL1    C3 9141   3.909   5.995   7.067 -0.1095  0.5132  0.1770
   91CHL1    H3 9142   3.798   5.991   7.074 -0.2564 -0.0927 -1.8347
   91CHL1    O3 9143   3.931   6.043   6.935 -0.1137 -0.5315 -0.4964
   91CHL1   H3' 9144   3.890   5.975   6.881 -2.3318  0.9750 -0.8440
   91CHL1    C4 9145   3.963   6.099   7.159 -0.8756 -0.0624 -0.4803
   91CHL1   H4A 9146   4.062   6.139   7.127 -0.2462 -0.1026  1.2603
   91CHL1   H4B 9147   3.903   6.192   7.152  0.8267  1.1883  0.6278
   91CHL1    C5 9148   3.965   6.053   7.310 -0.2241 -0.1948  0.2315
   91CHL1    C6 9149   3.905   6.116   7.408  0.4120 -0.1897  0.4656
   91CHL1    H6 9150   3.876   6.219   7.382  0.4361 -0.5648 -1.1283
   91CHL1    C7 9151   3.897   6.072   7.551  0.1490 -0.8857  0.2763
   91CHL1   H7A 9152   3.900   6.160   7.619  1.4905  0.3201 -1.2755
   91CHL1   H7B 9153   3.796   6.031   7.568  0.2309 -0.4276  2.1987
   91CHL1    C8 9154   4.000   5.968   7.582 -0.5221  0.3139 -0.7906
   91CHL1    H8 9155   4.103   6.011   7.576  0.2184 -1.1385  0.6203
   91CHL1   C14 9156   3.971   5.902   7.713 -0.3058 -0.1744 -0.3379
   91CHL1   H14 9157   3.873   5.852   7.697 -0.9535  0.0095  2.5383
   91CHL1   C15 9158   3.948   5.986   7.837 -0.6990  0.2120 -0.6654
   91CHL1  H15A 9159   4.026   6.066   7.838 -0.9282  0.4766 -2.0427
   91CHL1  H15B 9160   3.853   6.043   7.844 -0.0808  1.3186 -1.0148
   91CHL1   C16 9161   3.980   5.895   7.959  0.1279 -0.4751 -0.3241
   91CHL1  H16A 9162   4.063   5.947   8.013  1.3217 -2.6705  0.1025
   91CHL1  H16B 9163   3.890   5.884   8.023  0.3972 -1.5251 -0.1086
   91CHL1   C17 9164   4.020   5.759   7.897  0.7951 -0.8776  0.4645
   91CHL1   H17 9165   3.923   5.710   7.873 -1.2567  3.4539 -1.2495
   91CHL1   C13 9166   4.076   5.801   7.758 -0.0947  0.0518  1.1324
   91CHL1   C18 9167   4.226   5.850   7.770  0.1870 -0.0578  0.1232
   91CHL1  H18A 9168   4.231   5.939   7.703 -1.0786  1.6348  2.1719
   91CHL1  H18B 9169   4.249   5.879   7.874 -1.4793 -0.3041  0.5862
   91CHL1  H18C 9170   4.298   5.774   7.734  0.5044  1.0444 -1.7271
   91CHL1   C12 9171   4.075   5.684   7.663 -0.1331  0.3442 -0.2774
   91CHL1  H12A 9172   4.162   5.618   7.685  0.3908  1.5785  1.5472
   91CHL1  H12B 9173   3.977   5.635   7.684 -0.1495  1.7329  3.6246
   91CHL1   C11 9174   4.087   5.733   7.519  0.0755 -0.0397 -0.6290
   91CHL1  H11A 9175   4.194   5.760   7.509  0.4525 -1.5179 -0.7147
   91CHL1  H11B 9176   4.062   5.650   7.449  0.0012 -1.1337  0.6754
   91CHL1    C9 9177   3.997   5.851   7.479 -0.1274 -0.6279 -0.2653
   91CHL1    H9 9178   3.892   5.816   7.473 -0.3661 -0.6806  2.7681
   91CHL1   C10 9179   4.020   5.913   7.335 -0.3034 -0.0316 -0.1843
   91CHL1   C19 9180   4.175   5.925   7.314 -0.1521  0.3545 -0.0712
   91CHL1  H19A 9181   4.226   5.826   7.317 -2.5184 -0.9389  2.8369
   91CHL1  H19B 9182   4.208   5.966   7.216  0.8472  2.3836  1.0475
   91CHL1  H19C 9183   4.211   6.003   7.385 -0.4821  0.5588 -0.1269
   91CHL1    C1 9184   3.954   5.818   7.234 -0.3615 -0.1707  0.0852
   91CHL1   H1A 9185   4.009   5.722   7.244  1.0190  0.4362 -1.1681
   91CHL1   H1B 9186   3.848   5.803   7.264 -0.3379 -2.1785 -0.6514
   91CHL1    C2 9187   3.968   5.858   7.084 -0.2947 -0.5659  0.4058
   91CHL1   H2A 9188   3.937   5.774   7.019  1.9461 -0.1620 -1.3307
   91CHL1   H2B 9189   4.075   5.865   7.054  0.1038 -1.1364  1.6584
   91CHL1   C20 9190   4.108   5.670   7.984 -0.1620 -0.1607 -0.3246
   91CHL1   H20 9191   4.193   5.629   7.924  0.5257 -0.7272  1.0055
   91CHL1   C21 9192   4.025   5.548   8.037 -0.2284 -0.7121  0.2336
   91CHL1  H21A 9193   4.090   5.460   8.053  0.2707 -0.9218 -2.5394
   91CHL1  H21B 9194   3.955   5.525   7.954 -1.3483  1.8890  0.3328
   91CHL1  H21C 9195   3.965   5.579   8.126 -1.1478 -1.2919 -0.1700
   91CHL1   C22 9196   4.175   5.739   8.106 -0.8401 -0.2575  0.3061
   91CHL1  H22A 9197   4.217   5.839   8.085 -1.3983  0.3571  1.9265
   91CHL1  H22B 9198   4.104   5.757   8.189  1.8360 -0.4326  2.7758
   91CHL1   C23 9199   4.297   5.657   8.150 -0.3887  0.0773 -0.4386
   91CHL1  H23A 9200   4.256   5.556   8.170 -0.6568 -0.4315 -3.1357
   91CHL1  H23B 9201   4.371   5.658   8.067  1.0457  0.6146  0.7964
   91CHL1   C24 9202   4.360   5.712   8.272 -0.6137 -0.4293 -0.2829
   91CHL1  H24A 9203   4.440   5.645   8.307  0.3362  0.7967 -0.0381
   91CHL1  H24B 9204   4.407   5.810   8.247 -0.7968 -0.3487 -0.3140
   91CHL1   C25 9205   4.273   5.723   8.395  0.0713  0.2973 -0.0830
   91CHL1   H25 9206   4.185   5.785   8.368  0.3558  0.6619 -0.1833
   91CHL1   C26 9207   4.219   5.587   8.444 -0.0970 -0.5366  0.2891
   91CHL1  H26A 9208   4.155   5.536   8.369  0.9990 -0.3861 -0.7760
   91CHL1  H26B 9209   4.298   5.511   8.461 -0.2189 -0.5421  0.8629
   91CHL1  H26C 9210   4.153   5.592   8.533  1.1382 -0.0411  1.1970
   91CHL1   C27 9211   4.350   5.790   8.512 -0.3360  0.1070  0.0883
   91CHL1  H27A 9212   4.440   5.733   8.545 -0.6082 -0.3458  0.0591
   91CHL1  H27B 9213   4.390   5.888   8.479  4.1558 -1.8884 -1.3085
   91CHL1  H27C 9214   4.273   5.802   8.591 -0.2490 -0.6974  0.3021
   92CHL1    C3 9215   6.761   6.367   6.656 -0.2587  0.5719 -0.1611
   92CHL1    H3 9216   6.650   6.358   6.659 -0.2233 -1.0240 -1.8002
   92CHL1    O3 9217   6.790   6.357   6.518  0.2175 -0.0117 -0.0488
   92CHL1   H3' 9218   6.731   6.295   6.476 -0.0978 -1.6686  2.6210
   92CHL1    C4 9219   6.806   6.510   6.698  0.1403  0.1419 -0.2115
   92CHL1   H4A 9220   6.892   6.544   6.636  0.2859  0.1421 -0.0089
   92CHL1   H4B 9221   6.723   6.578   6.668 -1.1048 -0.0772  2.4774
   92CHL1    C5 9222   6.845   6.527   6.843  0.1538 -0.0707 -0.8689
   92CHL1    C6 9223   6.822   6.642   6.909  0.5454  0.3733 -0.1981
   92CHL1    H6 9224   6.770   6.728   6.862  0.9211  1.7591  1.7669
   92CHL1    C7 9225   6.853   6.669   7.054  0.1526  0.5270  0.3876
   92CHL1   H7A 9226   6.886   6.774   7.061  1.8253 -0.0875  2.5153
   92CHL1   H7B 9227   6.757   6.665   7.110 -1.2001  0.4717 -1.7996
   92CHL1    C8 9228   6.947   6.571   7.118  0.9082  0.0870 -0.7485
   92CHL1    H8 9229   7.047   6.586   7.073  0.3278  3.4295 -1.1812
   92CHL1   C14 9230   6.939   6.587   7.269 -0.3755  0.5708  0.4806
   92CHL1   H14 9231   6.838   6.555   7.303  0.0525  1.2198  2.4898
   92CHL1   C15 9232   6.961   6.726   7.322 -0.0902  0.6893 -0.6619
   92CHL1  H15A 9233   7.056   6.773   7.287 -0.7590  2.8219  0.2310
   92CHL1  H15B 9234   6.877   6.796   7.303 -2.1323 -0.8056  2.1065
   92CHL1   C16 9235   6.994   6.686   7.467  0.3180  0.5891  0.3214
   92CHL1  H16A 9236   7.077   6.742   7.516  0.0052  0.4635  1.0078
   92CHL1  H16B 9237   6.905   6.689   7.533 -0.0627  0.6569 -0.1870
   92CHL1   C17 9238   7.020   6.531   7.477  0.0367  0.8844 -0.0255
   92CHL1   H17 9239   6.916   6.498   7.499  0.7173  0.2065  2.5925
   92CHL1   C13 9240   7.046   6.487   7.334 -0.1417  0.2985  0.4627
   92CHL1   C18 9241   7.193   6.524   7.301 -0.5467  0.2630 -0.1064
   92CHL1  H18A 9242   7.221   6.622   7.344 -0.9795  0.4140 -0.1615
   92CHL1  H18B 9243   7.253   6.446   7.353 -1.2755 -0.9965 -1.0885
   92CHL1  H18C 9244   7.218   6.523   7.193 -2.2429 -0.8165 -0.5234
   92CHL1   C12 9245   7.018   6.336   7.290 -0.2944  0.3940  0.8341
   92CHL1  H12A 9246   7.089   6.268   7.342  0.4532  0.5225 -0.0009
   92CHL1  H12B 9247   6.923   6.301   7.335 -0.7201  0.6472  0.1465
   92CHL1   C11 9248   7.009   6.321   7.140 -0.2188  0.0150  0.1661
   92CHL1  H11A 9249   7.111   6.336   7.098 -0.3297 -0.3552 -0.2413
   92CHL1  H11B 9250   6.982   6.216   7.117 -0.8569  0.2501 -0.1852
   92CHL1    C9 9251   6.913   6.420   7.074 -0.0486 -0.4835 -0.8025
   92CHL1    H9 9252   6.809   6.397   7.105 -0.3775  1.8345 -0.0072
   92CHL1   C10 9253   6.916   6.409   6.916 -0.7531 -0.6662  0.0562
   92CHL1   C19 9254   7.058   6.411   6.863  0.1448 -0.5980  0.3150
   92CHL1  H19A 9255   7.048   6.395   6.753  0.0129 -1.6649  0.4775
   92CHL1  H19B 9256   7.114   6.504   6.885 -1.0331  0.2743 -0.2486
   92CHL1  H19C 9257   7.119   6.324   6.895  1.2437 -0.3983 -1.1082
   92CHL1    C1 9258   6.856   6.275   6.880 -0.3067  0.1594 -0.3946
   92CHL1   H1A 9259   6.924   6.198   6.924  0.8124  2.0052  1.2516
   92CHL1   H1B 9260   6.751   6.259   6.913 -0.9535 -0.1886 -2.4181
   92CHL1    C2 9261   6.840   6.251   6.732 -0.2888 -0.8427 -0.1402
   92CHL1   H2A 9262   6.777   6.161   6.712 -0.7292 -0.3338 -1.1188
   92CHL1   H2B 9263   6.934   6.230   6.678  0.1633 -2.0346  1.0574
   92CHL1   C20 9264   7.112   6.477   7.600 -0.0703 -0.7529  0.7745
   92CHL1   H20 9265   7.218   6.492   7.572 -0.2258 -1.0212  0.0011
   92CHL1   C21 9266   7.099   6.325   7.610 -0.1827 -0.2928  0.2938
   92CHL1  H21A 9267   6.989   6.310   7.605 -0.0757 -1.4315  0.9919
   92CHL1  H21B 9268   7.135   6.289   7.709 -0.1436 -0.7739  0.1083
   92CHL1  H21C 9269   7.155   6.257   7.543 -2.0776 -1.7821  0.1382
   92CHL1   C22 9270   7.091   6.539   7.740 -0.0171 -0.0982 -0.1199
   92CHL1  H22A 9271   7.081   6.646   7.714  0.3900 -0.1266 -0.3904
   92CHL1  H22B 9272   6.995   6.498   7.779  0.6558 -1.9369 -0.2968
   92CHL1   C23 9273   7.204   6.515   7.845  0.2594  0.4966  0.1804
   92CHL1  H23A 9274   7.209   6.408   7.875 -0.8018  0.2714 -0.3687
   92CHL1  H23B 9275   7.294   6.545   7.788  0.4046  1.3791  0.8616
   92CHL1   C24 9276   7.185   6.599   7.968  0.1821 -0.0636 -0.2437
   92CHL1  H24A 9277   7.292   6.618   7.993 -0.2691  1.6273  0.5568
   92CHL1  H24B 9278   7.150   6.702   7.946  0.9731  0.9617  2.8244
   92CHL1   C25 9279   7.108   6.532   8.086 -0.6158  0.0722  0.0095
   92CHL1   H25 9280   7.017   6.500   8.031 -1.7274  1.1775  1.1477
   92CHL1   C26 9281   7.192   6.420   8.145 -0.4834  0.2607 -0.0767
   92CHL1  H26A 9282   7.133   6.350   8.208 -0.0287  0.7410  0.9140
   92CHL1  H26B 9283   7.254   6.365   8.071 -0.0626 -0.5893  0.8923
   92CHL1  H26C 9284   7.274   6.465   8.206  0.7672 -1.1553 -0.6413
   92CHL1   C27 9285   7.065   6.631   8.195 -0.6028 -0.1088 -0.3115
   92CHL1  H27A 9286   7.018   6.561   8.268  2.7641 -1.3430  0.8797
   92CHL1  H27B 9287   7.153   6.676   8.245 -0.5773 -1.1108  0.5796
   92CHL1  H27C 9288   6.998   6.710   8.156  0.3225  0.6204 -0.4566
   93CHL1    C3 9289   6.750   4.978   6.740  0.4878 -0.4343 -0.0142
   93CHL1    H3 9290   6.717   5.082   6.760  0.5827 -0.3925 -0.0727
   93CHL1    O3 9291   6.778   4.972   6.603 -0.5983  0.5799 -0.1797
   93CHL1   H3' 9292   6.756   4.884   6.571 -0.4266  0.8996 -1.2019
   93CHL1    C4 9293   6.889   4.953   6.809  0.0653 -0.7741  0.0611
   93CHL1   H4A 9294   6.934   4.859   6.772 -0.5414 -1.9452  2.1494
   93CHL1   H4B 9295   6.952   5.039   6.776  0.9001 -2.0939 -1.9610
   93CHL1    C5 9296   6.878   4.941   6.957 -0.2373  0.4582 -0.5184
   93CHL1    C6 9297   6.958   5.010   7.036 -0.1798 -0.4632  0.2401
   93CHL1    H6 9298   7.038   5.069   6.988  0.4612 -1.4808  0.0377
   93CHL1    C7 9299   6.941   5.034   7.181  0.1507  0.5619  0.3828
   93CHL1   H7A 9300   7.039   5.047   7.232  0.8084  2.1722 -1.1946
   93CHL1   H7B 9301   6.892   5.134   7.192 -0.8411  0.1119  0.1511
   93CHL1    C8 9302   6.859   4.918   7.247  0.5345  0.0086 -0.0372
   93CHL1    H8 9303   6.924   4.828   7.237  1.2737  0.7403 -2.3087
   93CHL1   C14 9304   6.818   4.949   7.391 -0.3245 -0.6128 -0.3483
   93CHL1   H14 9305   6.753   5.039   7.386  2.4132  1.4476 -1.0323
   93CHL1   C15 9306   6.930   4.998   7.484 -0.3024  0.1655  0.4960
   93CHL1  H15A 9307   7.013   4.925   7.473 -2.0324 -1.8105 -0.0597
   93CHL1  H15B 9308   6.981   5.094   7.459  0.5735 -0.6440 -1.0035
   93CHL1   C16 9309   6.876   4.989   7.627  0.1456 -0.2876  0.5677
   93CHL1  H16A 9310   6.949   4.919   7.675  0.8538 -0.7048 -1.0435
   93CHL1  H16B 9311   6.865   5.085   7.681 -1.2742 -1.0791  1.7337
   93CHL1   C17 9312   6.734   4.916   7.610 -0.1729 -0.1728  0.1730
   93CHL1   H17 9313   6.666   5.002   7.591  0.0331  0.1780  0.9515
   93CHL1   C13 9314   6.737   4.843   7.477 -0.2768  0.0891  0.1814
   93CHL1   C18 9315   6.821   4.715   7.500 -0.6735 -0.5392 -0.1194
   93CHL1  H18A 9316   6.765   4.633   7.549  3.2697 -3.4589  0.0201
   93CHL1  H18B 9317   6.852   4.673   7.402 -0.4116 -2.2565  0.6626
   93CHL1  H18C 9318   6.909   4.744   7.561 -1.5858 -0.0489  0.9764
   93CHL1   C12 9319   6.605   4.820   7.392 -0.7232 -0.3120 -0.4487
   93CHL1  H12A 9320   6.538   4.738   7.424 -0.7725 -1.9766 -4.2684
   93CHL1  H12B 9321   6.555   4.919   7.391 -2.1111 -0.9892 -1.2471
   93CHL1   C11 9322   6.631   4.792   7.241  0.8108  0.3193  0.0720
   93CHL1  H11A 9323   6.667   4.687   7.247 -1.3148 -0.5379 -1.1966
   93CHL1  H11B 9324   6.530   4.792   7.196  1.1005  2.5756 -0.7096
   93CHL1    C9 9325   6.727   4.886   7.166 -0.4053  0.3904  0.4423
   93CHL1    H9 9326   6.675   4.984   7.167 -3.5555 -1.1598  1.4750
   93CHL1   C10 9327   6.757   4.863   7.014  0.3068 -0.6260  0.4583
   93CHL1   C19 9328   6.792   4.706   6.998  0.5755 -0.4441  1.2032
   93CHL1  H19A 9329   6.709   4.640   7.033  0.1941 -0.7173 -0.1442
   93CHL1  H19B 9330   6.811   4.683   6.891 -2.2942 -1.1597  0.7537
   93CHL1  H19C 9331   6.884   4.686   7.055  0.8607 -2.0057  0.2778
   93CHL1    C1 9332   6.628   4.901   6.937 -0.0304  0.2720  0.5252
   93CHL1   H1A 9333   6.543   4.842   6.977 -1.2021  0.1956 -1.8661
   93CHL1   H1B 9334   6.601   5.009   6.949  0.2299  0.3653  0.2939
   93CHL1    C2 9335   6.642   4.882   6.780 -0.2214  0.2162 -0.7041
   93CHL1   H2A 9336   6.555   4.909   6.716 -0.1990  2.8710  0.2376
   93CHL1   H2B 9337   6.673   4.776   6.768  1.4306  0.6554 -0.5181
   93CHL1   C20 9338   6.683   4.842   7.735 -0.3294 -0.5705 -0.3598
   93CHL1   H20 9339   6.761   4.772   7.772  1.7190  2.3947  1.4777
   93CHL1   C21 9340   6.548   4.769   7.699  0.3148  0.7157 -0.3526
   93CHL1  H21A 9341   6.486   4.823   7.624 -1.5478 -1.2765 -0.3173
   93CHL1  H21B 9342   6.480   4.740   7.781 -0.2261 -2.1178 -1.6936
   93CHL1  H21C 9343   6.579   4.666   7.670  1.7882  1.3629 -1.2145
   93CHL1   C22 9344   6.657   4.950   7.854 -1.4582 -0.4876  0.1014
   93CHL1  H22A 9345   6.762   4.974   7.883 -1.4435 -1.5224  0.9590
   93CHL1  H22B 9346   6.608   5.045   7.824 -0.4211 -0.5855 -2.1351
   93CHL1   C23 9347   6.598   4.903   7.989 -0.2045  0.1183  0.1187
   93CHL1  H23A 9348   6.505   4.843   7.975 -2.0478  1.3178  5.0208
   93CHL1  H23B 9349   6.665   4.833   8.044 -0.3534 -0.4825 -0.4411
   93CHL1   C24 9350   6.559   5.024   8.079 -0.0008  0.1330 -0.3744
   93CHL1  H24A 9351   6.495   5.090   8.017 -0.0524  1.6954  1.2651
   93CHL1  H24B 9352   6.507   4.988   8.171  1.1667 -0.5998  0.0324
   93CHL1   C25 9353   6.669   5.111   8.123  0.4249 -0.6361 -0.7656
   93CHL1   H25 9354   6.726   5.148   8.035  2.6748  2.3573  1.7497
   93CHL1   C26 9355   6.630   5.237   8.201  0.7628 -0.5056 -0.1160
   93CHL1  H26A 9356   6.559   5.301   8.145  1.7666  0.8767  0.1323
   93CHL1  H26B 9357   6.568   5.200   8.285 -0.5099  1.2102 -0.2604
   93CHL1  H26C 9358   6.711   5.302   8.241 -0.4785  0.1742  1.3715
   93CHL1   C27 9359   6.777   5.037   8.196  0.0427  0.5687  0.3186
   93CHL1  H27A 9360   6.838   5.121   8.235  0.6740  2.0121 -3.4027
   93CHL1  H27B 9361   6.734   4.972   8.276  0.3566  0.3192  0.2898
   93CHL1  H27C 9362   6.841   4.966   8.138 -1.8525 -2.6707  1.9285
   94CHL1    C3 9363   1.046   1.265   6.795 -0.4463  0.3268  0.0836
   94CHL1    H3 9364   0.940   1.288   6.776 -1.8033  0.1689  5.7784
   94CHL1    O3 9365   1.117   1.194   6.694 -0.1016  0.3176 -0.0326
   94CHL1   H3' 9366   1.206   1.227   6.709 -1.0628  2.6962  0.9149
   94CHL1    C4 9367   1.120   1.396   6.822 -0.1328 -0.6650 -0.4476
   94CHL1   H4A 9368   1.227   1.372   6.835 -0.2462  0.5133  5.5638
   94CHL1   H4B 9369   1.100   1.461   6.734 -0.4342  1.8348  1.3324
   94CHL1    C5 9370   1.087   1.478   6.947 -0.1934 -0.5024 -0.1201
   94CHL1    C6 9371   1.052   1.609   6.943  0.1366  0.2267 -0.0820
   94CHL1    H6 9372   1.047   1.656   6.844 -2.6001  1.7957  0.6870
   94CHL1    C7 9373   1.020   1.685   7.067  0.8958 -0.4730 -0.6979
   94CHL1   H7A 9374   1.065   1.787   7.067 -1.3547  0.5677 -0.0498
   94CHL1   H7B 9375   0.913   1.709   7.054  0.8647  0.0774  0.4364
   94CHL1    C8 9376   1.042   1.618   7.200  0.7536  0.0087 -0.2776
   94CHL1    H8 9377   1.149   1.616   7.231  0.6112  0.7459  0.2894
   94CHL1   C14 9378   0.975   1.680   7.315 -0.0281 -0.3683 -0.3389
   94CHL1   H14 9379   0.864   1.671   7.303 -0.2015  2.0361 -1.1781
   94CHL1   C15 9380   1.000   1.832   7.326 -0.3495 -0.7932  0.5828
   94CHL1  H15A 9381   1.109   1.856   7.320 -0.9250  1.6206 -2.8021
   94CHL1  H15B 9382   0.943   1.900   7.260  0.1218 -1.8897 -1.0062
   94CHL1   C16 9383   0.943   1.843   7.469  0.5133 -0.5028  0.2011
   94CHL1  H16A 9384   1.008   1.914   7.525  1.4172  0.5682 -2.0830
   94CHL1  H16B 9385   0.846   1.896   7.466  1.0029  0.4320  0.2791
   94CHL1   C17 9386   0.922   1.708   7.545  0.9288 -0.1347  0.7041
   94CHL1   H17 9387   0.818   1.670   7.538  0.8664 -0.1875  1.8038
   94CHL1   C13 9388   0.999   1.614   7.445 -0.2139  0.2717 -0.4850
   94CHL1   C18 9389   1.147   1.621   7.486  0.3543  0.0529 -0.5081
   94CHL1  H18A 9390   1.157   1.571   7.584 -2.2367  0.5294  0.0891
   94CHL1  H18B 9391   1.221   1.589   7.410  0.4924 -2.3270  0.5514
   94CHL1  H18C 9392   1.162   1.730   7.501  0.5703 -0.0400 -0.0398
   94CHL1   C12 9393   0.950   1.466   7.442  0.3004 -0.8664  0.2550
   94CHL1  H12A 9394   0.972   1.397   7.527 -2.5722 -2.5445 -0.2386
   94CHL1  H12B 9395   0.845   1.455   7.408  0.9319  0.5441 -2.4391
   94CHL1   C11 9396   1.023   1.398   7.325 -0.0003 -0.4602 -0.4479
   94CHL1  H11A 9397   1.129   1.383   7.355 -0.3806  0.4899  1.5259
   94CHL1  H11B 9398   0.987   1.293   7.316 -1.2067 -0.3519  2.0966
   94CHL1    C9 9399   1.009   1.468   7.186 -0.0598 -0.2258 -0.1269
   94CHL1    H9 9400   0.901   1.457   7.163 -0.1096  1.8580 -1.1933
   94CHL1   C10 9401   1.078   1.398   7.074  0.4614 -0.0565 -0.1648
   94CHL1   C19 9402   1.216   1.356   7.124 -0.1349 -0.5427  0.2296
   94CHL1  H19A 9403   1.284   1.437   7.158  1.5322 -1.8549  0.2141
   94CHL1  H19B 9404   1.222   1.283   7.208 -1.8245 -0.7520  0.1878
   94CHL1  H19C 9405   1.279   1.306   7.048  0.8628  0.8443  0.1070
   94CHL1    C1 9406   0.994   1.262   7.042 -0.1763  0.1170  0.2501
   94CHL1   H1A 9407   0.996   1.203   7.136  0.6083  2.3137  1.6823
   94CHL1   H1B 9408   0.890   1.293   7.015 -1.4962 -3.5585  0.5192
   94CHL1    C2 9409   1.050   1.180   6.925 -0.2051 -0.0993  0.4760
   94CHL1   H2A 9410   0.985   1.092   6.906  0.4354 -0.4373 -0.1959
   94CHL1   H2B 9411   1.154   1.155   6.953  1.9327  3.7904 -2.8611
   94CHL1   C20 9412   0.957   1.709   7.698  0.4975 -0.1576 -0.4782
   94CHL1   H20 9413   1.067   1.717   7.709  0.2792 -0.7841  4.7373
   94CHL1   C21 9414   0.923   1.577   7.758 -0.4509  0.1291 -0.1760
   94CHL1  H21A 9415   0.990   1.491   7.738 -0.3395 -0.0936  1.0880
   94CHL1  H21B 9416   0.819   1.543   7.736 -1.0737  0.1379  2.4865
   94CHL1  H21C 9417   0.928   1.588   7.868 -2.6906 -0.5202  0.0486
   94CHL1   C22 9418   0.881   1.821   7.786 -0.5226  0.4171 -0.1702
   94CHL1  H22A 9419   0.879   1.923   7.742 -0.3134  0.3825 -0.2621
   94CHL1  H22B 9420   0.773   1.797   7.797 -0.4446  0.8467  1.9362
   94CHL1   C23 9421   0.927   1.841   7.929  0.7372  0.0769  1.0177
   94CHL1  H23A 9422   0.864   1.917   7.979  0.8514 -0.8121  2.5411
   94CHL1  H23B 9423   0.915   1.750   7.991  1.7104 -1.8241 -1.4125
   94CHL1   C24 9424   1.074   1.884   7.933 -0.2632  0.3132 -0.2087
   94CHL1  H24A 9425   1.137   1.793   7.933 -0.4266  0.1629  1.5913
   94CHL1  H24B 9426   1.092   1.941   7.839 -1.5979  0.3563 -0.4695
   94CHL1   C25 9427   1.111   1.960   8.062 -0.2104 -0.3420 -0.4109
   94CHL1   H25 9428   1.222   1.964   8.065 -0.1277  0.6682 -2.6459
   94CHL1   C26 9429   1.065   2.106   8.059  0.1054  0.8073  0.4435
   94CHL1  H26A 9430   1.099   2.157   7.966  3.0361 -0.8146  0.5065
   94CHL1  H26B 9431   0.956   2.122   8.078  0.2154  0.9763  0.9691
   94CHL1  H26C 9432   1.105   2.150   8.153 -0.8305 -1.7120  2.1123
   94CHL1   C27 9433   1.079   1.881   8.193  0.0860 -0.0939  0.0470
   94CHL1  H27A 9434   1.132   1.926   8.280 -0.5315  1.0880 -0.1572
   94CHL1  H27B 9435   0.969   1.880   8.211  0.0166  2.2008  0.0749
   94CHL1  H27C 9436   1.118   1.777   8.188  1.6289  0.4878 -0.6507
   95CHL1    C3 9437   0.480   6.840   6.533 -0.2309  0.4898 -0.1880
   95CHL1    H3 9438   0.486   6.948   6.507  1.8488  0.1530 -1.3442
   95CHL1    O3 9439   0.467   6.773   6.413  0.4819  0.3754  0.2237
   95CHL1   H3' 9440   0.503   6.684   6.424  2.3461  1.1216  0.4905
   95CHL1    C4 9441   0.609   6.787   6.599  0.8603 -0.2581  0.0859
   95CHL1   H4A 9442   0.594   6.677   6.606  2.6256 -0.5517 -0.2704
   95CHL1   H4B 9443   0.690   6.797   6.524  1.1819 -1.2984  0.2786
   95CHL1    C5 9444   0.630   6.848   6.735 -0.3982  0.1311  0.2211
   95CHL1    C6 9445   0.739   6.923   6.760 -0.4704 -0.0632  0.2691
   95CHL1    H6 9446   0.818   6.926   6.684 -0.0984 -1.0917  0.6004
   95CHL1    C7 9447   0.764   6.981   6.897 -0.3257  0.5882 -0.1144
   95CHL1   H7A 9448   0.872   6.962   6.914 -0.7460 -1.4597  0.6112
   95CHL1   H7B 9449   0.745   7.090   6.893  0.7107  0.7533 -1.3931
   95CHL1    C8 9450   0.673   6.917   7.013  0.2894  0.5682  0.2644
   95CHL1    H8 9451   0.721   6.818   7.026  0.5129  0.5651 -0.5456
   95CHL1   C14 9452   0.680   7.001   7.144 -0.3044  0.0748  0.4624
   95CHL1   H14 9453   0.629   7.098   7.125  2.8843  1.7169 -0.4579
   95CHL1   C15 9454   0.815   7.035   7.197 -0.9639  0.0826  0.7123
   95CHL1  H15A 9455   0.877   6.944   7.182 -0.1611  0.7227 -0.0004
   95CHL1  H15B 9456   0.869   7.124   7.159 -1.4164  0.2563  0.4683
   95CHL1   C16 9457   0.786   7.048   7.353 -0.5615  0.0184 -0.3238
   95CHL1  H16A 9458   0.856   6.978   7.403  0.6698  0.6288 -1.1164
   95CHL1  H16B 9459   0.800   7.149   7.398 -0.6025 -0.5784  1.0643
   95CHL1   C17 9460   0.635   7.021   7.376  0.2533  0.1807  0.2372
   95CHL1   H17 9461   0.588   7.119   7.355  0.3540 -0.0422 -1.0798
   95CHL1   C13 9462   0.599   6.932   7.252  0.3688 -0.2052  1.2121
   95CHL1   C18 9463   0.648   6.782   7.277  0.1412  0.4661 -0.1634
   95CHL1  H18A 9464   0.759   6.774   7.282  0.0467 -0.2323  3.3420
   95CHL1  H18B 9465   0.615   6.738   7.374 -0.8351 -0.8483 -1.0631
   95CHL1  H18C 9466   0.620   6.709   7.199 -0.3616 -0.9822  1.3131
   95CHL1   C12 9467   0.450   6.945   7.213 -0.2932 -0.3599 -0.0290
   95CHL1  H12A 9468   0.386   6.907   7.295 -0.0090 -1.8992 -0.4888
   95CHL1  H12B 9469   0.424   7.052   7.197 -0.1474 -0.4355 -0.8373
   95CHL1   C11 9470   0.416   6.872   7.084  0.4704  0.8086 -0.3419
   95CHL1  H11A 9471   0.413   6.764   7.110 -0.6899  1.5029  2.7199
   95CHL1  H11B 9472   0.315   6.902   7.048  1.0219  1.7090 -1.2024
   95CHL1    C9 9473   0.524   6.903   6.971  0.3447 -0.4786  0.0189
   95CHL1    H9 9474   0.497   7.006   6.940 -1.1113 -0.3339  1.6259
   95CHL1   C10 9475   0.512   6.822   6.841 -0.2328 -0.9335  0.9987
   95CHL1   C19 9476   0.522   6.675   6.876  0.6453  0.7086 -0.1693
   95CHL1  H19A 9477   0.618   6.641   6.919  0.8996 -0.2753 -1.4504
   95CHL1  H19B 9478   0.446   6.644   6.951  0.6677 -1.1849 -0.8611
   95CHL1  H19C 9479   0.504   6.609   6.788 -2.5441  0.1090  0.8077
   95CHL1    C1 9480   0.386   6.865   6.764  0.8923 -0.2689 -0.4364
   95CHL1   H1A 9481   0.295   6.860   6.827  0.1061 -1.0359 -1.5832
   95CHL1   H1B 9482   0.390   6.974   6.744 -1.0675 -0.4185 -2.0061
   95CHL1    C2 9483   0.359   6.808   6.626  0.5366  0.6131  0.1263
   95CHL1   H2A 9484   0.270   6.859   6.581 -0.9058 -0.5040  1.5698
   95CHL1   H2B 9485   0.342   6.698   6.628 -0.1494  0.6961  2.5858
   95CHL1   C20 9486   0.607   6.978   7.518 -0.0833 -0.1398  0.5863
   95CHL1   H20 9487   0.668   6.887   7.535 -2.4247 -1.4435  2.8474
   95CHL1   C21 9488   0.459   6.940   7.539 -0.2990  0.2319 -0.1741
   95CHL1  H21A 9489   0.428   6.840   7.500 -2.6436  0.4239  0.9746
   95CHL1  H21B 9490   0.398   7.025   7.503  1.4820  1.1921 -1.0448
   95CHL1  H21C 9491   0.444   6.933   7.649  2.9406 -1.2686  0.2773
   95CHL1   C22 9492   0.644   7.085   7.628  0.4608  0.0080 -0.6273
   95CHL1  H22A 9493   0.746   7.118   7.599  0.0536  0.7481 -1.2580
   95CHL1  H22B 9494   0.570   7.168   7.624 -0.6799 -1.0190 -3.5593
   95CHL1   C23 9495   0.669   7.027   7.771  0.1519  0.5661 -0.0058
   95CHL1  H23A 9496   0.572   6.992   7.813 -1.0929 -1.3202 -3.8779
   95CHL1  H23B 9497   0.727   6.933   7.763  0.8815  1.0092  0.0400
   95CHL1   C24 9498   0.743   7.126   7.852  0.1904  0.6113 -0.3342
   95CHL1  H24A 9499   0.841   7.161   7.812 -0.6641 -0.5127 -3.7940
   95CHL1  H24B 9500   0.677   7.214   7.836 -1.2167 -0.4397 -0.4564
   95CHL1   C25 9501   0.755   7.080   8.006 -0.3321  0.0933  0.0652
   95CHL1   H25 9502   0.649   7.067   8.034 -0.9055  1.9965 -1.0757
   95CHL1   C26 9503   0.828   6.942   8.007 -0.5669 -0.1721  0.2561
   95CHL1  H26A 9504   0.855   6.906   8.109  2.5077 -3.4437 -1.4716
   95CHL1  H26B 9505   0.769   6.860   7.960  0.3567 -0.1710 -0.9664
   95CHL1  H26C 9506   0.928   6.945   7.959 -1.7513  0.8386 -2.3315
   95CHL1   C27 9507   0.823   7.193   8.093 -0.4427  0.0895 -0.5257
   95CHL1  H27A 9508   0.931   7.203   8.068 -0.4851  0.2033 -0.6564
   95CHL1  H27B 9509   0.772   7.290   8.077  1.2648  0.8087 -1.9299
   95CHL1  H27C 9510   0.810   7.168   8.201  2.0699  0.8786  0.0340
   96CHL1    C3 9511   0.720   6.124   6.637  0.5563 -0.2839  0.1119
   96CHL1    H3 9512   0.824   6.160   6.622 -0.4883  2.4003 -1.6212
   96CHL1    O3 9513   0.676   6.087   6.507  0.3566  0.2728  0.7007
   96CHL1   H3' 9514   0.735   6.023   6.466 -0.5235  0.7385 -1.4134
   96CHL1    C4 9515   0.704   6.008   6.738  1.4211  0.3988 -0.3965
   96CHL1   H4A 9516   0.599   5.972   6.741  1.3204  0.4556  4.1449
   96CHL1   H4B 9517   0.759   5.920   6.699  0.1196 -0.5551 -0.1610
   96CHL1    C5 9518   0.735   6.054   6.878 -0.2646 -0.1547 -0.5782
   96CHL1    C6 9519   0.839   5.999   6.949 -0.3142 -0.2242  0.8308
   96CHL1    H6 9520   0.906   5.923   6.905  2.0281  1.5232  1.1670
   96CHL1    C7 9521   0.880   6.034   7.083 -0.4957  0.1298 -0.6015
   96CHL1   H7A 9522   0.894   5.937   7.137 -1.1081 -1.2273 -2.7623
   96CHL1   H7B 9523   0.975   6.090   7.094  0.4131 -1.6614  1.8649
   96CHL1    C8 9524   0.774   6.119   7.154  0.0875  0.3067  0.2348
   96CHL1    H8 9525   0.689   6.051   7.175  0.1423 -0.1869 -1.0074
   96CHL1   C14 9526   0.828   6.180   7.285 -0.4118  0.5499  0.7868
   96CHL1   H14 9527   0.914   6.244   7.255  2.3421 -3.1198  0.1410
   96CHL1   C15 9528   0.892   6.093   7.396  0.1035  0.2799  0.0554
   96CHL1  H15A 9529   0.829   6.001   7.400 -1.4518  1.1146 -2.5320
   96CHL1  H15B 9530   0.998   6.075   7.366  1.3322  3.2411  2.1938
   96CHL1   C16 9531   0.888   6.185   7.516 -0.3942  0.4652 -0.4602
   96CHL1  H16A 9532   0.853   6.122   7.601  1.7384 -0.2543 -0.0415
   96CHL1  H16B 9533   0.994   6.208   7.543 -1.1140  0.1950  3.0362
   96CHL1   C17 9534   0.811   6.313   7.486 -0.1650  0.5416  0.8993
   96CHL1   H17 9535   0.885   6.386   7.446 -0.3451  0.0422 -0.4129
   96CHL1   C13 9536   0.732   6.275   7.359 -0.6196 -0.4700 -0.5440
   96CHL1   C18 9537   0.608   6.190   7.406 -0.5813 -0.1919  0.3927
   96CHL1  H18A 9538   0.569   6.139   7.315  0.4241 -1.0951  0.4409
   96CHL1  H18B 9539   0.631   6.100   7.467 -3.3187 -2.4118 -1.5430
   96CHL1  H18C 9540   0.529   6.255   7.450 -2.9570 -2.6760  0.1149
   96CHL1   C12 9541   0.691   6.389   7.255  0.2505 -0.4156  0.3109
   96CHL1  H12A 9542   0.625   6.469   7.296 -0.7107 -1.6639  1.2705
   96CHL1  H12B 9543   0.786   6.439   7.226 -0.2020 -0.0387 -0.5614
   96CHL1   C11 9544   0.624   6.322   7.133 -0.3384  0.5273  0.1689
   96CHL1  H11A 9545   0.526   6.276   7.158 -1.0565  0.8605 -1.8058
   96CHL1  H11B 9546   0.597   6.402   7.061  0.9763  1.1473  0.3395
   96CHL1    C9 9547   0.720   6.225   7.065 -0.4255 -0.1948 -0.2551
   96CHL1    H9 9548   0.802   6.290   7.028  0.9417 -0.5298  1.9726
   96CHL1   C10 9549   0.656   6.169   6.928  0.6376 -0.1741 -0.6133
   96CHL1   C19 9550   0.512   6.110   6.950 -0.4247 -0.2472 -0.6151
   96CHL1  H19A 9551   0.527   6.020   7.013  1.8190 -1.3387 -2.5400
   96CHL1  H19B 9552   0.441   6.177   7.005 -0.4099  0.1630 -1.0875
   96CHL1  H19C 9553   0.466   6.078   6.854  0.6034  1.7157 -1.8402
   96CHL1    C1 9554   0.652   6.284   6.827  0.1420 -0.8951 -0.1265
   96CHL1   H1A 9555   0.567   6.350   6.853  0.7031  0.3093 -1.2209
   96CHL1   H1B 9556   0.755   6.326   6.823  0.0181 -0.6690 -1.0898
   96CHL1    C2 9557   0.631   6.244   6.681  0.0804 -0.5204  0.1645
   96CHL1   H2A 9558   0.654   6.335   6.622 -0.4114 -0.1613  0.5258
   96CHL1   H2B 9559   0.525   6.222   6.653 -0.2058 -0.9793  1.5573
   96CHL1   C20 9560   0.750   6.375   7.606 -0.9739 -0.7729  0.2358
   96CHL1   H20 9561   0.676   6.313   7.661 -0.7811  1.0422  2.7370
   96CHL1   C21 9562   0.678   6.513   7.569 -0.4499 -0.9783  0.2862
   96CHL1  H21A 9563   0.592   6.503   7.499  0.0196  1.4065 -0.7292
   96CHL1  H21B 9564   0.748   6.579   7.515 -0.3663 -0.1902  1.3344
   96CHL1  H21C 9565   0.640   6.561   7.662 -3.3171 -2.7979  0.2051
   96CHL1   C22 9566   0.863   6.395   7.717  0.4079 -0.8588  0.8746
   96CHL1  H22A 9567   0.927   6.305   7.734  0.7680 -0.9949 -0.9871
   96CHL1  H22B 9568   0.919   6.476   7.666 -0.8996 -1.3778 -1.5453
   96CHL1   C23 9569   0.806   6.444   7.851  0.1060  0.5744 -1.1664
   96CHL1  H23A 9570   0.764   6.546   7.837  0.5772  1.1452  1.1991
   96CHL1  H23B 9571   0.730   6.370   7.884  2.3540 -0.7325  1.4871
   96CHL1   C24 9572   0.902   6.466   7.976 -0.0719  0.0917 -0.3645
   96CHL1  H24A 9573   0.963   6.374   7.983  1.2942  0.8841 -1.2338
   96CHL1  H24B 9574   0.966   6.543   7.927 -2.3813  0.7568 -2.5520
   96CHL1   C25 9575   0.835   6.517   8.110 -0.6185  0.1002 -0.3662
   96CHL1   H25 9576   0.782   6.614   8.111  2.4635  1.9037  0.5616
   96CHL1   C26 9577   0.746   6.409   8.171  0.5110  0.3694  0.3861
   96CHL1  H26A 9578   0.693   6.454   8.257  0.1310 -0.0181  0.3576
   96CHL1  H26B 9579   0.665   6.380   8.101  0.3053  1.6516  0.0610
   96CHL1  H26C 9580   0.805   6.324   8.212 -0.8195 -0.1895  1.2245
   96CHL1   C27 9581   0.947   6.551   8.208 -0.7482 -0.8825 -0.0127
   96CHL1  H27A 9582   0.976   6.464   8.271  1.6345  1.0036  1.6718
   96CHL1  H27B 9583   1.032   6.607   8.163 -1.2313 -0.8127 -0.8633
   96CHL1  H27C 9584   0.902   6.609   8.291 -0.4250  0.5645 -0.8091
   97OSM      N 9585   4.016   3.203  10.886 -0.4445  0.2720  0.1281
   97OSM    C15 9586   4.148   3.127  10.890  0.6701 -0.5126  0.2649
   97OSM   H15A 9587   4.131   3.020  10.892 -0.8848 -0.2786  1.0495
   97OSM   H15B 9588   4.200   3.154  10.980  0.3157 -2.8854  1.2780
   97OSM   H15C 9589   4.211   3.149  10.805  2.2307 -0.5704  1.3667
   97OSM    C14 9590   4.028   3.324  10.972 -0.0905 -0.1776  0.8225
   97OSM   H14A 9591   4.109   3.383  10.931  3.3246 -2.3033  3.8752
   97OSM   H14B 9592   4.060   3.309  11.074 -1.2771 -0.3413  1.1847
   97OSM   H14C 9593   3.936   3.380  10.966  1.0674  2.2388  3.4462
   97OSM    C13 9594   3.989   3.245  10.739 -0.6975 -0.3947 -0.3450
   97OSM   H13A 9595   4.001   3.162  10.671  0.0039 -1.4362  1.0199
   97OSM   H13B 9596   4.066   3.314  10.706  1.1486 -2.7115 -1.1337
   97OSM   H13C 9597   3.891   3.286  10.718 -1.4356 -2.5479 -1.4297
   97OSM    C12 9598   3.901   3.129  10.949 -0.2866  0.2096  0.1056
   97OSM   H12A 9599   3.938   3.092  11.043 -1.5881 -1.9717 -0.1838
   97OSM   H12B 9600   3.869   3.042  10.893 -0.5319  1.0109 -1.0387
   97OSM    C11 9601   3.773   3.211  10.967  0.1553 -0.3974 -0.3156
   97OSM   H11A 9602   3.763   3.263  10.869 -0.5882 -2.8007 -1.5960
   97OSM   H11B 9603   3.781   3.268  11.062  2.2159 -2.8518  1.1039
   97OSM      P 9604   3.528   3.176  11.004  0.1171  0.0282  0.4034
   97OSM    O13 9605   3.432   3.067  11.018  0.2678 -0.7756 -0.3069
   97OSM    O14 9606   3.553   3.256  11.127  0.2177  0.2895  0.0667
   97OSM    O11 9607   3.489   3.267  10.880 -0.9997 -0.2671 -0.7040
   97OSM    O12 9608   3.668   3.113  10.976  0.0728 -0.8837  0.6426
   97OSM    C1S 9609   3.488   3.210  10.752  0.2197 -0.4685 -0.1186
   97OSM    H1S 9610   3.409   3.133  10.735  0.9400 -1.1470 -0.5064
   97OSM    H1T 9611   3.580   3.154  10.725 -0.4809 -1.0723 -1.3683
   97OSM     NF 9612   3.471   3.257  10.511  0.9438  0.0096 -0.0394
   97OSM    HNF 9613   3.540   3.276  10.442 -0.1128 -0.6026 -1.3320
   97OSM    C2S 9614   3.467   3.320  10.642 -0.3374 -0.6053 -0.1247
   97OSM    H2S 9615   3.360   3.347  10.660 -0.5133 -0.6854 -1.0218
   97OSM    C3S 9616   3.553   3.445  10.652  0.0509  0.7446  0.5548
   97OSM    H3S 9617   3.661   3.424  10.635  0.1063 -0.4708  2.1551
   97OSM     O3 9618   3.555   3.505  10.781 -0.3925 -0.3859 -0.1115
   97OSM    HO3 9619   3.534   3.427  10.834  0.7405 -0.4518  0.2725
   97OSM    C4S 9620   3.513   3.547  10.546  0.6209 -0.1307 -0.3379
   97OSM    H4S 9621   3.560   3.523  10.450 -0.7639  0.8860 -1.3110
   97OSM    C5S 9622   3.415   3.640  10.555 -0.1062  0.0653  0.5754
   97OSM    H5S 9623   3.359   3.659  10.648  0.4739  1.1786  0.7169
   97OSM    C6S 9624   3.365   3.735  10.452 -0.0802 -0.2031  0.9528
   97OSM    H6S 9625   3.350   3.832  10.503 -0.1391 -0.5889  1.6783
   97OSM    H6T 9626   3.268   3.703  10.408  0.1564  0.8861 -0.4455
   97OSM    C7S 9627   3.449   3.743  10.317  0.2685 -0.0587  0.1580
   97OSM    H7S 9628   3.441   3.649  10.258 -1.0860 -0.6662  1.2490
   97OSM    H7T 9629   3.557   3.754  10.342  0.5032 -0.4549 -0.6504
   97OSM    C8S 9630   3.409   3.855  10.234  0.2088  0.1161  0.1384
   97OSM    H8S 9631   3.441   3.947  10.286  2.2313  0.1994 -1.1289
   97OSM    H8T 9632   3.298   3.853  10.229  0.0703  1.5003  1.9762
   97OSM    C9S 9633   3.472   3.864  10.093  0.3055 -0.9592 -0.2661
   97OSM    H9S 9634   3.579   3.892  10.096  0.1165 -0.3319  1.2011
   97OSM    H9T 9635   3.418   3.950  10.047  0.8497  0.9807  2.4453
   97OSM   C10S 9636   3.440   3.740  10.002 -0.0433 -0.5124  0.2396
   97OSM   H10S 9637   3.330   3.722  10.007  0.0317 -0.7455  1.2481
   97OSM   H10T 9638   3.480   3.649  10.051  3.6182  1.6215  1.5940
   97OSM   C11S 9639   3.490   3.763   9.856 -0.2300  0.5642 -0.1052
   97OSM   H11S 9640   3.588   3.712   9.860 -0.6972 -0.2657  2.4174
   97OSM   H11T 9641   3.496   3.872   9.833  0.7163  0.7157  0.8132
   97OSM   C12S 9642   3.391   3.698   9.752  0.8624 -0.6586 -0.3915
   97OSM   H12S 9643   3.289   3.728   9.782  0.0055 -3.4484 -0.1858
   97OSM   H12T 9644   3.390   3.587   9.763  0.8117 -0.4989  1.4791
   97OSM   C13S 9645   3.417   3.743   9.607 -0.2420 -0.1455 -0.0275
   97OSM   H13S 9646   3.526   3.753   9.588 -0.5286 -1.5884 -2.9387
   97OSM   H13T 9647   3.378   3.846   9.587  0.0535 -0.4249 -2.4002
   97OSM   C14S 9648   3.343   3.644   9.514  0.3437 -0.7504 -0.9007
   97OSM   H14S 9649   3.240   3.623   9.550  0.0296 -1.7951 -2.3305
   97OSM   H14T 9650   3.386   3.542   9.525 -0.5915 -1.1631 -0.9420
   97OSM   C15S 9651   3.333   3.690   9.367 -0.3816  0.6453  0.0204
   97OSM   H15S 9652   3.436   3.713   9.332 -0.4354  2.9490  1.1663
   97OSM   H15T 9653   3.265   3.778   9.358  1.1492  1.7748 -1.2299
   97OSM   C16S 9654   3.271   3.577   9.288  0.6782 -0.6446  0.7654
   97OSM   H16S 9655   3.179   3.540   9.338 -0.3129  1.0536  0.2736
   97OSM   H16T 9656   3.351   3.503   9.309 -0.3059 -1.3031  2.4045
   97OSM   C17S 9657   3.255   3.600   9.136 -0.2282 -0.0833 -0.2791
   97OSM   H17S 9658   3.330   3.668   9.092  0.7011 -0.3143  0.9068
   97OSM   H17T 9659   3.159   3.656   9.126 -0.4036 -0.1334  0.8920
   97OSM   C18S 9660   3.255   3.469   9.050 -0.4281  0.4948 -0.3912
   97OSM   H18S 9661   3.246   3.498   8.943 -0.2879  1.4817 -0.1442
   97OSM   H18T 9662   3.162   3.413   9.074 -1.2369  1.1990 -1.7078
   97OSM   H18U 9663   3.345   3.408   9.069 -0.4032  0.6423 -0.0201
   97OSM    C1F 9664   3.377   3.168  10.474 -0.4581  0.2410 -0.8978
   97OSM     OF 9665   3.275   3.144  10.534  0.5341 -0.1189 -0.1181
   97OSM    C2F 9666   3.393   3.103  10.337  0.6494  0.1529  0.5688
   97OSM    H2F 9667   3.476   3.151  10.281  0.4054  0.5463  0.5356
   97OSM    H2G 9668   3.298   3.126  10.284  0.1460 -1.6246  0.6303
   97OSM    C3F 9669   3.393   2.953  10.352  1.2555  0.0829  0.0637
   97OSM    H3F 9670   3.286   2.930  10.374  0.6438  1.4451 -1.2991
   97OSM    H3G 9671   3.464   2.914  10.427 -0.7562 -3.0934  0.5186
   97OSM    C4F 9672   3.412   2.876  10.220  0.0774 -0.1843 -0.0733
   97OSM    H4F 9673   3.370   2.774  10.228 -1.8120  0.2929 -2.5864
   97OSM    H4G 9674   3.521   2.870  10.201  0.0140 -1.1242 -0.1489
   97OSM    C5F 9675   3.329   2.930  10.093  0.3452  0.6431 -0.0428
   97OSM    H5F 9676   3.376   3.024  10.057  0.1906 -0.4832 -3.5903
   97OSM    H5G 9677   3.226   2.953  10.128  0.8134  1.4527  0.8463
   97OSM    C6F 9678   3.316   2.833   9.969 -0.5351  0.2457 -1.1588
   97OSM    H6F 9679   3.232   2.871   9.906  1.0545  2.0584 -2.3026
   97OSM    H6G 9680   3.292   2.729   9.996 -0.9965  1.1044  2.0702
   97OSM    C7F 9681   3.442   2.826   9.878  0.7652 -0.3670  0.3147
   97OSM    H7F 9682   3.526   2.839   9.949 -0.9954  3.5711  1.9778
   97OSM    H7G 9683   3.443   2.917   9.814 -3.3211 -0.9037 -0.8244
   97OSM    C8F 9684   3.457   2.691   9.805  0.1645 -0.1067  0.1975
   97OSM    H8F 9685   3.430   2.616   9.882 -2.7150 -1.0739 -1.5774
   97OSM    H8G 9686   3.566   2.685   9.785  0.4368 -1.9603  1.8997
   97OSM    C9F 9687   3.368   2.669   9.681 -0.2178 -0.0699 -0.6280
   97OSM    H9F 9688   3.261   2.653   9.698 -0.1346  0.2303  0.1780
   97OSM   C10F 9689   3.411   2.656   9.551 -0.4546 -0.6914 -0.1117
   97OSM   H10F 9690   3.336   2.641   9.472 -1.1650  2.3101 -0.1233
   97OSM   C11F 9691   3.554   2.655   9.508  0.5829 -0.2502 -0.1958
   97OSM   H11F 9692   3.623   2.611   9.583  0.0896  1.1461  1.1496
   97OSM   H11G 9693   3.608   2.751   9.496  1.8198 -0.5696  2.1913
   97OSM   C12F 9694   3.566   2.564   9.379  0.0489 -0.4124  0.1487
   97OSM   H12F 9695   3.502   2.604   9.298 -0.3883 -2.5245 -0.6251
   97OSM   H12G 9696   3.525   2.463   9.401  1.9218 -1.3893 -0.6099
   97OSM   C13F 9697   3.707   2.559   9.326  0.3760 -0.4560  0.1409
   97OSM   H13F 9698   3.764   2.495   9.396 -0.3463 -1.4011 -0.1082
   97OSM   H13G 9699   3.749   2.660   9.345  2.3826 -1.5667  1.9520
   97OSM   C14F 9700   3.722   2.521   9.178  0.9250  0.4556  0.7831
   97OSM   H14F 9701   3.652   2.586   9.121 -0.3426  0.2849  2.0942
   97OSM   H14G 9702   3.700   2.412   9.174 -2.3803  1.0319 -2.4508
   97OSM   C15F 9703   3.862   2.545   9.114 -0.3436 -0.3610  0.2843
   97OSM   H15F 9704   3.926   2.499   9.192 -0.7489 -0.4635  0.5585
   97OSM   H15G 9705   3.883   2.654   9.112 -0.9497 -0.2414  0.2553
   97OSM   C16F 9706   3.880   2.490   8.975  0.9377 -1.1051  0.9943
   97OSM   H16F 9707   3.792   2.523   8.916  1.6827  1.4152  1.1323
   97OSM   H16G 9708   3.878   2.380   8.988 -0.9462 -1.2866 -0.4609
   97OSM   C17F 9709   4.013   2.533   8.915 -0.2381 -0.9088 -0.0280
   97OSM   H17F 9710   4.084   2.513   8.999 -0.7999  3.1875  1.6644
   97OSM   H17G 9711   4.004   2.642   8.899  0.7713 -0.5851  1.4376
   97OSM   C18F 9712   4.057   2.464   8.786 -0.2395 -0.1072  0.0593
   97OSM   H18F 9713   4.165   2.480   8.766 -0.3171  1.2857  0.6678
   97OSM   H18G 9714   4.005   2.510   8.699 -0.1170  1.9964  1.0526
   97OSM   H18H 9715   4.041   2.354   8.794 -0.5558  0.0508  2.1418
   98OSM      N 9716   4.252   2.444  11.194  0.1889  0.3948 -0.6020
   98OSM    C15 9717   4.341   2.368  11.291  0.0670 -1.1360  0.5248
   98OSM   H15A 9718   4.315   2.391  11.393  0.8956 -0.3819  0.5887
   98OSM   H15B 9719   4.441   2.401  11.267  0.3400 -0.1698  2.7896
   98OSM   H15C 9720   4.348   2.261  11.281 -0.7012 -1.1480  0.0347
   98OSM    C14 9721   4.108   2.392  11.203 -0.3317  0.0554  0.6997
   98OSM   H14A 9722   4.097   2.373  11.309  0.9453  0.4698  0.9264
   98OSM   H14B 9723   4.112   2.299  11.148 -1.9417  0.1509  0.3661
   98OSM   H14C 9724   4.038   2.468  11.174 -0.7482 -0.0819  1.3247
   98OSM    C13 9725   4.246   2.585  11.232 -0.7064  0.1397  0.4929
   98OSM   H13A 9726   4.210   2.607  11.331  1.4408 -0.7063  1.5164
   98OSM   H13B 9727   4.176   2.637  11.169 -0.8226 -1.0567 -0.3996
   98OSM   H13C 9728   4.344   2.619  11.201  0.7507 -4.7007 -1.2200
   98OSM    C12 9729   4.305   2.431  11.055  0.3387 -0.3149 -0.7066
   98OSM   H12A 9730   4.236   2.462  10.978 -0.8554 -2.4533 -0.5866
   98OSM   H12B 9731   4.313   2.325  11.034  0.3292 -0.9480  2.0911
   98OSM    C11 9732   4.440   2.487  11.024 -0.4061  0.5926  0.4286
   98OSM   H11A 9733   4.471   2.476  10.918 -1.2107  1.6026  0.0749
   98OSM   H11B 9734   4.516   2.429  11.082  0.4257  0.1646 -1.0443
   98OSM      P 9735   4.444   2.749  10.952  0.4347 -0.0066  0.7444
   98OSM    O13 9736   4.341   2.844  10.991  0.2617 -0.4536  0.3996
   98OSM    O14 9737   4.582   2.798  10.928 -0.2328  0.5052 -0.0432
   98OSM    O11 9738   4.384   2.672  10.822 -0.2380  0.8821  0.5855
   98OSM    O12 9739   4.453   2.630  11.056 -0.4483 -0.1695 -0.6161
   98OSM    C1S 9740   4.241   2.657  10.790  0.2387  0.2246 -0.1462
   98OSM    H1S 9741   4.181   2.679  10.882  0.6400 -0.9726  0.4268
   98OSM    H1T 9742   4.215   2.556  10.752 -0.5874 -0.0521  1.0844
   98OSM     NF 9743   4.063   2.729  10.640 -0.5102  0.4869  0.1961
   98OSM    HNF 9744   4.042   2.686  10.552 -0.2613  0.9539 -0.0974
   98OSM    C2S 9745   4.201   2.742  10.666 -0.2375 -0.5119  0.0816
   98OSM    H2S 9746   4.224   2.848  10.690  1.6768 -0.7991 -0.3217
   98OSM    C3S 9747   4.284   2.706  10.545  0.5629 -0.3429  0.1234
   98OSM    H3S 9748   4.283   2.596  10.525  1.1153 -0.5430  1.1610
   98OSM     O3 9749   4.420   2.734  10.571 -0.2297  0.8481  0.4025
   98OSM    HO3 9750   4.408   2.743  10.665 -1.2396  1.4055  0.2308
   98OSM    C4S 9751   4.237   2.791  10.431 -0.5054 -0.0972  0.4338
   98OSM    H4S 9752   4.226   2.901  10.439  0.6978  0.1787 -1.3045
   98OSM    C5S 9753   4.174   2.742  10.318 -0.8274  0.4074 -0.2092
   98OSM    H5S 9754   4.159   2.634  10.303  2.6832 -0.3461  0.7838
   98OSM    C6S 9755   4.121   2.823  10.207 -0.0432  0.1994  1.0608
   98OSM    H6S 9756   4.086   2.921  10.248 -0.6865  0.0420  0.9077
   98OSM    H6T 9757   4.032   2.771  10.166  1.0966  0.7665 -2.4513
   98OSM    C7S 9758   4.213   2.848  10.090 -0.4264  0.1781 -0.2606
   98OSM    H7S 9759   4.268   2.753  10.072  0.6284  0.8425 -0.6484
   98OSM    H7T 9760   4.289   2.925  10.116  0.1145  1.2398 -4.2153
   98OSM    C8S 9761   4.132   2.903   9.969 -0.1097  0.0225  0.1815
   98OSM    H8S 9762   4.197   2.907   9.880 -2.1372  1.6706 -1.3404
   98OSM    H8T 9763   4.091   3.004   9.989 -1.4729 -0.2286 -1.1119
   98OSM    C9S 9764   4.002   2.823   9.933 -0.1770 -0.7580 -0.2526
   98OSM    H9S 9765   3.907   2.870   9.965  0.6261  0.0567  0.9815
   98OSM    H9T 9766   4.009   2.717   9.967 -2.3130 -1.1745 -0.9066
   98OSM   C10S 9767   3.988   2.805   9.778  0.4113  0.1354  0.1027
   98OSM   H10S 9768   3.886   2.772   9.751  0.5915  0.6843 -1.3573
   98OSM   H10T 9769   4.061   2.725   9.751  0.6842  1.1891 -2.5658
   98OSM   C11S 9770   4.013   2.921   9.686 -0.5441  0.3857 -0.5338
   98OSM   H11S 9771   4.122   2.941   9.677  0.1174 -1.8971  1.5773
   98OSM   H11T 9772   3.969   3.015   9.725 -0.7934  0.6991 -1.5245
   98OSM   C12S 9773   3.956   2.903   9.541  0.2637 -0.0689 -0.4734
   98OSM   H12S 9774   3.861   2.847   9.554 -0.3477  0.7677 -1.1858
   98OSM   H12T 9775   4.020   2.831   9.486  1.7685 -0.8360  2.1050
   98OSM   C13S 9776   3.915   3.017   9.451 -0.3474  0.1860 -0.3569
   98OSM   H13S 9777   4.006   3.079   9.433 -0.6301  1.0079  0.8667
   98OSM   H13T 9778   3.843   3.090   9.495 -1.8047  0.1260 -2.5224
   98OSM   C14S 9779   3.854   2.981   9.310 -0.3901 -0.4462 -0.4478
   98OSM   H14S 9780   3.754   2.940   9.336  0.5677 -2.3438  0.4388
   98OSM   H14T 9781   3.916   2.898   9.270 -1.3428 -1.8036  0.7800
   98OSM   C15S 9782   3.835   3.096   9.206  0.2349 -0.3599  0.0622
   98OSM   H15S 9783   3.932   3.147   9.188 -0.5980  0.6679 -1.7842
   98OSM   H15T 9784   3.752   3.161   9.239 -1.5655 -1.3902 -2.1667
   98OSM   C16S 9785   3.795   3.035   9.066  0.2096  0.0909  0.3203
   98OSM   H16S 9786   3.711   2.963   9.080 -3.5420  3.8992 -0.4952
   98OSM   H16T 9787   3.882   2.987   9.017 -0.8524  0.8204 -2.4346
   98OSM   C17S 9788   3.731   3.146   8.982  0.6014 -0.0162  0.8887
   98OSM   H17S 9789   3.799   3.234   8.977  0.9833 -0.3700 -0.5374
   98OSM   H17T 9790   3.641   3.186   9.033 -1.3621  0.6301 -2.7412
   98OSM   C18S 9791   3.692   3.102   8.839 -0.2451  0.0662  0.2248
   98OSM   H18S 9792   3.605   3.034   8.847 -0.4572  0.3192  0.0777
   98OSM   H18T 9793   3.773   3.055   8.779 -1.7849  0.5387 -2.3980
   98OSM   H18U 9794   3.664   3.193   8.781 -0.8880 -1.3009 -1.7374
   98OSM    C1F 9795   3.968   2.784  10.713  0.3446 -0.3473  0.8237
   98OSM     OF 9796   4.000   2.832  10.821 -0.3065 -0.6400  0.3440
   98OSM    C2F 9797   3.829   2.782  10.662  0.2613  0.2164 -0.9029
   98OSM    H2F 9798   3.776   2.712  10.730  2.1626  0.8070  1.3035
   98OSM    H2G 9799   3.831   2.736  10.561  0.0897  0.3152 -0.9521
   98OSM    C3F 9800   3.760   2.917  10.653 -0.4688  0.0256 -0.0124
   98OSM    H3F 9801   3.765   2.964  10.754  0.6985 -0.4638  0.1719
   98OSM    H3G 9802   3.652   2.898  10.632 -0.3104  0.5022 -1.3248
   98OSM    C4F 9803   3.812   3.001  10.535  1.0811 -0.7863  0.6474
   98OSM    H4F 9804   3.918   3.035  10.544  1.1693 -0.8578 -0.0538
   98OSM    H4G 9805   3.748   3.090  10.555 -0.3823 -2.2383  2.9243
   98OSM    C5F 9806   3.792   2.947  10.395  0.4896  0.6857  0.9515
   98OSM    H5F 9807   3.709   2.874  10.392  0.2184  1.0339 -0.7237
   98OSM    H5G 9808   3.890   2.898  10.380  0.6480  1.1586  0.3994
   98OSM    C6F 9809   3.772   3.059  10.302  0.0012  0.2511  0.2855
   98OSM    H6F 9810   3.826   3.151  10.335  0.2070  0.8631 -1.6196
   98OSM    H6G 9811   3.667   3.092  10.311  0.0240  0.3691  0.1253
   98OSM    C7F 9812   3.786   3.023  10.154  0.8908 -0.1819 -0.1927
   98OSM    H7F 9813   3.754   2.917  10.144 -2.4283  0.8656 -2.4628
   98OSM    H7G 9814   3.887   3.036  10.112  1.7349  0.2088  1.8290
   98OSM    C8F 9815   3.691   3.101  10.063 -0.0580 -0.3474  0.6478
   98OSM    H8F 9816   3.584   3.107  10.091 -1.4325  2.2516 -4.0645
   98OSM    H8G 9817   3.688   3.084   9.953 -0.0130  2.7367  0.0956
   98OSM    C9F 9818   3.744   3.244  10.061 -0.1854  0.9603  1.2127
   98OSM    H9F 9819   3.690   3.307  10.133  0.8238  2.2463  0.8630
   98OSM   C10F 9820   3.810   3.319   9.964  0.7645  0.2801 -0.1085
   98OSM   H10F 9821   3.848   3.415  10.002  2.0109  0.5058 -1.8003
   98OSM   C11F 9822   3.849   3.266   9.821  0.6385  0.1480 -0.7870
   98OSM   H11F 9823   3.770   3.201   9.777  0.2610  0.1502 -0.1319
   98OSM   H11G 9824   3.943   3.209   9.829  0.9759  0.8548  0.5720
   98OSM   C12F 9825   3.874   3.376   9.717 -0.4170  0.3520 -0.6154
   98OSM   H12F 9826   3.915   3.330   9.625  0.6311 -0.8926  0.4266
   98OSM   H12G 9827   3.949   3.445   9.760 -0.8761 -0.0989  0.9823
   98OSM   C13F 9828   3.755   3.473   9.689  0.4283 -0.3962 -0.5729
   98OSM   H13F 9829   3.741   3.551   9.767 -0.0446  1.2101 -2.1783
   98OSM   H13G 9830   3.659   3.418   9.683  1.6869 -2.8615  0.5112
   98OSM   C14F 9831   3.782   3.548   9.550  0.3878 -0.3202  0.0685
   98OSM   H14F 9832   3.888   3.578   9.545  0.5211 -0.6588  0.7428
   98OSM   H14G 9833   3.716   3.637   9.547  0.5275 -0.1959  0.5770
   98OSM   C15F 9834   3.762   3.471   9.421  0.5693 -0.0523  0.4671
   98OSM   H15F 9835   3.661   3.426   9.420 -0.2957  1.7915 -0.7189
   98OSM   H15G 9836   3.836   3.388   9.419 -0.9920 -1.5336  1.6357
   98OSM   C16F 9837   3.783   3.565   9.300 -0.1311 -0.4632  0.1777
   98OSM   H16F 9838   3.891   3.588   9.307 -0.8160  2.8030  1.6777
   98OSM   H16G 9839   3.723   3.658   9.313 -0.6390 -0.5454 -1.3650
   98OSM   C17F 9840   3.766   3.491   9.167  0.6227  1.5932  0.2312
   98OSM   H17F 9841   3.815   3.391   9.167 -0.6590  0.9397 -0.5217
   98OSM   H17G 9842   3.834   3.537   9.091  1.5301  1.1377  0.7448
   98OSM   C18F 9843   3.618   3.469   9.124 -0.2422 -0.0774 -0.0448
   98OSM   H18F 9844   3.562   3.565   9.121  0.6517  0.5049  1.0627
   98OSM   H18G 9845   3.571   3.404   9.200 -0.3205 -3.1672 -2.5327
   98OSM   H18H 9846   3.605   3.428   9.022  0.1643 -0.5824  0.1034
   99OSM      N 9847   6.595   3.029  11.016 -0.5502  0.7528  0.1311
   99OSM    C15 9848   6.601   2.895  11.086 -0.2618  0.0564  0.0582
   99OSM   H15A 9849   6.559   2.815  11.027 -0.9599  0.9435 -0.6825
   99OSM   H15B 9850   6.563   2.907  11.186  2.8879  2.4249  1.1620
   99OSM   H15C 9851   6.703   2.862  11.103 -1.0989 -3.5861 -1.0830
   99OSM    C14 9852   6.574   3.139  11.109  0.3602 -0.0633 -0.2072
   99OSM   H14A 9853   6.659   3.127  11.174  0.4043  0.4142 -0.1800
   99OSM   H14B 9854   6.484   3.141  11.169  0.5414 -0.9777  0.1223
   99OSM   H14C 9855   6.570   3.229  11.051 -1.4288 -0.4780 -0.7881
   99OSM    C13 9856   6.725   3.055  10.948  0.4312  1.0440  0.7338
   99OSM   H13A 9857   6.815   3.053  11.008  2.2971 -1.4199 -1.8847
   99OSM   H13B 9858   6.721   3.148  10.894 -0.0347 -0.0168 -1.1705
   99OSM   H13C 9859   6.737   2.975  10.876 -3.9275 -0.3764  1.2505
   99OSM    C12 9860   6.494   3.028  10.904  0.1592 -0.0424  0.1925
   99OSM   H12A 9861   6.400   3.006  10.954 -0.9845  1.5616 -1.1410
   99OSM   H12B 9862   6.511   2.947  10.835 -0.0697 -0.9168  1.1294
   99OSM    C11 9863   6.472   3.166  10.831 -0.4163  0.7154 -0.1773
   99OSM   H11A 9864   6.383   3.145  10.768 -1.0332  1.9084  0.2647
   99OSM   H11B 9865   6.564   3.186  10.771  0.1139 -0.2253  0.2883
   99OSM      P 9866   6.416   3.416  10.862  0.0115  0.0732  0.1078
   99OSM    O13 9867   6.354   3.497  10.972 -0.1687  0.1892  0.1303
   99OSM    O14 9868   6.536   3.467  10.793 -0.3493 -0.2716 -0.4180
   99OSM    O11 9869   6.304   3.383  10.756  0.6509  0.7215 -0.2771
   99OSM    O12 9870   6.446   3.276  10.914 -0.2825 -0.0834  0.2322
   99OSM    C1S 9871   6.334   3.373  10.619 -0.2412 -0.1737 -0.3067
   99OSM    H1S 9872   6.391   3.279  10.601 -0.1178 -0.5732  1.9434
   99OSM    H1T 9873   6.395   3.461  10.588 -1.4755  1.5527  1.8895
   99OSM     NF 9874   6.253   3.345  10.385 -0.7253  0.8700  0.4159
   99OSM    HNF 9875   6.237   3.430  10.334  0.7841  0.5123 -0.7018
   99OSM    C2S 9876   6.209   3.367  10.523  0.1466  0.1091 -0.5692
   99OSM    H2S 9877   6.156   3.272  10.545  0.4847 -0.3969 -1.8651
   99OSM    C3S 9878   6.108   3.477  10.555 -0.2767  0.8029  0.2598
   99OSM    H3S 9879   6.158   3.574  10.532 -1.9171  1.7739  0.6016
   99OSM     O3 9880   6.064   3.486  10.691 -0.2299 -0.1608 -0.0861
   99OSM    HO3 9881   6.134   3.459  10.751  1.1974  0.7661 -1.2951
   99OSM    C4S 9882   5.995   3.474  10.459 -0.1388 -0.1095  0.3099
   99OSM    H4S 9883   5.984   3.563  10.396 -0.8107 -1.4199 -1.4969
   99OSM    C5S 9884   5.901   3.380  10.438 -1.3764  0.1087  0.3566
   99OSM    H5S 9885   5.895   3.304  10.518  1.1610  0.8540  1.3271
   99OSM    C6S 9886   5.784   3.398  10.345 -0.2666  0.1815 -0.1494
   99OSM    H6S 9887   5.723   3.490  10.359 -0.9700 -0.0831 -1.4049
   99OSM    H6T 9888   5.724   3.305  10.355 -0.5638  0.4845  1.1128
   99OSM    C7S 9889   5.848   3.402  10.205 -0.3703  0.3219 -0.1538
   99OSM    H7S 9890   5.919   3.488  10.205  0.4366 -0.3249  0.2518
   99OSM    H7T 9891   5.774   3.405  10.123 -0.8923 -3.1692  0.0586
   99OSM    C8S 9892   5.926   3.273  10.166 -0.2204 -0.1314  0.1011
   99OSM    H8S 9893   5.858   3.190  10.193 -1.2777  0.5105 -0.5013
   99OSM    H8T 9894   6.022   3.260  10.220 -1.5042  0.1685  2.5778
   99OSM    C9S 9895   5.966   3.274  10.017  0.3940  1.0329 -0.0048
   99OSM    H9S 9896   5.869   3.274   9.963 -0.3851  0.9904  1.3443
   99OSM    H9T 9897   6.013   3.174  10.001  0.1386  0.8533  0.3270
   99OSM   C10S 9898   6.053   3.384   9.970  0.4972  0.0453  0.6376
   99OSM   H10S 9899   6.143   3.386  10.035  0.6860 -0.9413  0.4325
   99OSM   H10T 9900   5.997   3.479   9.976  1.7455  0.7916  0.6715
   99OSM   C11S 9901   6.079   3.365   9.816 -0.2483  0.0883 -0.9725
   99OSM   H11S 9902   5.981   3.342   9.768 -1.0890  0.3986  0.5254
   99OSM   H11T 9903   6.150   3.282   9.802 -0.5659 -0.5338  0.8502
   99OSM   C12S 9904   6.134   3.503   9.765  0.4614  0.5315 -0.3901
   99OSM   H12S 9905   6.047   3.570   9.778  0.3856  0.0088  2.2962
   99OSM   H12T 9906   6.214   3.525   9.838  0.1209 -0.9362  0.4644
   99OSM   C13S 9907   6.191   3.506   9.621  0.9234  0.0441  0.0577
   99OSM   H13S 9908   6.273   3.435   9.599 -0.6869 -1.0700 -2.9232
   99OSM   H13T 9909   6.230   3.608   9.606 -0.8496  0.7047 -0.3998
   99OSM   C14S 9910   6.073   3.486   9.524  0.2728  0.6913 -0.0780
   99OSM   H14S 9911   5.987   3.551   9.552  0.7315  0.3897  2.1913
   99OSM   H14T 9912   6.039   3.384   9.552  0.0590  1.0212  0.9151
   99OSM   C15S 9913   6.121   3.495   9.385 -0.6150  0.1757  0.4877
   99OSM   H15S 9914   6.160   3.596   9.360 -0.8311 -0.1381 -1.2629
   99OSM   H15T 9915   6.037   3.476   9.315  0.6057  1.8174 -1.5449
   99OSM   C16S 9916   6.222   3.384   9.351  0.6325 -0.0624  0.1833
   99OSM   H16S 9917   6.183   3.290   9.395  0.0187  0.7750  1.4973
   99OSM   H16T 9918   6.321   3.400   9.399  0.3563 -2.0658  1.5038
   99OSM   C17S 9919   6.256   3.382   9.196  0.2071 -0.3561 -0.8350
   99OSM   H17S 9920   6.336   3.308   9.177  2.6479  1.5256  1.2819
   99OSM   H17T 9921   6.291   3.484   9.168 -0.7053  0.4197  0.6831
   99OSM   C18S 9922   6.131   3.357   9.104 -0.2773  0.7733 -0.2567
   99OSM   H18S 9923   6.041   3.417   9.129  0.8430  2.4408 -0.1350
   99OSM   H18T 9924   6.103   3.251   9.123  0.2244  0.6412 -0.2446
   99OSM   H18U 9925   6.162   3.373   8.998  1.8864  2.1452  0.5253
   99OSM    C1F 9926   6.329   3.243  10.338 -0.4425  0.1555 -0.1439
   99OSM     OF 9927   6.346   3.145  10.403  0.0635 -0.9976 -0.0739
   99OSM    C2F 9928   6.388   3.255  10.204 -0.2889 -0.6034 -0.5279
   99OSM    H2F 9929   6.442   3.352  10.203  1.2525 -1.3962  0.9362
   99OSM    H2G 9930   6.304   3.262  10.131 -0.3766  1.6199 -0.2902
   99OSM    C3F 9931   6.490   3.147  10.174 -0.2799 -0.2943 -0.0913
   99OSM    H3F 9932   6.572   3.134  10.247 -0.2637 -0.5525 -0.1520
   99OSM    H3G 9933   6.429   3.054  10.179 -0.7293  0.0415  0.8608
   99OSM    C4F 9934   6.574   3.174  10.052 -0.3427 -0.1285  0.1267
   99OSM    H4F 9935   6.636   3.084  10.034 -0.3466 -0.5353  1.9880
   99OSM    H4G 9936   6.645   3.258  10.071  0.7935 -0.7811 -1.0658
   99OSM    C5F 9937   6.489   3.191   9.922 -0.1749 -0.3673  0.6762
   99OSM    H5F 9938   6.431   3.283   9.943 -1.1497 -0.8498  0.1878
   99OSM    H5G 9939   6.426   3.101   9.905  0.0908 -0.4869  0.3004
   99OSM    C6F 9940   6.593   3.209   9.804  0.0854 -0.0836  0.6634
   99OSM    H6F 9941   6.652   3.115   9.808 -0.7504 -0.7098 -0.6873
   99OSM    H6G 9942   6.660   3.295   9.824  0.4182 -0.0547 -0.4815
   99OSM    C7F 9943   6.517   3.209   9.664 -0.1530 -0.2407  0.5307
   99OSM    H7F 9944   6.450   3.296   9.648 -1.2414 -1.1118  0.2590
   99OSM    H7G 9945   6.460   3.114   9.673  2.3313 -1.7566  1.1404
   99OSM    C8F 9946   6.604   3.184   9.537  0.4443  0.1266 -0.0383
   99OSM    H8F 9947   6.546   3.138   9.454  1.3115 -2.9241  0.9096
   99OSM    H8G 9948   6.685   3.109   9.551 -0.1308 -0.2571  1.4640
   99OSM    C9F 9949   6.679   3.314   9.492  0.2891 -0.1201  0.3395
   99OSM    H9F 9950   6.713   3.365   9.583 -0.4428 -1.3056  1.3197
   99OSM   C10F 9951   6.705   3.358   9.367  0.3676 -0.0031 -0.3555
   99OSM   H10F 9952   6.734   3.464   9.366 -1.6244  0.5867 -1.3418
   99OSM   C11F 9953   6.658   3.305   9.234  0.4004  0.2256  0.3258
   99OSM   H11F 9954   6.675   3.382   9.156  0.6563  0.4045  0.5564
   99OSM   H11G 9955   6.549   3.283   9.240  0.2663 -0.1850 -2.2544
   99OSM   C12F 9956   6.740   3.186   9.192 -0.2915  0.1247  0.0575
   99OSM   H12F 9957   6.688   3.134   9.109 -0.5134 -0.8239  0.7655
   99OSM   H12G 9958   6.737   3.099   9.261  2.7206 -0.6951 -0.7191
   99OSM   C13F 9959   6.884   3.218   9.148 -0.6993  0.4326  0.6499
   99OSM   H13F 9960   6.936   3.165   9.230 -0.0515  0.4532  0.2534
   99OSM   H13G 9961   6.905   3.327   9.156  1.7002 -0.0324  1.4976
   99OSM   C14F 9962   6.929   3.160   9.015  0.5554  0.4874 -0.0526
   99OSM   H14F 9963   6.899   3.053   9.017  1.9226  0.0825 -0.2660
   99OSM   H14G 9964   7.039   3.166   9.003  0.6179 -0.8468 -0.3707
   99OSM   C15F 9965   6.862   3.229   8.898  0.6793 -0.4572  0.3174
   99OSM   H15F 9966   6.753   3.231   8.919  0.0368 -1.6882 -2.4175
   99OSM   H15G 9967   6.880   3.175   8.802 -0.8040 -1.4713  0.5725
   99OSM   C16F 9968   6.927   3.372   8.874 -0.0065  0.7404  0.2178
   99OSM   H16F 9969   7.030   3.359   8.835 -0.1164 -1.2195  0.4724
   99OSM   H16G 9970   6.909   3.428   8.969  0.6194  1.4171 -0.0605
   99OSM   C17F 9971   6.848   3.450   8.767 -0.9028  0.5377 -0.3662
   99OSM   H17F 9972   6.880   3.556   8.769  1.3753 -0.0674 -1.4873
   99OSM   H17G 9973   6.740   3.438   8.789 -1.1651  0.6526 -1.5385
   99OSM   C18F 9974   6.881   3.393   8.625 -0.5610  0.1072  0.6419
   99OSM   H18F 9975   6.990   3.383   8.605  0.1703  3.9303  1.8664
   99OSM   H18G 9976   6.848   3.472   8.554 -0.2285  0.1676  0.5549
   99OSM   H18H 9977   6.826   3.300   8.599  0.4926 -0.2953 -0.2043
  100OSM      N 9978   1.228   4.950  10.797 -0.1905  0.5280 -0.2521
  100OSM    C15 9979   1.142   5.069  10.780  0.2564 -0.2778  0.0366
  100OSM   H15A 9980   1.122   5.118  10.874  1.0058 -0.2730  0.2036
  100OSM   H15B 9981   1.053   5.050  10.722  0.7505  2.2475 -1.7180
  100OSM   H15C 9982   1.182   5.147  10.717 -0.8770 -0.1667 -0.5698
  100OSM    C14 9983   1.355   5.002  10.855  0.0469 -0.9030 -0.4499
  100OSM   H14A 9984   1.396   5.076  10.788  1.7460 -0.1016  1.3797
  100OSM   H14B 9985   1.427   4.924  10.877 -2.0014 -2.5464  0.8067
  100OSM   H14C 9986   1.329   5.065  10.938  1.5100  0.5983 -1.0809
  100OSM    C13 9987   1.158   4.857  10.891 -0.2720  0.4641  0.5783
  100OSM   H13A 9988   1.149   4.902  10.989 -0.6061 -0.8133  1.1525
  100OSM   H13B 9989   1.214   4.765  10.897 -2.0451 -0.7261 -0.3538
  100OSM   H13C 9990   1.067   4.816  10.849  0.3892 -1.3304  0.8192
  100OSM    C12 9991   1.256   4.890  10.661 -0.5560  0.4645  0.4001
  100OSM   H12A 9992   1.314   4.957  10.599  2.3670 -1.1327  1.2137
  100OSM   H12B 9993   1.163   4.877  10.607  0.3471 -1.1561 -0.8286
  100OSM    C11 9994   1.339   4.756  10.662 -1.1224 -0.6058 -0.8532
  100OSM   H11A 9995   1.439   4.770  10.708 -1.1658  0.3831 -1.0417
  100OSM   H11B 9996   1.356   4.731  10.555  0.5052 -3.9676  0.0690
  100OSM      P 9997   1.145   4.587  10.679  0.0291 -0.7454  0.1957
  100OSM    O13 9998   1.124   4.459  10.744 -0.3529 -0.0647  0.3013
  100OSM    O14 9999   1.027   4.683  10.684 -0.3241 -0.1265 -0.4052
  100OSM    O1110000   1.175   4.569  10.522 -0.1290  0.0928 -0.7453
  100OSM    O1210001   1.273   4.647  10.731  0.8868  0.1023  0.2278
  100OSM    C1S10002   1.161   4.440  10.464 -0.3182  0.5884  0.4106
  100OSM    H1S10003   1.059   4.395  10.472  0.2666 -1.3052 -1.7943
  100OSM    H1T10004   1.236   4.371  10.507 -0.7131  0.2165  0.5141
  100OSM     NF10005   1.173   4.302  10.256  0.4842  0.2145 -0.2456
  100OSM    HNF10006   1.259   4.257  10.234  0.4626  0.4865 -0.9309
  100OSM    C2S10007   1.184   4.442  10.302 -0.7105  0.1088 -0.3747
  100OSM    H2S10008   1.099   4.499  10.261 -0.6253  1.2016  0.9154
  100OSM    C3S10009   1.314   4.514  10.265  0.2212  0.7414 -0.2811
  100OSM    H3S10010   1.397   4.452  10.306 -0.1664  0.6787  0.4167
  100OSM     O310011   1.333   4.636  10.329  0.3308 -0.3279 -0.1546
  100OSM    HO310012   1.283   4.621  10.410  1.3463 -0.0341  0.5503
  100OSM    C4S10013   1.320   4.529  10.112  0.5931  0.2867  0.0045
  100OSM    H4S10014   1.246   4.592  10.060  0.6894 -0.8255 -1.5561
  100OSM    C5S10015   1.422   4.472  10.044 -0.6348  0.1669  0.2214
  100OSM    H5S10016   1.500   4.418  10.099  0.0454  1.9900  1.1035
  100OSM    C6S10017   1.448   4.490   9.897 -0.3117 -0.0490 -0.0706
  100OSM    H6S10018   1.540   4.552   9.886  0.7104 -1.5953 -0.5157
  100OSM    H6T10019   1.359   4.537   9.851  0.0319 -1.2314 -2.0576
  100OSM    C7S10020   1.475   4.364   9.832 -0.5685  0.5581 -0.5408
  100OSM    H7S10021   1.403   4.285   9.863 -0.1794  0.1431 -0.6970
  100OSM    H7T10022   1.570   4.317   9.864  0.4581  2.4745 -0.6354
  100OSM    C8S10023   1.478   4.383   9.684  0.3328 -0.5387  0.2156
  100OSM    H8S10024   1.539   4.474   9.667 -1.0411  0.7551  1.8121
  100OSM    H8T10025   1.381   4.411   9.637  2.1694 -0.3881 -3.9293
  100OSM    C9S10026   1.563   4.269   9.611  0.2643  0.1333 -0.1263
  100OSM    H9S10027   1.522   4.170   9.642  0.7277  0.4602  1.6752
  100OSM    H9T10028   1.669   4.254   9.642 -0.6616 -3.9815  1.7833
  100OSM   C10S10029   1.564   4.290   9.457 -0.1500  0.0863 -0.9581
  100OSM   H10S10030   1.458   4.289   9.423 -1.1354 -2.6338  1.7930
  100OSM   H10T10031   1.618   4.216   9.395  0.1807  1.2611 -2.1339
  100OSM   C11S10032   1.628   4.431   9.410  0.3035  0.0954 -0.0744
  100OSM   H11S10033   1.739   4.426   9.413  0.2716 -2.6016 -1.2135
  100OSM   H11T10034   1.592   4.522   9.463 -0.2266 -0.4505  0.5290
  100OSM   C12S10035   1.579   4.457   9.266 -0.2467 -0.6157  0.3978
  100OSM   H12S10036   1.624   4.555   9.238 -1.2528 -0.1915  0.2315
  100OSM   H12T10037   1.469   4.469   9.268 -0.2839 -0.9743  0.5639
  100OSM   C13S10038   1.628   4.359   9.158  0.2075 -0.4475 -0.1032
  100OSM   H13S10039   1.591   4.259   9.189  0.8032 -0.7888 -0.4752
  100OSM   H13T10040   1.738   4.374   9.148  0.2797 -1.9170 -2.1470
  100OSM   C14S10041   1.565   4.390   9.024 -0.9678 -0.0763  0.4147
  100OSM   H14S10042   1.564   4.500   9.007 -1.4546  0.1155  1.5901
  100OSM   H14T10043   1.465   4.345   9.012 -1.2102  0.7402 -0.9393
  100OSM   C15S10044   1.642   4.329   8.902  0.6870 -0.1144 -0.1883
  100OSM   H15S10045   1.605   4.225   8.890  0.4663 -0.0660  0.0722
  100OSM   H15T10046   1.752   4.329   8.917  0.5046  0.4939  1.2849
  100OSM   C16S10047   1.609   4.404   8.770  0.2759 -0.1420 -0.0202
  100OSM   H16S10048   1.652   4.506   8.759 -1.7853  0.7303 -0.5755
  100OSM   H16T10049   1.503   4.436   8.778  0.6524  0.9655  0.8286
  100OSM   C17S10050   1.628   4.302   8.653  0.4847 -0.4570 -0.1358
  100OSM   H17S10051   1.619   4.357   8.556 -0.7536 -0.3864 -0.0065
  100OSM   H17T10052   1.540   4.233   8.649  0.4789 -0.5630  1.3726
  100OSM   C18S10053   1.756   4.228   8.652  0.2590 -0.7282 -0.2839
  100OSM   H18S10054   1.749   4.152   8.733  0.1577 -1.3353 -0.8518
  100OSM   H18T10055   1.846   4.289   8.670  0.1609 -0.0746 -1.8552
  100OSM   H18U10056   1.776   4.173   8.558  1.5167 -2.4677  0.9319
  100OSM    C1F10057   1.063   4.232  10.248  0.4069 -0.3771  0.0062
  100OSM     OF10058   0.955   4.294  10.248 -0.3362 -0.4441 -0.2432
  100OSM    C2F10059   1.067   4.083  10.228 -0.3093 -0.2034 -0.9620
  100OSM    H2F10060   1.017   4.038  10.316  0.7920  3.4006  1.7593
  100OSM    H2G10061   1.173   4.050  10.224  0.2273  1.2573  0.1847
  100OSM    C3F10062   0.988   4.034  10.101 -0.1636  0.0316 -1.0242
  100OSM    H3F10063   0.885   4.076  10.106 -0.1231  0.5960 -3.6674
  100OSM    H3G10064   0.984   3.924  10.086 -1.7633 -0.3473  1.5169
  100OSM    C4F10065   1.034   4.109   9.970  0.2824  0.3617 -0.3091
  100OSM    H4F10066   1.031   4.220   9.969 -0.0280  0.3552 -1.0203
  100OSM    H4G10067   0.958   4.077   9.894  1.2285 -0.4419 -0.9472
  100OSM    C5F10068   1.170   4.065   9.918 -1.1888  1.0387 -0.4622
  100OSM    H5F10069   1.154   3.956   9.921 -0.5933  0.9775  1.0303
  100OSM    H5G10070   1.241   4.101   9.995  0.7012 -0.6585 -1.3089
  100OSM    C6F10071   1.215   4.094   9.774 -0.1855 -0.5349 -1.2779
  100OSM    H6F10072   1.313   4.052   9.744  0.1836 -0.6026 -0.0422
  100OSM    H6G10073   1.215   4.205   9.762 -0.9777 -0.3877 -0.1007
  100OSM    C7F10074   1.114   4.040   9.662 -0.4508 -0.0613 -0.7040
  100OSM    H7F10075   1.013   4.074   9.692  0.0341  0.6484  0.2009
  100OSM    H7G10076   1.116   3.929   9.654  1.4765 -0.0073 -1.5137
  100OSM    C8F10077   1.144   4.103   9.528  0.9928  0.9190 -0.5458
  100OSM    H8F10078   1.246   4.079   9.491  0.5066  0.6922 -1.7659
  100OSM    H8G10079   1.150   4.214   9.538  1.3105  0.7623  1.3003
  100OSM    C9F10080   1.029   4.073   9.428  0.1257  0.2415 -0.8027
  100OSM    H9F10081   0.928   4.072   9.470  0.6203  3.1491  0.7439
  100OSM   C10F10082   1.048   4.041   9.295 -0.0915 -0.0377 -0.2582
  100OSM   H10F10083   0.964   4.005   9.235 -0.6288  1.3271 -0.3593
  100OSM   C11F10084   1.173   4.038   9.220 -0.4384  0.2724 -0.1293
  100OSM   H11F10085   1.195   3.932   9.195  1.1063  0.6829 -0.6348
  100OSM   H11G10086   1.252   4.091   9.277 -1.6994  4.1513 -1.6155
  100OSM   C12F10087   1.163   4.116   9.079  0.2639  0.2894 -0.2125
  100OSM   H12F10088   1.267   4.140   9.050 -0.0533  0.7325 -1.0504
  100OSM   H12G10089   1.104   4.209   9.097 -1.0813 -0.9933  2.6385
  100OSM   C13F10090   1.091   4.041   8.973  0.5958  0.1968 -0.3443
  100OSM   H13F10091   0.997   4.007   9.020  1.2330 -0.3135  0.5963
  100OSM   H13G10092   1.138   3.944   8.945  0.9214 -0.0888  1.1350
  100OSM   C14F10093   1.049   4.137   8.854 -0.1155 -0.2283  0.0354
  100OSM   H14F10094   1.141   4.142   8.791 -1.0589  1.2036 -1.2906
  100OSM   H14G10095   1.034   4.238   8.897 -0.4525 -0.1046 -0.3696
  100OSM   C15F10096   0.946   4.083   8.765  0.2199  0.3879  0.1725
  100OSM   H15F10097   0.869   4.015   8.808 -2.6327 -0.0030 -4.8385
  100OSM   H15G10098   0.998   4.015   8.694  1.6016  1.2411  0.3189
  100OSM   C16F10099   0.876   4.190   8.690 -0.0023  0.0217  0.5246
  100OSM   H16F10100   0.945   4.254   8.632  1.1062 -1.1756  0.4788
  100OSM   H16G10101   0.830   4.259   8.764 -2.7493 -1.3204  0.1987
  100OSM   C17F10102   0.752   4.159   8.601  0.5371  0.1485  0.0396
  100OSM   H17F10103   0.712   4.251   8.553  0.7166  0.6934  0.9152
  100OSM   H17G10104   0.678   4.116   8.673  0.8355 -0.4561 -0.0151
  100OSM   C18F10105   0.781   4.070   8.492  0.0387 -0.0208 -0.1095
  100OSM   H18F10106   0.683   4.054   8.441 -0.3532  0.8480  0.3634
  100OSM   H18G10107   0.805   3.964   8.514 -0.0442  0.2041  1.1202
  100OSM   H18H10108   0.857   4.106   8.420  0.3790 -2.8370 -1.3221
  101OSM      N10109   3.208   3.503  11.038 -0.4027  0.0020 -0.0901
  101OSM    C1510110   3.242   3.592  10.926  0.4164 -0.7125  0.3202
  101OSM   H15A10111   3.346   3.581  10.898  1.3722  0.0437  3.1353
  101OSM   H15B10112   3.226   3.696  10.951 -0.6970 -1.1994  1.7447
  101OSM   H15C10113   3.175   3.564  10.847  1.1206  0.3824 -0.6965
  101OSM    C1410114   3.208   3.357  11.012  0.3829  0.0274 -0.2121
  101OSM   H14A10115   3.188   3.295  11.098 -0.0428 -1.4618 -1.3410
  101OSM   H14B10116   3.304   3.326  10.974  1.7270  2.6993  0.7688
  101OSM   H14C10117   3.136   3.336  10.935  0.5640  2.1552 -1.0256
  101OSM    C1310118   3.298   3.534  11.150 -0.4862 -0.5267  0.0969
  101OSM   H13A10119   3.396   3.517  11.107 -1.5467 -1.2050 -2.2279
  101OSM   H13B10120   3.282   3.480  11.242  0.2552  1.6105  1.5502
  101OSM   H13C10121   3.296   3.640  11.173 -0.0777 -0.7863  1.4197
  101OSM    C1210122   3.069   3.545  11.077 -0.8975  0.3696  0.0353
  101OSM   H12A10123   3.072   3.640  11.129  0.9038  0.5790 -0.3789
  101OSM   H12B10124   3.046   3.477  11.158  1.0615 -0.1471  0.2187
  101OSM    C1110125   2.958   3.542  10.975 -1.0470  0.5886 -0.0752
  101OSM   H11A10126   2.953   3.630  10.908 -0.4028  0.3494 -0.4383
  101OSM   H11B10127   2.864   3.541  11.036  0.8545 -1.2985  3.0913
  101OSM      P10128   2.846   3.366  10.809 -0.4861 -0.2334  0.0237
  101OSM    O1310129   2.893   3.282  10.694  0.1347 -0.0735 -0.6609
  101OSM    O1410130   2.748   3.306  10.900  0.7046 -0.4818  0.5459
  101OSM    O1110131   2.780   3.493  10.746 -0.8632 -1.1263 -0.4274
  101OSM    O1210132   2.963   3.422  10.896 -0.2875  0.2593  0.7052
  101OSM    C1S10133   2.838   3.558  10.627  0.2832  0.1567  0.9681
  101OSM    H1S10134   2.942   3.525  10.609  1.4317  3.6642  0.4062
  101OSM    H1T10135   2.832   3.669  10.633  0.4717  0.1937  0.4714
  101OSM     NF10136   2.837   3.546  10.370  0.3492 -0.0209 -0.6239
  101OSM    HNF10137   2.783   3.610  10.316  0.2770  1.2420  0.8727
  101OSM    C2S10138   2.766   3.503  10.491  0.2095 -0.0343 -1.1606
  101OSM    H2S10139   2.781   3.393  10.496 -3.1997 -0.5491  0.3508
  101OSM    C3S10140   2.612   3.520  10.478  1.3838  0.1665  0.4024
  101OSM    H3S10141   2.568   3.621  10.492 -0.2451  0.1426 -3.4336
  101OSM     O310142   2.541   3.450  10.576 -0.0643  0.3600 -0.1007
  101OSM    HO310143   2.602   3.429  10.647 -0.8850  1.5701  1.0036
  101OSM    C4S10144   2.560   3.459  10.349  0.6662  0.0341 -0.4857
  101OSM    H4S10145   2.564   3.349  10.347  1.9656  0.0615 -1.9322
  101OSM    C5S10146   2.506   3.524  10.244  0.0726  0.6492  0.2613
  101OSM    H5S10147   2.496   3.633  10.246 -0.8189  0.6004  2.5198
  101OSM    C6S10148   2.448   3.465  10.124  0.1980 -0.4638 -0.7861
  101OSM    H6S10149   2.342   3.498  10.122 -0.0013 -0.9170  0.7316
  101OSM    H6T10150   2.446   3.355  10.137 -0.8944 -0.2554  1.1110
  101OSM    C7S10151   2.514   3.513   9.997 -0.0786  0.7893  0.6076
  101OSM    H7S10152   2.537   3.621  10.011  2.0256  0.3761  0.6310
  101OSM    H7T10153   2.444   3.492   9.914 -0.1207  0.5369  0.7067
  101OSM    C8S10154   2.658   3.454   9.982  0.5222 -0.3071 -0.0708
  101OSM    H8S10155   2.636   3.351   9.947  0.0175 -0.1388 -0.2546
  101OSM    H8T10156   2.712   3.446  10.079  1.6849 -0.7107 -0.7416
  101OSM    C9S10157   2.732   3.539   9.887 -0.5034 -0.5761 -0.3069
  101OSM    H9S10158   2.769   3.634   9.931  2.2599 -1.2910 -0.8562
  101OSM    H9T10159   2.669   3.570   9.801  0.2141  2.9184  0.2881
  101OSM   C10S10160   2.863   3.457   9.848  0.0427  0.3304  0.4630
  101OSM   H10S10161   2.901   3.403   9.937  0.6374 -0.8264 -0.4575
  101OSM   H10T10162   2.928   3.534   9.801 -0.5856  0.2122 -0.6553
  101OSM   C11S10163   2.843   3.361   9.728 -0.1179  0.5267 -0.5605
  101OSM   H11S10164   2.788   3.413   9.646 -1.8598  0.9412  0.8060
  101OSM   H11T10165   2.779   3.273   9.752 -0.6698  1.0470 -0.0679
  101OSM   C12S10166   2.965   3.300   9.674 -0.8768  0.2194  0.3356
  101OSM   H12S10167   2.990   3.223   9.750 -0.9732  0.4343  0.5875
  101OSM   H12T10168   3.043   3.378   9.687 -1.4065  0.6055  1.2381
  101OSM   C13S10169   2.972   3.251   9.526  1.1125  0.1612  0.0660
  101OSM   H13S10170   2.902   3.169   9.503 -1.4844  3.0006 -3.0901
  101OSM   H13T10171   3.076   3.216   9.508  1.1814  1.3548 -2.1257
  101OSM   C14S10172   2.935   3.354   9.414 -0.2042  0.3310  0.0043
  101OSM   H14S10173   3.008   3.437   9.412  0.4591 -0.2689 -1.5123
  101OSM   H14T10174   2.832   3.391   9.436 -0.7326  0.4465 -2.3963
  101OSM   C15S10175   2.918   3.294   9.272 -0.4822 -0.5777 -0.3818
  101OSM   H15S10176   2.879   3.192   9.293 -0.8617 -0.6052 -1.1596
  101OSM   H15T10177   3.015   3.277   9.221  0.4951  1.8106  0.5438
  101OSM   C16S10178   2.814   3.357   9.190  0.1272 -0.7508  0.0078
  101OSM   H16S10179   2.839   3.462   9.166 -3.4329 -0.2813 -2.4798
  101OSM   H16T10180   2.713   3.359   9.236  0.4700 -1.9009  0.8587
  101OSM   C17S10181   2.791   3.281   9.058  0.3404  0.1950  0.0669
  101OSM   H17S10182   2.698   3.316   9.008 -0.4615 -2.0619 -0.1015
  101OSM   H17T10183   2.776   3.175   9.086 -0.2952  0.5195  0.9931
  101OSM   C18S10184   2.911   3.298   8.969  0.3790  0.5677  0.3233
  101OSM   H18S10185   2.951   3.402   8.965 -1.6614  1.3969  0.1514
  101OSM   H18T10186   2.894   3.269   8.863 -0.1614 -0.8515  0.7823
  101OSM   H18U10187   3.000   3.239   8.999 -0.1940 -1.6735 -2.0158
  101OSM    C1F10188   2.960   3.508  10.348  0.2731 -0.5435  0.7385
  101OSM     OF10189   3.010   3.415  10.405 -0.3536  0.4748 -0.2914
  101OSM    C2F10190   3.033   3.579  10.229 -0.1128 -0.4794  0.6437
  101OSM    H2F10191   3.055   3.685  10.255 -3.4950 -0.0510  2.2662
  101OSM    H2G10192   2.960   3.580  10.145  0.6438  1.9288 -0.0789
  101OSM    C3F10193   3.167   3.516  10.184  1.0992 -0.5635 -0.1465
  101OSM    H3F10194   3.238   3.510  10.269  0.8712 -1.7096 -0.0235
  101OSM    H3G10195   3.212   3.585  10.109 -1.1623 -0.9592 -1.9979
  101OSM    C4F10196   3.165   3.374  10.134  0.2047 -0.1022 -0.1024
  101OSM    H4F10197   3.084   3.353  10.061 -0.5030 -0.7667  0.8364
  101OSM    H4G10198   3.145   3.307  10.221  0.1165  2.5142  1.9995
  101OSM    C5F10199   3.291   3.325  10.064  0.2136  0.0623 -0.3114
  101OSM    H5F10200   3.287   3.214  10.074 -2.0457  0.2149  1.1225
  101OSM    H5G10201   3.374   3.368  10.125  0.8907  1.9191 -2.4008
  101OSM    C6F10202   3.298   3.373   9.917 -0.0157 -0.2382 -0.4143
  101OSM    H6F10203   3.221   3.324   9.854  1.7963 -1.7115 -1.5459
  101OSM    H6G10204   3.277   3.482   9.924  0.2162 -0.2506  0.6375
  101OSM    C7F10205   3.437   3.357   9.865  0.5857  0.0727  0.6850
  101OSM    H7F10206   3.508   3.402   9.937  1.1576  0.3415 -0.0328
  101OSM    H7G10207   3.461   3.407   9.768 -0.4571 -3.3143 -1.4963
  101OSM    C8F10208   3.464   3.212   9.807  0.4591  0.0010 -0.1064
  101OSM    H8F10209   3.473   3.153   9.901  3.7087  0.9676  0.3237
  101OSM    H8G10210   3.563   3.217   9.756  1.1171  1.1161  1.2058
  101OSM    C9F10211   3.345   3.149   9.729 -0.5345  0.2480  0.1566
  101OSM    H9F10212   3.267   3.118   9.800  0.8964  1.3617  2.3245
  101OSM   C10F10213   3.345   3.135   9.593 -0.3564 -0.0070  0.1521
  101OSM   H10F10214   3.257   3.083   9.551 -1.2626  0.3689  1.5137
  101OSM   C11F10215   3.448   3.183   9.496 -0.0386 -0.0976  0.1943
  101OSM   H11F10216   3.549   3.185   9.543 -0.7706 -2.3448  2.0187
  101OSM   H11G10217   3.417   3.288   9.476 -0.5681 -0.4854 -1.0833
  101OSM   C12F10218   3.469   3.121   9.359 -0.5272  1.1300  0.1794
  101OSM   H12F10219   3.489   3.016   9.392 -0.0602  1.5751  1.3979
  101OSM   H12G10220   3.547   3.173   9.300  2.1296 -0.3655  2.1016
  101OSM   C13F10221   3.337   3.129   9.277 -0.3005  0.3566  0.2652
  101OSM   H13F10222   3.318   3.238   9.268 -3.0327 -0.0338  0.5979
  101OSM   H13G10223   3.247   3.090   9.329  0.6986 -0.3816  1.4854
  101OSM   C14F10224   3.348   3.074   9.137 -0.4699  0.8929  0.2646
  101OSM   H14F10225   3.445   3.104   9.092 -1.5978 -0.2612 -3.3370
  101OSM   H14G10226   3.273   3.110   9.063  0.5239  1.9157 -0.2752
  101OSM   C15F10227   3.349   2.922   9.128 -0.1798 -0.3737 -0.0367
  101OSM   H15F10228   3.265   2.890   9.193 -1.8660  2.5890 -0.6062
  101OSM   H15G10229   3.446   2.889   9.171 -1.2786 -1.9866  1.3634
  101OSM   C16F10230   3.329   2.859   8.990 -0.6750  0.3868  0.3325
  101OSM   H16F10231   3.413   2.893   8.925  0.1119  0.3212  1.3010
  101OSM   H16G10232   3.244   2.918   8.948 -1.1997 -0.5392  0.0567
  101OSM   C17F10233   3.332   2.707   8.975 -0.5005 -0.0647  0.4813
  101OSM   H17F10234   3.248   2.667   9.036  0.2054  1.4875  2.5992
  101OSM   H17G10235   3.427   2.669   9.016  0.5114  1.5499 -0.2785
  101OSM   C18F10236   3.326   2.662   8.830 -0.2403  0.0886 -0.2569
  101OSM   H18F10237   3.225   2.683   8.789 -0.5316 -1.4376 -0.3818
  101OSM   H18G10238   3.346   2.553   8.824 -0.8560 -0.0405 -0.0518
  101OSM   H18H10239   3.399   2.719   8.768  0.0976  0.1859  0.2302
  102OSM      N10240   6.238   6.819  10.891  0.1586  0.2931 -0.3359
  102OSM    C1510241   6.222   6.749  10.766 -0.0516 -0.1643  0.2803
  102OSM   H15A10242   6.278   6.658  10.756  1.2958  0.5166  1.3513
  102OSM   H15B10243   6.253   6.821  10.692 -1.3457 -1.7807 -1.9320
  102OSM   H15C10244   6.123   6.717  10.736  0.4690 -1.3693 -0.2093
  102OSM    C1410245   6.141   6.935  10.890 -0.0784 -0.2932 -0.1800
  102OSM   H14A10246   6.177   7.006  10.817 -0.5653  1.7575  1.4564
  102OSM   H14B10247   6.135   6.961  10.995 -1.5948 -1.0076 -0.0686
  102OSM   H14C10248   6.041   6.897  10.877 -1.1891  2.3257 -0.0222
  102OSM    C1310249   6.195   6.730  11.013  0.6167 -0.3854  0.3195
  102OSM   H13A10250   6.255   6.641  11.020  0.3316 -1.0374 -3.3623
  102OSM   H13B10251   6.098   6.686  10.996 -0.4097  1.5572  0.7836
  102OSM   H13C10252   6.189   6.787  11.104 -1.2934 -2.2175  1.4230
  102OSM    C1210253   6.383   6.864  10.912  0.6757 -0.1827  0.2798
  102OSM   H12A10254   6.442   6.777  10.936  1.0309 -0.3103 -1.0315
  102OSM   H12B10255   6.398   6.931  10.996  1.0582 -1.8380  1.6067
  102OSM    C1110256   6.458   6.933  10.794 -0.0574  0.2656 -0.3647
  102OSM   H11A10257   6.507   6.857  10.729 -0.4403 -0.9365  0.7112
  102OSM   H11B10258   6.541   6.990  10.842  0.2923 -0.3507 -0.2191
  102OSM      P10259   6.401   7.065  10.579 -0.0755 -0.0497  0.1714
  102OSM    O1310260   6.300   7.161  10.541  0.4926 -0.0998 -0.4220
  102OSM    O1410261   6.543   7.108  10.566 -0.0784  0.4014  1.1276
  102OSM    O1110262   6.388   6.935  10.486 -0.3171 -0.6213  0.4238
  102OSM    O1210263   6.376   7.026  10.728  0.1200 -0.0224  0.0122
  102OSM    C1S10264   6.257   6.911  10.430  0.8804 -0.0664  0.4229
  102OSM    H1S10265   6.190   6.998  10.411  2.0861  0.5254 -1.4311
  102OSM    H1T10266   6.190   6.856  10.499 -0.0145  0.6914  0.1815
  102OSM     NF10267   6.138   6.821  10.224  0.2343 -0.0664  0.3662
  102OSM    HNF10268   6.075   6.749  10.253 -0.2663 -0.9691 -2.5867
  102OSM    C2S10269   6.269   6.841  10.291 -0.1088  0.6020  0.0031
  102OSM    H2S10270   6.337   6.904  10.229 -0.1390  0.4534 -0.1802
  102OSM    C3S10271   6.357   6.708  10.306  0.6700  0.0245 -0.5125
  102OSM    H3S10272   6.301   6.637  10.370  1.8442  1.9387  2.9113
  102OSM     O310273   6.483   6.724  10.377  0.0137 -0.2622  0.0773
  102OSM    HO310274   6.470   6.812  10.412 -3.0396 -0.9044  0.9035
  102OSM    C4S10275   6.391   6.653  10.174 -0.1263 -0.2591 -0.2372
  102OSM    H4S10276   6.448   6.729  10.119  1.8132 -1.6365 -0.2360
  102OSM    C5S10277   6.378   6.534  10.115 -0.8705  0.7398 -0.0485
  102OSM    H5S10278   6.341   6.453  10.179  2.3734  1.4066  2.9788
  102OSM    C6S10279   6.440   6.488   9.993 -0.3461 -0.4872  0.0807
  102OSM    H6S10280   6.551   6.488   9.990 -0.3468 -0.7410  0.0533
  102OSM    H6T10281   6.402   6.554   9.912  0.5638  2.5574  1.9565
  102OSM    C7S10282   6.408   6.340   9.960  0.2636  0.0272  0.3581
  102OSM    H7S10283   6.298   6.334   9.976  0.0226  1.2846 -0.6418
  102OSM    H7T10284   6.459   6.290  10.045 -1.5385  0.2305  1.6165
  102OSM    C8S10285   6.453   6.296   9.815  0.4560  0.4363 -0.6940
  102OSM    H8S10286   6.446   6.185   9.816 -1.8540  0.4823  1.4756
  102OSM    H8T10287   6.562   6.313   9.803  0.3198  1.7788 -0.2136
  102OSM    C9S10288   6.377   6.365   9.705 -0.3084  0.7386  0.0541
  102OSM    H9S10289   6.374   6.476   9.714 -2.3988  0.6830  0.5641
  102OSM    H9T10290   6.274   6.326   9.691  0.1881  0.2624 -2.9439
  102OSM   C10S10291   6.430   6.334   9.568  0.8463  0.0229  0.5394
  102OSM   H10S10292   6.453   6.227   9.547 -0.7308  0.0596 -1.7660
  102OSM   H10T10293   6.518   6.399   9.551 -0.8497  2.1440 -0.5940
  102OSM   C11S10294   6.331   6.375   9.455  0.1889 -0.0955  0.2459
  102OSM   H11S10295   6.295   6.478   9.471 -0.6622 -0.6124  1.9229
  102OSM   H11T10296   6.241   6.311   9.466  0.7847 -1.3092 -1.4552
  102OSM   C12S10297   6.363   6.355   9.302  0.2224  0.3284 -0.5336
  102OSM   H12S10298   6.274   6.382   9.243  1.3075  0.3092 -2.2402
  102OSM   H12T10299   6.395   6.248   9.297 -1.0408 -0.0321 -1.2420
  102OSM   C13S10300   6.481   6.450   9.247  0.3366 -0.2551  0.4866
  102OSM   H13S10301   6.573   6.444   9.310  1.2849 -0.7775 -0.9158
  102OSM   H13T10302   6.444   6.555   9.252  1.4640  0.3227 -1.9254
  102OSM   C14S10303   6.516   6.404   9.108  0.3671  0.7844  0.5114
  102OSM   H14S10304   6.421   6.382   9.054  0.2399 -0.6745  1.3013
  102OSM   H14T10305   6.577   6.311   9.111 -1.8690 -0.7923 -0.2918
  102OSM   C15S10306   6.588   6.504   9.014  0.0015 -0.3350 -0.8306
  102OSM   H15S10307   6.620   6.453   8.921  0.7742  0.4535 -1.0066
  102OSM   H15T10308   6.679   6.544   9.064 -1.3101  0.3793  1.0844
  102OSM   C16S10309   6.503   6.628   8.981 -0.5105  0.3742 -0.2501
  102OSM   H16S10310   6.530   6.691   9.069 -2.4705  2.8050 -1.2635
  102OSM   H16T10311   6.394   6.610   8.981 -0.4904  0.2295  0.4260
  102OSM   C17S10312   6.556   6.710   8.857  0.3697  0.2275 -0.0241
  102OSM   H17S10313   6.667   6.723   8.854  0.5604 -1.0717  0.6182
  102OSM   H17T10314   6.492   6.801   8.860  0.7838  0.4891  1.1797
  102OSM   C18S10315   6.509   6.632   8.734 -0.3310 -0.3019 -1.0720
  102OSM   H18S10316   6.400   6.610   8.737 -0.6048  1.0640  0.0025
  102OSM   H18T10317   6.553   6.532   8.714 -1.7744 -0.9808 -0.9855
  102OSM   H18U10318   6.532   6.692   8.643  0.0162 -1.0104 -1.4649
  102OSM    C1F10319   6.076   6.927  10.177 -0.1181  0.3424 -0.5234
  102OSM     OF10320   6.127   7.040  10.187 -0.5479 -0.2733  0.1500
  102OSM    C2F10321   5.939   6.914  10.118 -0.0723  0.1438  0.5146
  102OSM    H2F10322   5.863   6.950  10.190  0.4164  0.5616  0.8246
  102OSM    H2G10323   5.920   6.807  10.093  2.1705  0.0504 -1.0411
  102OSM    C3F10324   5.915   6.994   9.989 -0.0855 -1.1028  0.2727
  102OSM    H3F10325   5.973   6.960   9.900 -1.0436  1.0930 -1.2590
  102OSM    H3G10326   5.936   7.102   9.999  1.2519 -1.3360  0.1257
  102OSM    C4F10327   5.765   6.988   9.949 -1.3211 -0.8340 -0.1806
  102OSM    H4F10328   5.703   7.013  10.038  1.9749  1.5844  1.6506
  102OSM    H4G10329   5.733   6.888   9.914 -3.0276  0.0201 -1.1907
  102OSM    C5F10330   5.726   7.091   9.845 -0.1398  0.2987 -0.0649
  102OSM    H5F10331   5.794   7.061   9.763 -0.4608 -0.5487 -0.0346
  102OSM    H5G10332   5.740   7.196   9.878 -0.1167 -0.4088  2.3712
  102OSM    C6F10333   5.583   7.058   9.794 -0.1921  0.4520  0.2454
  102OSM    H6F10334   5.509   7.077   9.875  0.0714 -0.1770  0.6520
  102OSM    H6G10335   5.556   6.951   9.777  1.3190 -0.2621  1.8874
  102OSM    C7F10336   5.543   7.150   9.677  0.8793 -0.0145  0.3577
  102OSM    H7F10337   5.609   7.136   9.588 -0.5646 -1.7423 -0.5063
  102OSM    H7G10338   5.552   7.259   9.700  3.2673  0.8426 -3.6054
  102OSM    C8F10339   5.397   7.114   9.633 -0.1159 -0.1106  0.0741
  102OSM    H8F10340   5.340   7.101   9.727 -0.2804  0.9129  0.1347
  102OSM    H8G10341   5.379   7.021   9.576 -1.7241 -0.3597  0.9298
  102OSM    C9F10342   5.325   7.224   9.552 -1.1266 -0.0332 -0.2474
  102OSM    H9F10343   5.249   7.267   9.619  0.5183 -0.2971  1.8927
  102OSM   C10F10344   5.345   7.266   9.428  0.1321 -0.6151  0.6926
  102OSM   H10F10345   5.272   7.336   9.384 -0.7066 -1.7923  0.1516
  102OSM   C11F10346   5.445   7.202   9.331  0.1970 -0.3494  0.2612
  102OSM   H11F10347   5.399   7.119   9.273 -0.0571 -1.0822  1.4882
  102OSM   H11G10348   5.533   7.155   9.380  0.0897 -1.2908 -0.4008
  102OSM   C12F10349   5.483   7.301   9.215  0.2650 -0.4053  0.4526
  102OSM   H12F10350   5.556   7.235   9.163 -0.1578 -0.2377 -0.3747
  102OSM   H12G10351   5.540   7.387   9.256 -0.0101  1.4648 -2.7319
  102OSM   C13F10352   5.376   7.342   9.117  0.1277 -0.5514 -0.0255
  102OSM   H13F10353   5.307   7.407   9.174  0.5916 -1.7242  1.9486
  102OSM   H13G10354   5.318   7.260   9.069  0.1215 -0.6356  0.1293
  102OSM   C14F10355   5.436   7.423   8.999 -0.5046 -0.3112 -0.0443
  102OSM   H14F10356   5.511   7.352   8.958  1.0074 -0.1670  2.2928
  102OSM   H14G10357   5.493   7.508   9.043  0.1719 -2.1361  2.8733
  102OSM   C15F10358   5.329   7.467   8.896 -0.4640 -0.6431  0.1816
  102OSM   H15F10359   5.264   7.544   8.943 -0.0759  0.9685 -1.7912
  102OSM   H15G10360   5.275   7.372   8.877  1.8644 -2.2872  1.3775
  102OSM   C16F10361   5.398   7.515   8.769 -0.1433 -0.1376  0.2435
  102OSM   H16F10362   5.491   7.465   8.732 -1.9275 -0.7033 -4.0143
  102OSM   H16G10363   5.421   7.621   8.795  0.1548 -0.2781  0.5621
  102OSM   C17F10364   5.300   7.517   8.651  0.0913 -0.6107 -0.7488
  102OSM   H17F10365   5.310   7.434   8.577  0.5508 -0.8645 -0.4058
  102OSM   H17G10366   5.329   7.605   8.589 -1.8909  0.3886 -0.3496
  102OSM   C18F10367   5.154   7.526   8.688  0.3943  0.6938 -0.5675
  102OSM   H18F10368   5.102   7.574   8.603 -0.1467  0.0987 -0.5829
  102OSM   H18G10369   5.138   7.596   8.773 -0.8872 -1.6114  1.2203
  102OSM   H18H10370   5.103   7.430   8.712  1.5886 -0.6936 -3.1603
  103OSM      N10371   4.923   2.378  11.278 -0.4348 -0.5424 -0.1461
  103OSM    C1510372   4.930   2.272  11.384  1.2074 -0.0844  0.2540
  103OSM   H15A10373   4.831   2.235  11.408  0.5567  1.2015 -0.3461
  103OSM   H15B10374   4.987   2.308  11.468  0.3853 -1.4185  1.4327
  103OSM   H15C10375   4.975   2.186  11.338 -0.0202 -0.9359  0.5850
  103OSM    C1410376   4.870   2.503  11.349 -0.2081 -0.1782 -0.0054
  103OSM   H14A10377   4.848   2.578  11.275 -2.1892  0.2496  0.9620
  103OSM   H14B10378   4.947   2.544  11.413  1.4638 -2.1854 -0.5807
  103OSM   H14C10379   4.780   2.484  11.405 -1.6041 -2.3111 -2.7298
  103OSM    C1310380   5.063   2.401  11.227  0.1475 -0.2925  0.4912
  103OSM   H13A10381   5.112   2.309  11.199 -0.8148 -0.3639 -1.0346
  103OSM   H13B10382   5.132   2.442  11.300  0.3612 -0.6853  0.5142
  103OSM   H13C10383   5.058   2.462  11.138  2.3924 -0.5462  0.1308
  103OSM    C1210384   4.834   2.337  11.161  0.3382 -0.0253  0.3606
  103OSM   H12A10385   4.740   2.301  11.200 -0.3572 -0.8901 -1.9509
  103OSM   H12B10386   4.880   2.252  11.113  0.0949  1.4345 -2.6812
  103OSM    C1110387   4.804   2.440  11.054 -0.8603  0.0584  0.0969
  103OSM   H11A10388   4.758   2.530  11.101 -0.3352  0.7308 -0.6474
  103OSM   H11B10389   4.727   2.395  10.987  0.6829  0.4567 -2.0363
  103OSM      P10390   4.970   2.378  10.867  0.5621  0.3177  0.3264
  103OSM    O1310391   5.097   2.422  10.805  0.0249 -0.4053  0.4531
  103OSM    O1410392   4.970   2.233  10.905 -0.1852 -0.3738  0.0797
  103OSM    O1110393   4.850   2.400  10.768  0.3840 -0.0210  0.2457
  103OSM    O1210394   4.921   2.471  10.979 -0.6267 -0.2493 -0.5365
  103OSM    C1S10395   4.814   2.528  10.709  0.1162  0.0610 -0.1636
  103OSM    H1S10396   4.904   2.576  10.664 -0.9129  0.4468 -1.9008
  103OSM    H1T10397   4.766   2.604  10.775  0.7010  0.3298 -0.0394
  103OSM     NF10398   4.697   2.631  10.515  0.7059 -0.3468  0.3647
  103OSM    HNF10399   4.608   2.672  10.534 -1.0552 -1.8988 -3.6712
  103OSM    C2S10400   4.713   2.507  10.593  0.9613 -0.2788  0.0189
  103OSM    H2S10401   4.749   2.433  10.518 -3.1922 -0.7654 -1.7681
  103OSM    C3S10402   4.576   2.444  10.644 -0.3792 -0.4576 -0.0977
  103OSM    H3S10403   4.525   2.532  10.689  0.5477 -0.5591  1.2169
  103OSM     O310404   4.585   2.344  10.738 -0.6581  0.4703 -0.5427
  103OSM    HO310405   4.676   2.344  10.770 -0.2840 -0.3599 -1.5422
  103OSM    C4S10406   4.503   2.405  10.519 -0.9616 -0.4608 -0.4669
  103OSM    H4S10407   4.463   2.490  10.461 -0.9799 -1.2813 -1.7057
  103OSM    C5S10408   4.442   2.287  10.497  0.6965 -0.1295  0.5430
  103OSM    H5S10409   4.441   2.209  10.574 -1.2366 -1.0391 -0.3169
  103OSM    C6S10410   4.358   2.264  10.380  0.1464 -0.1820  0.0016
  103OSM    H6S10411   4.256   2.234  10.411 -0.2313  1.5597  0.5559
  103OSM    H6T10412   4.397   2.174  10.327 -0.9842 -0.5057 -0.2992
  103OSM    C7S10413   4.331   2.381  10.287 -0.3140  0.0416  0.6104
  103OSM    H7S10414   4.426   2.410  10.240 -0.4483 -0.9504 -0.3167
  103OSM    H7T10415   4.299   2.468  10.348 -0.6634  0.2208  0.1733
  103OSM    C8S10416   4.232   2.352  10.177  0.2801  0.7835  0.5231
  103OSM    H8S10417   4.130   2.364  10.219  0.0651  1.5829 -0.1986
  103OSM    H8T10418   4.238   2.243  10.155 -1.5122  0.1939  2.5809
  103OSM    C9S10419   4.254   2.430  10.043  0.0919  0.2527 -0.2404
  103OSM    H9S10420   4.361   2.455  10.028 -0.1836  1.4737 -0.2486
  103OSM    H9T10421   4.200   2.527  10.049  0.1434  0.3863 -1.6897
  103OSM   C10S10422   4.200   2.353   9.921  0.1768  0.7013 -0.0704
  103OSM   H10S10423   4.093   2.325   9.931  0.5484 -0.9702 -0.4481
  103OSM   H10T10424   4.246   2.253   9.907 -0.1397  0.5436  0.0126
  103OSM   C11S10425   4.215   2.426   9.780 -0.0521  0.2803 -0.1860
  103OSM   H11S10426   4.322   2.447   9.763  0.1024  0.4763  0.9436
  103OSM   H11T10427   4.163   2.524   9.768  0.0185  0.0997 -2.2916
  103OSM   C12S10428   4.176   2.332   9.661  0.2100 -0.0116 -0.3592
  103OSM   H12S10429   4.081   2.282   9.691 -0.0924 -1.3495 -3.2071
  103OSM   H12T10430   4.257   2.263   9.631  1.0597  0.8816 -0.1586
  103OSM   C13S10431   4.137   2.419   9.532  0.4469  0.9129 -0.7387
  103OSM   H13S10432   4.200   2.510   9.527  0.4847  0.8428 -1.6860
  103OSM   H13T10433   4.029   2.446   9.536  0.3709  1.1965 -3.2309
  103OSM   C14S10434   4.177   2.351   9.395  0.6629 -0.5813 -0.3563
  103OSM   H14S10435   4.140   2.418   9.314 -1.0559 -0.1997  0.6886
  103OSM   H14T10436   4.120   2.257   9.377  0.2877 -0.1090 -1.8787
  103OSM   C15S10437   4.325   2.345   9.365  0.0959 -0.1167 -0.0497
  103OSM   H15S10438   4.370   2.288   9.450 -1.0923  0.5406  1.0463
  103OSM   H15T10439   4.363   2.450   9.361 -1.5621  0.6094  1.7824
  103OSM   C16S10440   4.360   2.263   9.241  0.9465  1.0209 -0.6585
  103OSM   H16S10441   4.322   2.159   9.250  0.5504  1.2308  0.1346
  103OSM   H16T10442   4.470   2.263   9.221  1.1488 -0.2381  0.3242
  103OSM   C17S10443   4.284   2.300   9.110  0.5490  0.6144  0.0915
  103OSM   H17S10444   4.291   2.410   9.117 -1.1522  0.6836  1.4874
  103OSM   H17T10445   4.175   2.275   9.111  0.3866  1.1299 -1.6164
  103OSM   C18S10446   4.343   2.244   8.989 -0.2229 -0.1771  0.3086
  103OSM   H18S10447   4.290   2.280   8.899  1.5279 -1.0829 -1.1338
  103OSM   H18T10448   4.342   2.133   8.992  3.3117 -0.3194  0.2091
  103OSM   H18U10449   4.448   2.277   8.972 -1.4024  2.3534 -3.0840
  103OSM    C1F10450   4.787   2.688  10.440 -0.7920  0.2852  0.0401
  103OSM     OF10451   4.890   2.618  10.421 -0.6288 -0.4420  0.3373
  103OSM    C2F10452   4.767   2.833  10.404 -0.0932  0.2351  0.2590
  103OSM    H2F10453   4.865   2.873  10.368  0.2050  0.0094  0.8055
  103OSM    H2G10454   4.740   2.874  10.503 -0.7852  1.3691 -0.3783
  103OSM    C3F10455   4.651   2.848  10.297 -0.1486  0.4067  0.3090
  103OSM    H3F10456   4.651   2.957  10.274 -0.7569  0.1455 -1.0144
  103OSM    H3G10457   4.558   2.817  10.349 -1.2699  0.7257 -1.4083
  103OSM    C4F10458   4.677   2.764  10.167  0.1134  0.7714  0.1255
  103OSM    H4F10459   4.670   2.659  10.201 -1.8699  0.8461  0.1005
  103OSM    H4G10460   4.781   2.780  10.131 -0.3980 -0.1866 -1.9241
  103OSM    C5F10461   4.585   2.798  10.056 -0.2679 -0.5122  0.4629
  103OSM    H5F10462   4.589   2.907  10.035  0.3880 -0.7541 -0.8384
  103OSM    H5G10463   4.480   2.785  10.086 -0.9429  0.5853 -1.2417
  103OSM    C6F10464   4.592   2.731   9.914  0.1908 -0.2594 -0.0773
  103OSM    H6F10465   4.609   2.625   9.942  1.1901 -0.1022 -0.0669
  103OSM    H6G10466   4.682   2.765   9.859  0.0311 -0.4130 -0.4398
  103OSM    C7F10467   4.467   2.743   9.833  0.4496 -0.1102 -0.6051
  103OSM    H7F10468   4.438   2.851   9.829  1.6873  0.3044  0.9180
  103OSM    H7G10469   4.381   2.686   9.875 -0.9362  2.3252  0.0846
  103OSM    C8F10470   4.486   2.700   9.680  0.4745  0.1637  0.0756
  103OSM    H8F10471   4.390   2.659   9.642  1.0700  0.1084 -1.4433
  103OSM    H8G10472   4.551   2.610   9.678 -1.7236 -1.4852 -1.5017
  103OSM    C9F10473   4.537   2.810   9.588 -0.3199 -1.0853  0.4643
  103OSM    H9F10474   4.643   2.833   9.606 -0.9674  2.9316  0.0494
  103OSM   C10F10475   4.473   2.883   9.493  0.2570 -0.7311 -0.5509
  103OSM   H10F10476   4.528   2.952   9.428  0.6250 -0.3601  0.1321
  103OSM   C11F10477   4.331   2.883   9.462 -0.1209  0.3616 -0.3673
  103OSM   H11F10478   4.280   2.959   9.525  1.4237  1.1426 -0.0263
  103OSM   H11G10479   4.286   2.787   9.494  2.4532 -1.0373 -0.6576
  103OSM   C12F10480   4.297   2.903   9.312 -0.4190 -0.2099  0.4133
  103OSM   H12F10481   4.337   2.996   9.266 -0.1120 -0.9603 -0.9062
  103OSM   H12G10482   4.187   2.908   9.300 -0.3130 -0.6346 -0.9870
  103OSM   C13F10483   4.341   2.790   9.217  0.7851  0.5406  0.5225
  103OSM   H13F10484   4.349   2.697   9.278  1.6187  0.2130 -0.0595
  103OSM   H13G10485   4.444   2.809   9.179  1.1819 -0.6786  0.9256
  103OSM   C14F10486   4.256   2.766   9.091  0.1658  0.0081 -0.3318
  103OSM   H14F10487   4.147   2.756   9.114  0.2621 -1.9001 -0.5791
  103OSM   H14G10488   4.286   2.669   9.048 -1.1466 -0.3401 -0.5183
  103OSM   C15F10489   4.273   2.880   8.989  0.3412 -0.5471  0.5954
  103OSM   H15F10490   4.380   2.905   8.973  0.2251 -1.3174 -1.7696
  103OSM   H15G10491   4.219   2.971   9.022 -1.5405 -0.9594 -1.0997
  103OSM   C16F10492   4.211   2.840   8.857 -0.1640  0.4242  0.5067
  103OSM   H16F10493   4.100   2.847   8.864 -0.1217  2.2315 -0.0646
  103OSM   H16G10494   4.244   2.736   8.836  2.6502  1.6196 -1.7177
  103OSM   C17F10495   4.263   2.927   8.737  0.7810  0.1211  0.5950
  103OSM   H17F10496   4.217   2.878   8.649  1.6611 -0.5889  0.5154
  103OSM   H17G10497   4.371   2.913   8.720  0.5561  1.3773 -2.3930
  103OSM   C18F10498   4.240   3.077   8.731  0.3061  0.6575 -0.8462
  103OSM   H18F10499   4.288   3.127   8.818 -0.9577 -0.3585  0.4830
  103OSM   H18G10500   4.131   3.094   8.747 -0.3985 -4.6632  2.5398
  103OSM   H18H10501   4.272   3.123   8.635  0.7020 -0.2508 -1.1571
  104OSM      N10502   0.349   1.819  10.604 -0.8174  0.0174 -0.2960
  104OSM    C1510503   0.225   1.748  10.580 -0.2146  0.6015  0.2436
  104OSM   H15A10504   0.234   1.712  10.478  3.2528  0.1028  0.6355
  104OSM   H15B10505   0.139   1.814  10.581 -0.2888  0.6542 -2.4519
  104OSM   H15C10506   0.214   1.669  10.653  0.3905  0.7048  0.4489
  104OSM    C1410507   0.370   1.923  10.492 -0.0766  0.5238 -0.0537
  104OSM   H14A10508   0.465   1.969  10.513  0.3741  1.1449 -2.9555
  104OSM   H14B10509   0.291   1.997  10.494  0.2100  0.8136  0.7419
  104OSM   H14C10510   0.382   1.872  10.397 -0.3958 -0.3426  0.3614
  104OSM    C1310511   0.321   1.901  10.726 -1.0060  0.3327  0.3317
  104OSM   H13A10512   0.303   1.839  10.813 -2.0092 -0.4173 -0.3882
  104OSM   H13B10513   0.244   1.975  10.715 -1.3949 -0.1164 -0.0501
  104OSM   H13C10514   0.411   1.956  10.751 -0.7898 -0.1095  0.5424
  104OSM    C1210515   0.479   1.740  10.627  0.9628 -0.0385  0.3629
  104OSM   H12A10516   0.559   1.811  10.638  1.6137 -0.5428 -0.9032
  104OSM   H12B10517   0.489   1.685  10.534  0.2722  0.7066 -0.1708
  104OSM    C1110518   0.483   1.640  10.749 -0.6836  0.1730  0.5865
  104OSM   H11A10519   0.392   1.643  10.813 -1.7082  0.4558 -0.8464
  104OSM   H11B10520   0.568   1.680  10.809 -2.5766  3.1886  1.5145
  104OSM      P10521   0.398   1.416  10.650 -0.2817  0.3193 -0.1983
  104OSM    O1310522   0.435   1.271  10.671 -0.2186 -0.8220  0.0595
  104OSM    O1410523   0.270   1.453  10.709 -0.2141  0.8794 -0.3050
  104OSM    O1110524   0.397   1.435  10.490  0.2897 -0.2691  0.4996
  104OSM    O1210525   0.520   1.509  10.693  0.0219 -0.4634 -0.0648
  104OSM    C1S10526   0.356   1.322  10.402 -0.2517 -0.2049  0.0930
  104OSM    H1S10527   0.339   1.228  10.458 -2.2606  0.3377  0.4730
  104OSM    H1T10528   0.439   1.300  10.332  0.0017  1.5206 -0.1929
  104OSM     NF10529   0.204   1.224  10.248  0.2465  0.0137  0.1794
  104OSM    HNF10530   0.220   1.227  10.150 -0.9321 -0.8419 -0.0649
  104OSM    C2S10531   0.225   1.348  10.318 -0.3209 -0.2584  0.4102
  104OSM    H2S10532   0.150   1.373  10.396 -3.2646 -1.3456 -1.8790
  104OSM    C3S10533   0.235   1.482  10.241  0.2836 -0.3131 -0.0184
  104OSM    H3S10534   0.315   1.475  10.165  0.1680  2.4863 -0.5065
  104OSM     O310535   0.269   1.597  10.316  0.3794 -0.6256 -0.2280
  104OSM    HO310536   0.307   1.561  10.396 -1.3685 -1.2510  0.3789
  104OSM    C4S10537   0.104   1.502  10.171 -0.0353 -0.0026  0.0467
  104OSM    H4S10538   0.124   1.504  10.063 -2.2439 -2.1781 -0.5023
  104OSM    C5S10539  -0.026   1.529  10.212 -0.0420  0.2933 -0.3918
  104OSM    H5S10540  -0.044   1.543  10.319  1.4618 -0.9751  0.0650
  104OSM    C6S10541  -0.144   1.556  10.127  0.0463  0.7278  0.3323
  104OSM    H6S10542  -0.165   1.663  10.111  0.5200  0.8854  0.7436
  104OSM    H6T10543  -0.232   1.524  10.188  1.2053 -2.5264  0.5063
  104OSM    C7S10544  -0.151   1.467   9.995 -0.6086  0.3065 -0.1268
  104OSM    H7S10545  -0.170   1.361  10.020 -1.5727  0.8548  1.7137
  104OSM    H7T10546  -0.053   1.463   9.943 -0.1615 -1.6164  0.7987
  104OSM    C8S10547  -0.264   1.521   9.905 -0.2907  0.7879  0.2065
  104OSM    H8S10548  -0.240   1.626   9.880  0.0388  0.8363  0.7068
  104OSM    H8T10549  -0.355   1.513   9.967  0.6519 -0.8479  1.4521
  104OSM    C9S10550  -0.258   1.424   9.778 -0.6900  0.3340 -0.2192
  104OSM    H9S10551  -0.244   1.317   9.803 -0.1094  0.5761  0.5158
  104OSM    H9T10552  -0.171   1.472   9.729 -0.4771 -0.0649 -0.2302
  104OSM   C10S10553  -0.381   1.435   9.681  1.0609  0.2742 -1.4592
  104OSM   H10S10554  -0.401   1.540   9.653 -0.7710 -0.1527 -1.8351
  104OSM   H10T10555  -0.471   1.402   9.737  0.7882 -3.0768 -3.5741
  104OSM   C11S10556  -0.372   1.347   9.558  0.0135 -0.1978  0.1546
  104OSM   H11S10557  -0.318   1.253   9.580  1.2542  0.0102 -1.7657
  104OSM   H11T10558  -0.294   1.401   9.500 -0.6003  0.8172  0.2417
  104OSM   C12S10559  -0.504   1.332   9.477 -0.4224 -0.6488 -0.4547
  104OSM   H12S10560  -0.532   1.432   9.438  1.2484  0.7103  1.5722
  104OSM   H12T10561  -0.575   1.295   9.554 -2.2008  0.2453 -1.5959
  104OSM   C13S10562  -0.484   1.229   9.370 -0.0855  0.1892 -0.3532
  104OSM   H13S10563  -0.451   1.133   9.416 -0.1058 -0.0602 -0.8505
  104OSM   H13T10564  -0.406   1.253   9.295 -0.1809  1.0495 -0.1879
  104OSM   C14S10565  -0.616   1.195   9.293  0.1464  0.0127  0.3694
  104OSM   H14S10566  -0.660   1.289   9.254  2.3269  1.6930  1.6681
  104OSM   H14T10567  -0.679   1.156   9.376  1.5849 -1.1740  0.9532
  104OSM   C15S10568  -0.614   1.084   9.190 -0.4726 -0.4655 -0.5547
  104OSM   H15S10569  -0.718   1.051   9.170 -0.2599 -0.5931 -1.4930
  104OSM   H15T10570  -0.574   0.997   9.246  0.3933  0.3101  0.0657
  104OSM   C16S10571  -0.545   1.112   9.055  0.3191 -0.8226 -0.7983
  104OSM   H16S10572  -0.436   1.118   9.072  0.1315 -0.9417  0.6029
  104OSM   H16T10573  -0.588   1.203   9.007 -1.7864 -1.3152  0.0216
  104OSM   C17S10574  -0.564   0.992   8.966 -0.1807  0.1826 -0.6395
  104OSM   H17S10575  -0.497   1.010   8.879 -2.4793  1.7267 -2.2011
  104OSM   H17T10576  -0.670   0.995   8.933 -0.6332  3.1417  0.6833
  104OSM   C18S10577  -0.514   0.855   9.027  0.6795  0.7321  0.3317
  104OSM   H18S10578  -0.426   0.865   9.094 -0.7395 -0.5731  2.4921
  104OSM   H18T10579  -0.492   0.788   8.942  3.4098 -0.2607  1.6841
  104OSM   H18U10580  -0.599   0.819   9.088 -0.0537  0.7721 -0.6484
  104OSM    C1F10581   0.159   1.117  10.309  0.0726  0.2824 -0.2293
  104OSM     OF10582   0.133   1.121  10.431 -0.3321 -0.0332  0.0383
  104OSM    C2F10583   0.143   0.989  10.227 -0.0454 -0.0436 -0.3831
  104OSM    H2F10584   0.162   1.010  10.120  0.7250  0.6815 -0.1233
  104OSM    H2G10585   0.036   0.961  10.234  0.5070 -2.2121  0.0120
  104OSM    C3F10586   0.228   0.882  10.275 -0.2427 -0.6389 -0.1208
  104OSM    H3F10587   0.207   0.871  10.384 -1.2145  0.9154 -0.1206
  104OSM    H3G10588   0.333   0.909  10.252 -0.8630  1.6849 -0.5061
  104OSM    C4F10589   0.202   0.748  10.217 -0.0687  0.1937  0.0159
  104OSM    H4F10590   0.096   0.718  10.225  0.2885 -0.8015  1.4155
  104OSM    H4G10591   0.269   0.681  10.275  1.2501  0.7205 -0.8311
  104OSM    C5F10592   0.238   0.751  10.065 -0.0887  0.5728 -0.9228
  104OSM    H5F10593   0.346   0.778  10.059  0.2821 -0.7471 -0.6528
  104OSM    H5G10594   0.180   0.809   9.990 -3.2592  0.2757  1.1166
  104OSM    C6F10595   0.225   0.609  10.010 -0.0519  0.7206 -0.6119
  104OSM    H6F10596   0.118   0.581  10.009 -0.2206  1.3122 -2.0467
  104OSM    H6G10597   0.271   0.537  10.081 -0.3696 -2.3097 -3.2520
  104OSM    C7F10598   0.295   0.587   9.874 -0.0669 -0.0032  0.7392
  104OSM    H7F10599   0.405   0.590   9.886  0.3085  1.6854 -2.1126
  104OSM    H7G10600   0.282   0.667   9.798  1.7281 -1.0696 -0.7908
  104OSM    C8F10601   0.263   0.451   9.802 -0.4295 -0.0060 -0.6315
  104OSM    H8F10602   0.285   0.474   9.695 -1.4260  3.0010 -0.2801
  104OSM    H8G10603   0.152   0.444   9.809 -0.3154 -2.6713 -0.7474
  104OSM    C9F10604   0.345   0.333   9.850  0.0388 -0.3258 -0.6606
  104OSM    H9F10605   0.373   0.336   9.957  0.2515 -1.5449 -0.6622
  104OSM   C10F10606   0.382   0.229   9.767 -0.3720  0.3250  0.3186
  104OSM   H10F10607   0.438   0.144   9.809 -1.5075 -2.2825 -2.9632
  104OSM   C11F10608   0.327   0.199   9.627 -0.3229 -0.5066  0.3281
  104OSM   H11F10609   0.253   0.274   9.591  1.4381  0.0546 -2.4544
  104OSM   H11G10610   0.267   0.106   9.628 -0.2388 -0.5706 -0.3567
  104OSM   C12F10611   0.445   0.189   9.518  0.2546 -0.0511  0.5882
  104OSM   H12F10612   0.519   0.108   9.533  0.0957 -0.1352  0.9258
  104OSM   H12G10613   0.502   0.284   9.509  1.6425 -0.9033 -0.0127
  104OSM   C13F10614   0.382   0.166   9.377  0.3708 -0.0813 -0.5877
  104OSM   H13F10615   0.333   0.261   9.346 -0.1519 -0.1015  0.1433
  104OSM   H13G10616   0.299   0.092   9.378  0.7832 -0.5678 -1.3624
  104OSM   C14F10617   0.483   0.114   9.270  0.1236 -0.1822 -0.2331
  104OSM   H14F10618   0.533   0.021   9.306  1.6398  0.7022  0.0561
  104OSM   H14G10619   0.567   0.187   9.271 -0.4326  0.4773  1.5625
  104OSM   C15F10620   0.422   0.076   9.131 -0.3406  0.4815 -1.4061
  104OSM   H15F10621   0.358   0.159   9.092  1.4521  2.1286 -0.9853
  104OSM   H15G10622   0.347  -0.004   9.147 -0.2533 -0.0369 -3.2626
  104OSM   C16F10623   0.523   0.033   9.025  0.4450 -0.5373 -0.4929
  104OSM   H16F10624   0.584  -0.055   9.056  0.6006 -0.0320  0.7052
  104OSM   H16G10625   0.582   0.125   9.011  0.3512 -0.5565 -1.0268
  104OSM   C17F10626   0.454  -0.013   8.890 -0.1930 -0.2892  0.0610
  104OSM   H17F10627   0.408   0.077   8.844  0.8588 -0.3999 -1.2805
  104OSM   H17G10628   0.375  -0.081   8.926 -0.2492 -0.7925 -0.9994
  104OSM   C18F10629   0.543  -0.077   8.788 -0.0713 -0.1535  0.0655
  104OSM   H18F10630   0.485  -0.116   8.702 -0.9689 -1.4782  1.2362
  104OSM   H18G10631   0.591  -0.163   8.840  0.4331  0.5616  0.8187
  104OSM   H18H10632   0.620  -0.002   8.758  0.1034 -0.6426 -0.7304
  105OSM      N10633   2.066   4.859  10.831  0.5425  0.0279 -0.1601
  105OSM    C1510634   2.033   4.715  10.782 -0.9290 -0.7021 -0.1211
  105OSM   H15A10635   2.058   4.642  10.858  0.4992  0.0744  0.1794
  105OSM   H15B10636   2.114   4.694  10.715  1.4799 -0.8453  2.6333
  105OSM   H15C10637   1.938   4.713  10.731 -0.0676  1.9191 -2.0320
  105OSM    C1410638   2.055   4.949  10.721 -0.6984  0.5238  0.8286
  105OSM   H14A10639   2.123   4.909  10.647  0.5988  1.4705  1.4538
  105OSM   H14B10640   2.089   5.046  10.756  2.1659 -0.7527  1.9083
  105OSM   H14C10641   1.956   4.965  10.682 -0.7190 -1.3988 -0.0223
  105OSM    C1310642   1.965   4.895  10.931  0.0127  0.0950 -0.1358
  105OSM   H13A10643   1.869   4.882  10.884  0.1591 -2.2580  0.1074
  105OSM   H13B10644   1.962   4.995  10.972  0.9388 -0.3294  1.0257
  105OSM   H13C10645   1.963   4.833  11.019 -1.6068 -0.9722 -0.8741
  105OSM    C1210646   2.206   4.866  10.891  0.0785 -0.5764  0.2765
  105OSM   H12A10647   2.222   4.789  10.965  3.5592 -1.2469 -0.9655
  105OSM   H12B10648   2.211   4.960  10.943 -1.8917 -1.2383  1.7763
  105OSM    C1110649   2.320   4.868  10.790  0.2123  0.8207  0.3563
  105OSM   H11A10650   2.413   4.887  10.848 -0.1458 -1.7265  1.9327
  105OSM   H11B10651   2.317   4.959  10.727  0.1447  0.7514  0.2576
  105OSM      P10652   2.417   4.627  10.746  0.3415 -0.5890  0.5997
  105OSM    O1310653   2.492   4.665  10.867  0.4823  0.2540 -0.4914
  105OSM    O1410654   2.347   4.499  10.737 -0.2904 -0.0674 -0.0016
  105OSM    O1110655   2.528   4.625  10.633  0.0844 -0.3172 -0.4430
  105OSM    O1210656   2.321   4.751  10.709  0.2351  0.3173 -0.4261
  105OSM    C1S10657   2.574   4.748  10.581  0.3536 -0.2074  0.0342
  105OSM    H1S10658   2.640   4.797  10.656  0.5527  1.7074 -1.3099
  105OSM    H1T10659   2.499   4.828  10.565  1.3781  0.3512 -2.5301
  105OSM     NF10660   2.727   4.855  10.418 -0.1305 -0.6688  0.2052
  105OSM    HNF10661   2.691   4.912  10.344  2.2901 -0.8133 -1.1753
  105OSM    C2S10662   2.652   4.740  10.449  0.1973 -0.0167  0.0176
  105OSM    H2S10663   2.726   4.659  10.466 -0.6349 -0.2452  3.0724
  105OSM    C3S10664   2.558   4.680  10.328 -0.5069 -0.2046  0.3027
  105OSM    H3S10665   2.486   4.758  10.296  2.8867  2.2811 -2.0003
  105OSM     O310666   2.478   4.579  10.372 -0.0001 -0.4246  0.0413
  105OSM    HO310667   2.487   4.579  10.467  3.3872 -1.8273 -0.1398
  105OSM    C4S10668   2.647   4.630  10.213 -0.2432 -0.9343  0.2006
  105OSM    H4S10669   2.712   4.544  10.239 -1.2706 -1.0191  2.7583
  105OSM    C5S10670   2.657   4.695  10.097  0.3920 -0.2299  0.4755
  105OSM    H5S10671   2.601   4.789  10.079 -0.4383 -0.3402  2.3224
  105OSM    C6S10672   2.738   4.655   9.979 -0.4289  0.6260 -0.0328
  105OSM    H6S10673   2.774   4.551   9.994 -3.2406 -0.2432  1.2451
  105OSM    H6T10674   2.829   4.718   9.966  0.4573 -0.8521 -1.3679
  105OSM    C7S10675   2.656   4.671   9.849 -0.1939 -0.0786 -0.9066
  105OSM    H7S10676   2.627   4.778   9.840  2.4688  0.9360  1.2748
  105OSM    H7T10677   2.567   4.605   9.863 -0.5320  0.2828 -1.3062
  105OSM    C8S10678   2.736   4.630   9.727 -0.4818  0.0481  0.2960
  105OSM    H8S10679   2.739   4.519   9.735 -0.7461 -0.2110 -2.4912
  105OSM    H8T10680   2.837   4.675   9.741 -1.1482  1.9562 -0.7043
  105OSM    C9S10681   2.688   4.678   9.589 -0.3564  0.1651 -0.3469
  105OSM    H9S10682   2.716   4.786   9.590  0.8580 -0.1326  1.2652
  105OSM    H9T10683   2.578   4.667   9.582 -0.1644 -1.7571 -0.7917
  105OSM   C10S10684   2.747   4.620   9.464  0.1015 -0.7758 -0.5705
  105OSM   H10S10685   2.722   4.511   9.466 -1.8356 -0.4307 -2.2789
  105OSM   H10T10686   2.856   4.635   9.461 -0.0679  1.0914  0.9383
  105OSM   C11S10687   2.690   4.694   9.332 -0.1547  0.0832  0.4664
  105OSM   H11S10688   2.728   4.798   9.330  0.1320  0.0155  1.5929
  105OSM   H11T10689   2.579   4.692   9.329 -0.1470  0.6728 -1.3620
  105OSM   C12S10690   2.752   4.631   9.202  1.0368 -0.7658 -0.3363
  105OSM   H12S10691   2.783   4.527   9.228 -1.4152 -1.7736 -1.1964
  105OSM   H12T10692   2.847   4.683   9.175 -0.0495  1.6087  0.2684
  105OSM   C13S10693   2.666   4.620   9.076 -0.7193  0.1134  0.0544
  105OSM   H13S10694   2.642   4.721   9.039 -0.9143 -0.0721 -0.3317
  105OSM   H13T10695   2.574   4.559   9.091  0.0580 -1.4124 -1.0753
  105OSM   C14S10696   2.735   4.540   8.955 -0.3865  0.2050  0.1075
  105OSM   H14S10697   2.764   4.439   8.990  0.3593  0.0525 -0.8937
  105OSM   H14T10698   2.830   4.587   8.922 -0.0302 -0.0651  0.7229
  105OSM   C15S10699   2.643   4.527   8.836 -0.3693  0.3368  0.6033
  105OSM   H15S10700   2.542   4.499   8.874 -0.4120  1.8800  1.7359
  105OSM   H15T10701   2.683   4.450   8.768  0.2684  1.9075 -0.8662
  105OSM   C16S10702   2.612   4.649   8.751 -0.5393 -0.1954 -0.2626
  105OSM   H16S10703   2.701   4.697   8.704 -0.2013 -1.5980 -1.0934
  105OSM   H16T10704   2.568   4.724   8.821 -1.7463 -0.1995 -0.9933
  105OSM   C17S10705   2.515   4.627   8.636 -0.2752 -0.5354  1.0306
  105OSM   H17S10706   2.450   4.717   8.634 -0.4096 -0.6052  1.9144
  105OSM   H17T10707   2.443   4.544   8.653 -1.8824  0.2718 -1.2227
  105OSM   C18S10708   2.581   4.602   8.497 -0.4028  0.0874  0.3967
  105OSM   H18S10709   2.600   4.494   8.482  0.8370  0.4423 -0.7681
  105OSM   H18T10710   2.681   4.650   8.495  0.5547 -1.8122  0.8359
  105OSM   H18U10711   2.511   4.644   8.421 -0.9848 -1.3230  0.1235
  105OSM    C1F10712   2.834   4.897  10.485 -0.0364  0.3052  0.2773
  105OSM     OF10713   2.889   4.829  10.569 -0.3341 -0.5438 -0.5523
  105OSM    C2F10714   2.896   5.029  10.444 -0.8866  0.5031 -0.1092
  105OSM    H2F10715   2.937   5.063  10.542 -0.6918  0.5813 -0.2191
  105OSM    H2G10716   2.815   5.094  10.404  0.7825  1.9554 -1.2490
  105OSM    C3F10717   3.015   5.015  10.355 -0.4688 -0.2160  0.8670
  105OSM    H3F10718   3.081   4.946  10.412 -0.7366 -1.7664 -0.6497
  105OSM    H3G10719   3.055   5.118  10.340 -1.7193  0.1625  0.0315
  105OSM    C4F10720   2.990   4.960  10.216 -0.0306  0.0165  1.1138
  105OSM    H4F10721   2.910   5.017  10.164  1.1614 -1.4975 -2.7773
  105OSM    H4G10722   2.953   4.857  10.235  1.2547 -0.9751 -1.3056
  105OSM    C5F10723   3.112   4.954  10.129 -0.0750  0.3852  0.6168
  105OSM    H5F10724   3.137   4.846  10.134  1.4102  0.6883  0.1869
  105OSM    H5G10725   3.206   4.998  10.168  1.8883 -1.8094 -1.4048
  105OSM    C6F10726   3.088   5.007   9.989 -0.2767  0.3979  0.3742
  105OSM    H6F10727   3.180   4.996   9.927  0.4043 -1.0328  1.5736
  105OSM    H6G10728   3.086   5.118   9.990 -0.1309  0.4286 -0.7117
  105OSM    C7F10729   2.964   4.956   9.919  0.7434 -0.0860  0.5578
  105OSM    H7F10730   2.870   4.994   9.964 -1.0571 -2.2832 -1.1687
  105OSM    H7G10731   2.957   4.846   9.928  0.2288 -0.3762 -2.5599
  105OSM    C8F10732   2.960   4.984   9.767 -0.8721 -0.0482  0.0032
  105OSM    H8F10733   2.991   5.087   9.741  3.8792 -1.1566  0.3767
  105OSM    H8G10734   2.854   4.981   9.734 -0.5357 -0.4209 -1.1021
  105OSM    C9F10735   3.045   4.879   9.690  0.0834 -0.7659 -0.3330
  105OSM    H9F10736   3.080   4.787   9.740 -1.0936 -0.9169  0.2469
  105OSM   C10F10737   3.055   4.872   9.553 -0.3613 -0.3456 -0.3842
  105OSM   H10F10738   3.125   4.799   9.512 -0.2767 -0.6644  0.3202
  105OSM   C11F10739   3.008   4.965   9.450  0.2646 -0.7413  0.1249
  105OSM   H11F10740   2.933   5.039   9.486  1.0061 -0.5025  1.2226
  105OSM   H11G10741   2.976   4.916   9.355  0.5022  1.2076 -1.0060
  105OSM   C12F10742   3.126   5.055   9.425 -0.2841 -0.2442 -0.6164
  105OSM   H12F10743   3.217   4.995   9.444  0.5815  0.4349 -2.4199
  105OSM   H12G10744   3.137   5.128   9.508  0.3351 -2.9947  1.8759
  105OSM   C13F10745   3.148   5.094   9.281  0.4874  0.3363  0.2884
  105OSM   H13F10746   3.059   5.153   9.251 -0.1774  0.4861  2.3957
  105OSM   H13G10747   3.147   5.013   9.204 -0.1854  0.6763 -0.0765
  105OSM   C14F10748   3.277   5.181   9.253 -0.4357  0.4125 -0.0460
  105OSM   H14F10749   3.364   5.123   9.292  1.2433  2.1363 -1.0374
  105OSM   H14G10750   3.269   5.270   9.318 -1.3502 -0.1259  0.6064
  105OSM   C15F10751   3.299   5.220   9.108 -0.0181 -0.2591 -0.3746
  105OSM   H15F10752   3.223   5.288   9.066  1.5239  2.9753  1.6710
  105OSM   H15G10753   3.297   5.127   9.048 -1.4856 -1.5219  1.4951
  105OSM   C16F10754   3.427   5.296   9.099  0.3484  0.0108 -0.0327
  105OSM   H16F10755   3.521   5.242   9.124  0.6873  1.0921  1.1467
  105OSM   H16G10756   3.418   5.387   9.161  0.2812  0.4532 -0.6881
  105OSM   C17F10757   3.441   5.359   8.953  0.3626 -0.1010 -0.0018
  105OSM   H17F10758   3.366   5.440   8.941 -0.3636 -0.6344  0.8313
  105OSM   H17G10759   3.412   5.282   8.879 -0.7193  0.3647 -0.0803
  105OSM   C18F10760   3.584   5.418   8.933  0.2917 -0.1757  0.6256
  105OSM   H18F10761   3.581   5.527   8.957  2.9420  0.1449 -0.2080
  105OSM   H18G10762   3.619   5.395   8.830  0.8188 -1.3378  1.0468
  105OSM   H18H10763   3.659   5.370   8.999 -0.3901  1.0272  2.3634
  106OSM      N10764   1.479   4.301  10.803 -0.2436 -0.1050  0.0484
  106OSM    C1510765   1.434   4.316  10.947 -0.0889 -0.3079  0.2650
  106OSM   H15A10766   1.450   4.226  11.003 -1.0539 -0.6372  0.0232
  106OSM   H15B10767   1.332   4.351  10.941  0.7903  2.5373  0.1000
  106OSM   H15C10768   1.498   4.391  10.992 -0.5617  0.2767 -0.0219
  106OSM    C1410769   1.609   4.227  10.814 -0.2944 -0.1483  0.1893
  106OSM   H14A10770   1.597   4.122  10.838  0.3524 -0.0282  1.0587
  106OSM   H14B10771   1.676   4.273  10.884 -0.4073  0.2729  0.0222
  106OSM   H14C10772   1.656   4.246  10.719  0.1158  1.0955  0.6316
  106OSM    C1310773   1.381   4.221  10.731 -0.3246  0.2364 -0.0056
  106OSM   H13A10774   1.295   4.280  10.703  0.5778  1.5621 -0.0682
  106OSM   H13B10775   1.335   4.150  10.798 -0.2245  0.7522  0.6200
  106OSM   H13C10776   1.418   4.168  10.644  1.2907  1.9460 -0.4231
  106OSM    C1210777   1.491   4.442  10.748  0.1139  1.0379  0.0045
  106OSM   H12A10778   1.562   4.492  10.812 -0.2202  0.3475  0.9383
  106OSM   H12B10779   1.395   4.492  10.760  0.9567  2.1683  2.8113
  106OSM    C1110780   1.536   4.457  10.601  0.1126 -0.0639 -0.5885
  106OSM   H11A10781   1.538   4.563  10.565 -1.0607  0.3143  0.4067
  106OSM   H11B10782   1.457   4.411  10.538  1.3984 -0.7979 -1.7319
  106OSM      P10783   1.787   4.474  10.618  0.0448  0.7307 -0.2797
  106OSM    O1310784   1.746   4.561  10.729 -0.4280 -0.3273  0.1261
  106OSM    O1410785   1.904   4.387  10.646  0.4320 -0.4980  0.0373
  106OSM    O1110786   1.806   4.566  10.495 -0.6467  0.0264  0.0514
  106OSM    O1210787   1.658   4.386  10.578  0.5275  0.5588  0.0005
  106OSM    C1S10788   1.848   4.518  10.362  0.2744 -0.3913  0.1037
  106OSM    H1S10789   1.819   4.411  10.356  1.1363 -0.6091 -0.3060
  106OSM    H1T10790   1.957   4.535  10.344  0.3620 -1.4832 -0.4811
  106OSM     NF10791   1.840   4.558  10.123  0.4503  0.0506 -0.6157
  106OSM    HNF10792   1.903   4.625  10.086  0.4515  0.9698  0.9663
  106OSM    C2S10793   1.772   4.600  10.244  0.4658  0.2582 -0.3887
  106OSM    H2S10794   1.666   4.567  10.255 -0.0054  2.2064  1.5744
  106OSM    C3S10795   1.779   4.758  10.258  0.1087  0.5309  0.2605
  106OSM    H3S10796   1.879   4.801  10.234 -0.4914  1.5062 -0.5674
  106OSM     O310797   1.746   4.825  10.381 -0.2441 -0.0759  0.5601
  106OSM    HO310798   1.731   4.747  10.435  1.8818  0.3582  1.8958
  106OSM    C4S10799   1.699   4.820  10.140  0.2484 -1.0717 -0.3011
  106OSM    H4S10800   1.759   4.840  10.049 -0.1799 -1.7592 -0.7487
  106OSM    C5S10801   1.565   4.834  10.134 -0.2884  0.0996  0.0981
  106OSM    H5S10802   1.501   4.805  10.219 -1.1340  0.4241 -0.4171
  106OSM    C6S10803   1.484   4.875  10.015  0.8214 -0.3913 -0.2738
  106OSM    H6S10804   1.425   4.967  10.035  0.1981 -1.1813  1.7523
  106OSM    H6T10805   1.403   4.800  10.001 -0.1432  0.6576 -0.4329
  106OSM    C7S10806   1.560   4.883   9.885  0.3090 -0.3409 -0.6440
  106OSM    H7S10807   1.627   4.796   9.872  0.2148 -0.8177  1.6448
  106OSM    H7T10808   1.630   4.970   9.876 -0.8226  0.4195 -2.9123
  106OSM    C8S10809   1.463   4.904   9.764  0.8293  0.0134 -0.6201
  106OSM    H8S10810   1.416   5.003   9.783  1.3819  0.2583 -0.5030
  106OSM    H8T10811   1.389   4.822   9.773 -0.2321  1.1238  1.1469
  106OSM    C9S10812   1.517   4.914   9.620  0.5972 -0.0800 -0.6241
  106OSM    H9S10813   1.590   4.997   9.616  0.4992  0.0410 -0.0525
  106OSM    H9T10814   1.431   4.939   9.554 -1.3947 -3.2442  0.5325
  106OSM   C10S10815   1.583   4.784   9.572 -0.8096  0.4142 -0.2426
  106OSM   H10S10816   1.500   4.713   9.555 -2.1887  1.5240  1.5080
  106OSM   H10T10817   1.656   4.762   9.653 -0.6780 -1.3067 -0.7898
  106OSM   C11S10818   1.653   4.813   9.439 -0.1968  0.2140 -0.0557
  106OSM   H11S10819   1.712   4.728   9.398 -1.5448 -0.3021 -0.9694
  106OSM   H11T10820   1.733   4.885   9.470  0.8872 -1.3082  0.8045
  106OSM   C12S10821   1.557   4.868   9.332  0.1569  0.4753  0.3837
  106OSM   H12S10822   1.503   4.963   9.355  1.6409  1.5373 -0.3539
  106OSM   H12T10823   1.471   4.799   9.321 -1.8957  2.5387  2.1387
  106OSM   C13S10824   1.625   4.878   9.195 -0.5848  0.3646  1.7906
  106OSM   H13S10825   1.667   4.777   9.174 -1.9700  0.4182 -1.8903
  106OSM   H13T10826   1.705   4.952   9.216  0.3070 -0.1674  0.3964
  106OSM   C14S10827   1.542   4.915   9.071  0.2061  0.2581 -0.7190
  106OSM   H14S10828   1.510   5.019   9.091 -1.1409 -0.1502 -0.6539
  106OSM   H14T10829   1.456   4.844   9.073  1.4000 -1.2383 -0.0853
  106OSM   C15S10830   1.618   4.906   8.947 -0.3477  0.1576  0.0434
  106OSM   H15S10831   1.695   4.986   8.945 -0.9507  0.7945  1.2037
  106OSM   H15T10832   1.551   4.933   8.862  0.9945  1.8905 -0.5426
  106OSM   C16S10833   1.679   4.777   8.908 -0.0097  0.1104 -0.3082
  106OSM   H16S10834   1.604   4.695   8.913 -2.7225  2.4876  1.2521
  106OSM   H16T10835   1.756   4.750   8.983  1.6157  2.4994 -1.0125
  106OSM   C17S10836   1.751   4.790   8.778  0.3496  0.0338 -0.6333
  106OSM   H17S10837   1.806   4.693   8.772 -1.3547 -1.1193  0.9961
  106OSM   H17T10838   1.828   4.869   8.789 -1.0605  1.4873 -0.9119
  106OSM   C18S10839   1.669   4.813   8.652 -0.4271 -0.2537  0.0292
  106OSM   H18S10840   1.653   4.919   8.623 -1.3029 -1.2938 -4.0457
  106OSM   H18T10841   1.577   4.750   8.648 -0.9899  0.5854 -1.1944
  106OSM   H18U10842   1.723   4.790   8.557  0.0242 -0.5027  0.3464
  106OSM    C1F10843   1.827   4.428  10.086 -0.4739  0.3994 -0.5370
  106OSM     OF10844   1.736   4.359  10.125  0.1591  0.5275  0.0534
  106OSM    C2F10845   1.923   4.395   9.975 -0.7567 -0.2243  0.0965
  106OSM    H2F10846   2.014   4.459   9.981  0.2758 -1.3673 -2.2764
  106OSM    H2G10847   1.865   4.412   9.882 -0.5224  0.3039  0.0455
  106OSM    C3F10848   1.971   4.248   9.991 -0.0060 -0.0120 -0.3020
  106OSM    H3F10849   1.888   4.175   9.979  0.4546 -0.9079  1.5873
  106OSM    H3G10850   2.009   4.242  10.095  2.1916  1.0822 -0.9820
  106OSM    C4F10851   2.088   4.210   9.895 -0.1339  0.2787 -0.4154
  106OSM    H4F10852   2.121   4.108   9.923 -0.8399 -1.0450 -3.8894
  106OSM    H4G10853   2.173   4.282   9.896  1.4134 -1.4647 -0.6088
  106OSM    C5F10854   2.043   4.189   9.744  0.9170  0.3805 -0.4220
  106OSM    H5F10855   1.978   4.275   9.717  1.3202  0.5675 -0.8140
  106OSM    H5G10856   1.975   4.102   9.756 -2.5494  3.1756  2.3717
  106OSM    C6F10857   2.150   4.157   9.637 -0.0017 -0.2490  0.4804
  106OSM    H6F10858   2.118   4.079   9.565  2.7348  0.1553 -1.3018
  106OSM    H6G10859   2.236   4.107   9.686 -0.7080 -1.9185  0.0969
  106OSM    C7F10860   2.212   4.277   9.554 -0.0134  0.5033 -0.2021
  106OSM    H7F10861   2.180   4.380   9.581 -2.1392  0.2082 -1.3841
  106OSM    H7G10862   2.179   4.277   9.448 -1.4361  0.0774  0.2167
  106OSM    C8F10863   2.371   4.270   9.560 -0.4009  0.6416 -0.0624
  106OSM    H8F10864   2.401   4.173   9.515 -1.9162  0.1568 -0.0832
  106OSM    H8G10865   2.391   4.264   9.669 -1.6034 -0.4663  0.1311
  106OSM    C9F10866   2.440   4.383   9.498  0.0269  0.0923 -0.6813
  106OSM    H9F10867   2.483   4.453   9.572 -2.0082 -0.2482  0.9130
  106OSM   C10F10868   2.473   4.393   9.365  0.0832 -0.3858 -0.4725
  106OSM   H10F10869   2.526   4.485   9.338  0.6320 -1.1105 -1.9680
  106OSM   C11F10870   2.456   4.293   9.257  0.5095  0.6390  0.7227
  106OSM   H11F10871   2.412   4.200   9.297 -2.5098  1.1332 -1.0895
  106OSM   H11G10872   2.551   4.279   9.201  0.1310 -2.7048  0.7231
  106OSM   C12F10873   2.356   4.340   9.152  0.2085 -0.0911 -0.4024
  106OSM   H12F10874   2.391   4.435   9.107 -2.1310  1.0068 -0.0397
  106OSM   H12G10875   2.258   4.356   9.201  2.1829 -0.1746  4.0393
  106OSM   C13F10876   2.343   4.227   9.054 -0.7194 -0.2588 -0.2419
  106OSM   H13F10877   2.318   4.136   9.112 -0.2301  0.2905  0.8535
  106OSM   H13G10878   2.436   4.203   8.999 -0.7643 -1.7441  0.2847
  106OSM   C14F10879   2.236   4.254   8.941 -0.8797  0.8654 -0.1944
  106OSM   H14F10880   2.137   4.253   8.991 -0.9437 -0.2724 -0.3164
  106OSM   H14G10881   2.242   4.171   8.868 -0.0544  0.6995  0.0431
  106OSM   C15F10882   2.227   4.392   8.874  0.2919 -0.6815  0.1578
  106OSM   H15F10883   2.311   4.406   8.802  1.5060  0.9270  1.7869
  106OSM   H15G10884   2.231   4.465   8.957  1.4451 -0.1154 -0.3703
  106OSM   C16F10885   2.099   4.395   8.789  0.9121 -0.4441 -0.0984
  106OSM   H16F10886   2.006   4.371   8.845  0.1936 -2.6880 -2.0945
  106OSM   H16G10887   2.101   4.318   8.709 -0.3301  0.3207 -0.8884
  106OSM   C17F10888   2.082   4.529   8.728  0.9093 -0.6723  0.0702
  106OSM   H17F10889   2.169   4.574   8.677 -0.1768  0.6838 -0.6779
  106OSM   H17G10890   2.052   4.599   8.808 -0.7854 -1.2938  0.0219
  106OSM   C18F10891   1.953   4.536   8.636  0.5356 -0.0979 -0.0563
  106OSM   H18F10892   1.864   4.489   8.682  0.4787  0.7398  0.7280
  106OSM   H18G10893   1.973   4.477   8.544  2.1160  1.8733 -1.0777
  106OSM   H18H10894   1.931   4.638   8.597 -0.0117 -0.1353  0.1534
  107OSM      N10895   4.506   1.347  10.973 -0.1953 -0.4425  0.4837
  107OSM    C1510896   4.494   1.345  11.119 -0.1850 -0.1140 -0.2902
  107OSM   H15A10897   4.465   1.442  11.157  0.6925 -0.4428  1.3280
  107OSM   H15B10898   4.584   1.314  11.170 -0.2053  0.1546 -0.0883
  107OSM   H15C10899   4.412   1.281  11.149 -0.5223  0.1236 -0.7039
  107OSM    C1410900   4.383   1.406  10.912  0.8288  0.0828 -0.4094
  107OSM   H14A10901   4.388   1.508  10.946 -1.6198 -0.2010  1.0495
  107OSM   H14B10902   4.292   1.361  10.949  1.3568 -1.1738 -0.5831
  107OSM   H14C10903   4.378   1.405  10.804 -2.4409 -1.4152 -0.3600
  107OSM    C1310904   4.627   1.428  10.940 -0.1970  0.0269  0.0711
  107OSM   H13A10905   4.599   1.528  10.970 -2.7027 -0.5789 -0.0248
  107OSM   H13B10906   4.665   1.411  10.840 -1.9920 -3.1527 -0.2030
  107OSM   H13C10907   4.709   1.388  10.998  1.7143 -0.6738 -2.8855
  107OSM    C1210908   4.532   1.202  10.930 -0.2676  0.9234  0.5943
  107OSM   H12A10909   4.616   1.149  10.973 -0.6180 -1.2468 -1.2023
  107OSM   H12B10910   4.551   1.212  10.825  1.6968  0.2416  0.8570
  107OSM    C1110911   4.417   1.102  10.950  0.3126  0.5416  0.3898
  107OSM   H11A10912   4.370   1.093  11.050  1.2094  0.0515  0.7756
  107OSM   H11B10913   4.461   1.002  10.928  0.5815  0.8370 -0.4778
  107OSM      P10914   4.313   1.095  10.701 -0.3447 -0.4994 -0.3380
  107OSM    O1310915   4.311   0.947  10.695 -0.0024 -0.4592 -0.2628
  107OSM    O1410916   4.200   1.169  10.642  0.2976  0.1424 -0.3645
  107OSM    O1110917   4.451   1.146  10.648 -0.0580 -0.0745  0.1473
  107OSM    O1210918   4.314   1.127  10.856  1.0793 -0.7534 -0.7196
  107OSM    C1S10919   4.508   1.129  10.516 -0.7721  0.0220  0.3902
  107OSM    H1S10920   4.484   1.029  10.473 -0.5758 -0.4540  1.3704
  107OSM    H1T10921   4.619   1.131  10.514 -0.7327 -1.3052 -1.1213
  107OSM     NF10922   4.516   1.218  10.292  0.2673 -0.3872  0.1839
  107OSM    HNF10923   4.600   1.254  10.252  0.5217 -0.7745  0.3695
  107OSM    C2S10924   4.472   1.249  10.418 -0.6715  0.1099  0.3504
  107OSM    H2S10925   4.361   1.245  10.411 -0.7179  2.2158 -1.2946
  107OSM    C3S10926   4.527   1.378  10.475  0.3889  0.0852  0.0934
  107OSM    H3S10927   4.633   1.367  10.506  1.2656  3.7587 -1.0341
  107OSM     O310928   4.466   1.418  10.596  0.0625  0.0177 -0.4239
  107OSM    HO310929   4.415   1.340  10.619 -0.1586  0.6703  1.5266
  107OSM    C4S10930   4.515   1.506  10.384 -0.6706  0.5295 -0.2200
  107OSM    H4S10931   4.410   1.522  10.355 -1.0472  0.7001  1.1406
  107OSM    C5S10932   4.612   1.591  10.352 -0.5597 -0.3196 -0.2229
  107OSM    H5S10933   4.717   1.568  10.374 -0.4989  1.8235  2.1291
  107OSM    C6S10934   4.599   1.719  10.264  0.1317 -0.0803 -0.0513
  107OSM    H6S10935   4.696   1.737  10.214  0.0048  0.2688 -0.1732
  107OSM    H6T10936   4.580   1.808  10.326 -1.2027  0.1269 -0.7207
  107OSM    C7S10937   4.483   1.722  10.161 -0.2043 -0.4239 -0.1626
  107OSM    H7S10938   4.391   1.679  10.206 -1.5050  2.1688 -0.2098
  107OSM    H7T10939   4.506   1.649  10.080  1.0793 -1.3405  0.9846
  107OSM    C8S10940   4.467   1.861  10.105 -0.6973 -0.3522 -0.2091
  107OSM    H8S10941   4.570   1.893  10.075 -0.8862  0.8850  0.3760
  107OSM    H8T10942   4.432   1.925  10.188 -0.5940 -0.1555 -0.3153
  107OSM    C9S10943   4.371   1.875   9.985 -0.2077 -0.2481  1.1110
  107OSM    H9S10944   4.270   1.839  10.012 -1.1737  0.7595 -0.9358
  107OSM    H9T10945   4.394   1.792   9.914 -0.8022 -1.1065  1.9008
  107OSM   C10S10946   4.361   2.014   9.924 -0.1804 -0.3170  0.2599
  107OSM   H10S10947   4.341   2.100   9.991  0.6057  1.5696 -1.7945
  107OSM   H10T10948   4.278   2.021   9.850 -0.6013  2.2694  0.8841
  107OSM   C11S10949   4.494   2.062   9.862 -0.8438  0.5673 -0.4894
  107OSM   H11S10950   4.557   2.063   9.954 -2.8922 -0.5733  1.0030
  107OSM   H11T10951   4.469   2.162   9.819 -0.2121 -0.2078 -2.8278
  107OSM   C12S10952   4.566   1.981   9.752  0.4865  0.2694 -1.1055
  107OSM   H12S10953   4.584   1.874   9.777  0.8865  0.1261 -1.9638
  107OSM   H12T10954   4.667   2.018   9.727 -0.1143  2.8104 -0.1001
  107OSM   C13S10955   4.494   1.982   9.618 -0.0552 -0.0248 -0.0727
  107OSM   H13S10956   4.465   2.085   9.586  1.4916  0.2365 -0.7080
  107OSM   H13T10957   4.397   1.929   9.607  1.0513 -1.7427 -2.4025
  107OSM   C14S10958   4.592   1.930   9.505  0.4107  0.3419 -0.4291
  107OSM   H14S10959   4.625   1.826   9.528 -1.9027 -0.5936 -1.0497
  107OSM   H14T10960   4.679   1.998   9.498  0.1665  0.6433 -0.5275
  107OSM   C15S10961   4.538   1.923   9.357 -0.2101 -0.5182  0.3151
  107OSM   H15S10962   4.474   2.012   9.346  1.5384  0.7422 -0.0758
  107OSM   H15T10963   4.475   1.832   9.352 -0.1996 -0.5130  0.0518
  107OSM   C16S10964   4.653   1.927   9.247 -0.7869 -0.9236 -0.9501
  107OSM   H16S10965   4.712   1.837   9.274 -0.9686 -0.7351  0.1311
  107OSM   H16T10966   4.714   2.019   9.260 -1.7638 -0.0477 -2.2525
  107OSM   C17S10967   4.602   1.913   9.106 -0.2270  0.6974  0.9331
  107OSM   H17S10968   4.554   2.008   9.074  1.5661  1.1016 -0.8330
  107OSM   H17T10969   4.526   1.832   9.104  1.1790 -0.6593  0.8109
  107OSM   C18S10970   4.715   1.875   9.006 -0.5128 -0.5041  0.3701
  107OSM   H18S10971   4.680   1.865   8.901 -0.3287 -0.6660  0.3239
  107OSM   H18T10972   4.767   1.778   9.018 -0.3297 -0.7920 -2.3150
  107OSM   H18U10973   4.782   1.964   9.001 -2.7965  1.5960  3.0947
  107OSM    C1F10974   4.447   1.132  10.210  0.2385 -0.2974 -0.2797
  107OSM     OF10975   4.331   1.101  10.235 -0.2014  0.5910 -0.0527
  107OSM    C2F10976   4.517   1.080  10.086 -1.0059 -0.5288  0.5289
  107OSM    H2F10977   4.541   0.975  10.111 -1.9358 -0.4069  2.0983
  107OSM    H2G10978   4.611   1.137  10.069  0.3032 -2.4862  0.8623
  107OSM    C3F10979   4.432   1.098   9.958  0.2127 -0.1412 -0.8490
  107OSM    H3F10980   4.411   1.207   9.948 -0.1889  0.1569  2.3167
  107OSM    H3G10981   4.331   1.052   9.965 -0.3874  1.3662  1.1062
  107OSM    C4F10982   4.513   1.051   9.836  0.0414 -0.2618 -0.0716
  107OSM    H4F10983   4.544   0.946   9.856 -0.8469 -0.4726  0.2117
  107OSM    H4G10984   4.614   1.098   9.833  0.8770 -1.9561  0.3009
  107OSM    C5F10985   4.437   1.052   9.702  0.0379 -0.0857  0.3119
  107OSM    H5F10986   4.419   1.161   9.691  1.1084  0.4215  2.8270
  107OSM    H5G10987   4.339   1.001   9.707 -0.4545  0.3182 -2.9598
  107OSM    C6F10988   4.520   1.005   9.578  0.1857  0.4306 -0.2883
  107OSM    H6F10989   4.551   0.899   9.596 -0.6042  0.6817  3.1984
  107OSM    H6G10990   4.617   1.060   9.578 -0.0297  0.8199  0.3166
  107OSM    C7F10991   4.459   1.029   9.437 -0.8789  0.6254  0.3410
  107OSM    H7F10992   4.446   1.138   9.418 -2.1488  0.4514  0.1870
  107OSM    H7G10993   4.357   0.987   9.442 -1.3538  1.6134 -0.7421
  107OSM    C8F10994   4.524   0.958   9.311 -0.8348 -0.2536  0.4372
  107OSM    H8F10995   4.438   0.943   9.242 -1.8889 -1.6377  1.9786
  107OSM    H8G10996   4.577   0.866   9.342 -0.5603 -0.9597 -1.9176
  107OSM    C9F10997   4.634   1.032   9.258 -0.4741 -0.0959  0.9769
  107OSM    H9F10998   4.699   1.085   9.329 -0.9229 -0.2546  1.5090
  107OSM   C10F10999   4.663   1.041   9.122  0.0956 -0.6491 -0.0825
  107OSM   H10F11000   4.747   1.105   9.092 -0.8558  1.3423  1.3452
  107OSM   C11F11001   4.591   0.955   9.018  0.1098 -0.8754 -0.3998
  107OSM   H11F11002   4.485   0.987   9.012 -1.0400 -4.1299  0.2544
  107OSM   H11G11003   4.588   0.849   9.053 -0.5225 -1.3273 -1.7405
  107OSM   C12F11004   4.668   0.974   8.886  0.1904 -0.0736 -0.1811
  107OSM   H12F11005   4.777   0.968   8.906  0.1745 -2.5012 -0.5355
  107OSM   H12G11006   4.653   1.076   8.847 -1.1343  0.1478  0.8499
  107OSM   C13F11007   4.637   0.861   8.788  0.1436 -0.3894  0.0565
  107OSM   H13F11008   4.540   0.892   8.743  0.8560 -0.2200 -1.4359
  107OSM   H13G11009   4.638   0.767   8.847 -0.5343 -0.1497  0.4574
  107OSM   C14F11010   4.737   0.860   8.675  0.2154 -0.3237 -0.1575
  107OSM   H14F11011   4.840   0.828   8.702  0.6272  0.8050 -0.3431
  107OSM   H14G11012   4.741   0.966   8.643  1.7505 -1.2690 -3.4222
  107OSM   C15F11013   4.691   0.782   8.550  0.3092  0.2486 -0.0491
  107OSM   H15F11014   4.614   0.836   8.489 -1.1411 -1.3297  0.3076
  107OSM   H15G11015   4.653   0.688   8.593  0.1017 -0.8877 -2.5412
  107OSM   C16F11016   4.807   0.749   8.458 -0.0857  0.0832  0.4940
  107OSM   H16F11017   4.777   0.664   8.394  0.1871  0.7628 -0.5650
  107OSM   H16G11018   4.896   0.723   8.519  1.1238  2.2486 -0.2372
  107OSM   C17F11019   4.853   0.852   8.354 -0.1605  0.0869  0.0728
  107OSM   H17F11020   4.937   0.801   8.301 -0.9955 -1.8600  0.5370
  107OSM   H17G11021   4.896   0.937   8.412 -1.0841 -0.0898  1.0453
  107OSM   C18F11022   4.751   0.911   8.250  0.2210 -1.0564 -0.5903
  107OSM   H18F11023   4.789   1.006   8.208 -0.3995 -1.8259 -3.0694
  107OSM   H18G11024   4.660   0.929   8.312  1.9606 -1.3715  2.2209
  107OSM   H18H11025   4.730   0.846   8.162 -3.3160 -0.7501 -0.1087
  108OSM      N11026   1.304   3.159  10.858  0.2594  0.2840 -1.4584
  108OSM    C1511027   1.358   3.182  10.999 -0.4649  0.6730  0.7314
  108OSM   H15A11028   1.297   3.130  11.071  1.8063 -0.7558  1.7476
  108OSM   H15B11029   1.352   3.286  11.027 -0.7533  0.8944 -0.1129
  108OSM   H15C11030   1.456   3.137  11.008 -0.4133  0.8591  1.0966
  108OSM    C1411031   1.302   3.013  10.831  0.7609  0.5679  0.5685
  108OSM   H14A11032   1.233   2.959  10.895  0.6165 -0.6939 -0.5952
  108OSM   H14B11033   1.403   2.975  10.837  1.3748  1.7701 -1.2587
  108OSM   H14C11034   1.270   2.999  10.729  1.6586  1.3718  0.1579
  108OSM    C1311035   1.160   3.206  10.859  0.6315 -0.1098 -0.0934
  108OSM   H13A11036   1.119   3.204  10.758  1.7805 -0.8780 -0.5678
  108OSM   H13B11037   1.155   3.309  10.890  1.9558 -0.3426  0.9453
  108OSM   H13C11038   1.100   3.148  10.928 -0.1792  0.6160 -0.1736
  108OSM    C1211039   1.391   3.222  10.754 -0.2011 -0.0655 -0.2430
  108OSM   H12A11040   1.484   3.167  10.755  0.7801  1.5277 -0.8244
  108OSM   H12B11041   1.404   3.328  10.765  1.0236  0.2405 -3.5408
  108OSM    C1111042   1.340   3.214  10.601 -0.8386 -0.4675 -0.3349
  108OSM   H11A11043   1.335   3.104  10.587  1.2385 -0.2766 -3.4789
  108OSM   H11B11044   1.424   3.241  10.534 -1.3114 -1.0960 -1.2022
  108OSM      P11045   1.217   3.438  10.576  0.4296  0.2559  0.3962
  108OSM    O1311046   1.101   3.492  10.649  0.3446 -0.2929 -1.1422
  108OSM    O1411047   1.350   3.488  10.623 -0.1681 -0.2607  0.4778
  108OSM    O1111048   1.198   3.469  10.420  0.5641 -0.1779  0.3323
  108OSM    O1211049   1.215   3.278  10.572 -0.3790 -0.3043 -0.5373
  108OSM    C1S11050   1.323   3.476  10.341  1.1815 -0.0850 -0.2088
  108OSM    H1S11051   1.377   3.380  10.352  1.6915  0.4355  2.2982
  108OSM    H1T11052   1.387   3.565  10.360 -0.2973  0.7800  0.9879
  108OSM     NF11053   1.425   3.465  10.110  0.2830  0.3103  0.0603
  108OSM    HNF11054   1.461   3.542  10.058 -0.4125  0.6166  0.0224
  108OSM    C2S11055   1.297   3.477  10.184  0.2994 -0.2078 -0.0955
  108OSM    H2S11056   1.233   3.390  10.157  0.0710 -0.7183  1.8936
  108OSM    C3S11057   1.219   3.605  10.139 -0.0311 -0.7487 -0.5660
  108OSM    H3S11058   1.277   3.699  10.148 -2.4346  0.9690 -1.9258
  108OSM     O311059   1.100   3.626  10.221 -0.6779  0.6464 -0.8899
  108OSM    HO311060   1.118   3.567  10.294  0.2252  2.1546  0.1726
  108OSM    C4S11061   1.177   3.586   9.995 -0.8743  0.0721 -1.1035
  108OSM    H4S11062   1.254   3.621   9.925  0.5810 -2.1330 -0.6979
  108OSM    C5S11063   1.061   3.533   9.956  0.7510  0.1456  1.0630
  108OSM    H5S11064   0.977   3.516  10.026  0.9921 -3.3213  0.6959
  108OSM    C6S11065   1.015   3.515   9.812 -0.1375 -0.2061 -0.2139
  108OSM    H6S11066   0.913   3.555   9.794  0.0071 -1.0017 -3.5178
  108OSM    H6T11067   1.006   3.405   9.797  0.2464  0.0487 -2.8396
  108OSM    C7S11068   1.109   3.574   9.701 -0.5362 -0.1744 -0.0493
  108OSM    H7S11069   1.208   3.524   9.709 -1.3742 -2.1233 -1.3336
  108OSM    H7T11070   1.123   3.683   9.718 -2.6193  0.3445 -1.2790
  108OSM    C8S11071   1.048   3.539   9.569 -0.8744  0.0708  0.0577
  108OSM    H8S11072   0.951   3.587   9.546 -0.8611 -1.2149 -3.1273
  108OSM    H8T11073   1.033   3.429   9.572 -2.6272  0.2967  0.9892
  108OSM    C9S11074   1.145   3.573   9.464 -0.2238  0.2500  1.2454
  108OSM    H9S11075   1.251   3.550   9.488  0.5113  1.3021 -0.7780
  108OSM    H9T11076   1.145   3.683   9.450 -0.6205  0.0139 -1.0888
  108OSM   C10S11077   1.114   3.503   9.327  0.1575 -0.4200  0.0246
  108OSM   H10S11078   1.015   3.539   9.291  0.1046  0.2225  0.7624
  108OSM   H10T11079   1.123   3.394   9.345 -0.9708 -0.2293  2.1759
  108OSM   C11S11080   1.233   3.548   9.235 -0.1738  0.0640 -0.5496
  108OSM   H11S11081   1.330   3.534   9.287 -0.4944 -2.0919 -0.4561
  108OSM   H11T11082   1.224   3.656   9.209 -1.4434 -0.2492 -1.5753
  108OSM   C12S11083   1.236   3.466   9.103  0.2983 -0.5592 -0.1111
  108OSM   H12S11084   1.140   3.483   9.050  0.9314  2.4808 -0.4562
  108OSM   H12T11085   1.251   3.360   9.133  1.8316  0.0278  1.3516
  108OSM   C13S11086   1.357   3.505   9.017 -0.2418  0.5639 -0.5535
  108OSM   H13S11087   1.449   3.476   9.072 -0.4027  2.7030  0.9997
  108OSM   H13T11088   1.363   3.616   9.007  0.8957  0.6601  0.8835
  108OSM   C14S11089   1.355   3.430   8.875 -0.0221 -0.2755 -0.4514
  108OSM   H14S11090   1.249   3.452   8.850 -0.4132 -1.2681  0.2856
  108OSM   H14T11091   1.363   3.323   8.902  1.9739  0.4583  2.3103
  108OSM   C15S11092   1.447   3.490   8.761 -0.0387 -0.2360  0.1713
  108OSM   H15S11093   1.485   3.589   8.797  3.1436 -1.4779  0.5682
  108OSM   H15T11094   1.390   3.501   8.666  0.2385 -1.4326 -0.1394
  108OSM   C16S11095   1.570   3.407   8.731 -0.5158 -0.0475 -0.7217
  108OSM   H16S11096   1.647   3.457   8.668  1.2132 -0.1077  1.2260
  108OSM   H16T11097   1.527   3.322   8.674 -2.3557 -0.2879  0.9323
  108OSM   C17S11098   1.640   3.353   8.860 -0.6307  0.2138  0.3732
  108OSM   H17S11099   1.575   3.282   8.917 -0.5640  0.6466  0.9933
  108OSM   H17T11100   1.657   3.434   8.933 -3.3438  2.0405 -0.8831
  108OSM   C18S11101   1.771   3.290   8.819  0.4384  0.2305  0.1705
  108OSM   H18S11102   1.807   3.230   8.906  0.3942 -1.1771 -0.7461
  108OSM   H18T11103   1.846   3.368   8.797  1.5776 -0.5839  1.0518
  108OSM   H18U11104   1.754   3.224   8.731  1.8909 -1.0138  0.7772
  108OSM    C1F11105   1.506   3.359  10.123 -0.5087 -0.2112  0.1687
  108OSM     OF11106   1.453   3.252  10.143 -0.2455 -0.2270 -0.2901
  108OSM    C2F11107   1.656   3.378  10.121 -0.5383  0.2804  0.0375
  108OSM    H2F11108   1.681   3.486  10.121  2.0697 -0.2471  1.2381
  108OSM    H2G11109   1.702   3.330  10.033 -2.8757  2.3876 -2.5149
  108OSM    C3F11110   1.717   3.318  10.244 -0.3291  0.5524 -0.5092
  108OSM    H3F11111   1.705   3.208  10.236  0.7276  0.5191 -2.0912
  108OSM    H3G11112   1.662   3.336  10.339 -1.6060 -2.7711 -0.4711
  108OSM    C4F11113   1.865   3.350  10.281  0.3066  0.3999 -0.3818
  108OSM    H4F11114   1.880   3.339  10.391 -3.3827 -2.6402  0.0365
  108OSM    H4G11115   1.894   3.455  10.260  2.9335  0.5088  2.9357
  108OSM    C5F11116   1.974   3.250  10.223  0.5847  0.0532 -0.0278
  108OSM    H5F11117   1.955   3.245  10.113  0.4564  1.0806 -0.0627
  108OSM    H5G11118   1.948   3.154  10.271  1.4894 -0.0459  0.2797
  108OSM    C6F11119   2.118   3.280  10.259  0.3040  0.1735  0.7053
  108OSM    H6F11120   2.122   3.277  10.370 -2.6066 -0.8337  0.8530
  108OSM    H6G11121   2.148   3.385  10.239 -2.3632  0.8258 -0.3318
  108OSM    C7F11122   2.221   3.173  10.203 -0.4016  0.3871 -0.6113
  108OSM    H7F11123   2.181   3.072  10.230 -1.1551  0.7028 -0.5255
  108OSM    H7G11124   2.323   3.182  10.246 -0.4211 -4.3074  1.0805
  108OSM    C8F11125   2.223   3.182  10.049  0.3186 -0.0391  0.0933
  108OSM    H8F11126   2.213   3.292  10.035 -0.5288 -0.0304  0.7156
  108OSM    H8G11127   2.130   3.128  10.021 -2.1427  2.8268  2.0795
  108OSM    C9F11128   2.349   3.119   9.995 -0.2123 -1.0035  0.2772
  108OSM    H9F11129   2.399   3.048  10.063  0.9755  0.9574  1.5463
  108OSM   C10F11130   2.400   3.148   9.871 -0.4615 -0.1918  0.3850
  108OSM   H10F11131   2.502   3.109   9.860 -0.0663  1.3363 -2.2364
  108OSM   C11F11132   2.357   3.240   9.756  0.0476  0.1817  0.1442
  108OSM   H11F11133   2.287   3.316   9.797  0.4590  1.3601 -1.2578
  108OSM   H11G11134   2.310   3.179   9.676 -0.3241 -0.3403  0.7523
  108OSM   C12F11135   2.468   3.317   9.684 -0.0851 -0.3807  0.5202
  108OSM   H12F11136   2.533   3.369   9.757 -0.9961  0.1764  0.9471
  108OSM   H12G11137   2.413   3.391   9.622 -1.8374 -2.6849 -0.8736
  108OSM   C13F11138   2.558   3.237   9.586 -0.7300 -0.2611  0.2049
  108OSM   H13F11139   2.613   3.159   9.644 -0.8230  0.5329  1.3950
  108OSM   H13G11140   2.643   3.297   9.548  0.3367 -2.4092 -1.0295
  108OSM   C14F11141   2.487   3.179   9.463  0.0336 -0.2377  0.0947
  108OSM   H14F11142   2.471   3.260   9.389 -1.9726 -0.8807 -0.2205
  108OSM   H14G11143   2.384   3.154   9.495 -0.2824  1.4751  0.5426
  108OSM   C15F11144   2.567   3.072   9.384  0.1061  0.1372 -0.0805
  108OSM   H15F11145   2.586   2.971   9.426  0.0987  0.2566  0.2105
  108OSM   H15G11146   2.669   3.113   9.367 -0.0130  0.0245 -1.1072
  108OSM   C16F11147   2.484   3.055   9.249  0.2812  0.0605  0.1777
  108OSM   H16F11148   2.469   3.151   9.196 -0.0563  0.2929  0.6879
  108OSM   H16G11149   2.381   3.022   9.275 -0.8341  3.8002  1.1273
  108OSM   C17F11150   2.538   2.946   9.154  0.7234  0.2828 -0.7562
  108OSM   H17F11151   2.563   2.859   9.219  1.1414  0.8079 -0.2048
  108OSM   H17G11152   2.630   2.978   9.100  0.0469  0.8645 -1.5905
  108OSM   C18F11153   2.446   2.923   9.037  0.3438 -0.4764  0.2215
  108OSM   H18F11154   2.354   2.865   9.059  0.6549 -0.8808  0.4752
  108OSM   H18G11155   2.503   2.859   8.966  3.1875 -1.0598  2.7957
  108OSM   H18H11156   2.428   3.018   8.983  1.6306 -0.6015 -0.4871
  109OSM      N11157   1.679   2.514  10.661  0.5871  0.1068  0.1940
  109OSM    C1511158   1.702   2.387  10.576  0.6096 -0.0600 -0.3734
  109OSM   H15A11159   1.695   2.397  10.469 -0.3870  2.4415 -0.1307
  109OSM   H15B11160   1.622   2.320  10.605  0.7788 -0.0460  0.1330
  109OSM   H15C11161   1.802   2.350  10.594  0.5018 -1.1229 -1.7832
  109OSM    C1411162   1.767   2.630  10.615  0.3324  0.4959 -0.8330
  109OSM   H14A11163   1.872   2.606  10.623  0.6277  0.8350 -3.0280
  109OSM   H14B11164   1.745   2.711  10.682 -0.2908  0.4002 -0.9144
  109OSM   H14C11165   1.747   2.662  10.514 -0.5104  0.8563 -0.5596
  109OSM    C1311166   1.535   2.547  10.662  0.6600  0.5411  0.6688
  109OSM   H13A11167   1.505   2.580  10.563 -0.9934  1.0158  1.2946
  109OSM   H13B11168   1.513   2.637  10.718  2.4030  1.8171 -0.5924
  109OSM   H13C11169   1.492   2.461  10.711  1.3345  0.3784  0.9845
  109OSM    C1211170   1.715   2.468  10.799 -0.4804  0.0676  0.0717
  109OSM   H12A11171   1.728   2.551  10.867 -2.4281 -0.3191  0.9737
  109OSM   H12B11172   1.809   2.414  10.801  0.0609  1.0009  0.6863
  109OSM    C1111173   1.611   2.372  10.866 -0.0354  0.6887  0.0446
  109OSM   H11A11174   1.514   2.425  10.882 -1.1115 -1.6011  1.6841
  109OSM   H11B11175   1.662   2.350  10.962  1.9827  0.4886 -1.0128
  109OSM      P11176   1.668   2.124  10.824  0.2822 -0.2226  0.2120
  109OSM    O1311177   1.812   2.146  10.831 -0.5994 -0.6937  0.5823
  109OSM    O1411178   1.595   2.061  10.936  0.6435 -0.4021  0.2793
  109OSM    O1111179   1.646   2.035  10.699  0.1755  0.2640  0.2973
  109OSM    O1211180   1.587   2.255  10.791  0.0378 -0.3496  0.5518
  109OSM    C1S11181   1.515   2.036  10.635  0.3463  0.1123  0.2717
  109OSM    H1S11182   1.484   2.141  10.617 -1.2934 -0.4196 -0.2516
  109OSM    H1T11183   1.434   1.995  10.699  0.6090 -2.0885 -0.6941
  109OSM     NF11184   1.423   1.968  10.404  0.1762 -0.5430 -0.3737
  109OSM    HNF11185   1.344   1.908  10.392 -0.5515 -0.2117  2.2917
  109OSM    C2S11186   1.522   1.937  10.511  0.0973 -0.1022 -0.5672
  109OSM    H2S11187   1.616   1.942  10.452  0.3392 -0.5754 -0.2265
  109OSM    C3S11188   1.516   1.786  10.556 -0.1979 -0.3848 -0.1576
  109OSM    H3S11189   1.422   1.777  10.614  0.2667  0.4982  0.7752
  109OSM     O311190   1.623   1.749  10.638 -0.4192  0.0561 -0.6570
  109OSM    HO311191   1.665   1.828  10.673  2.1990 -1.2360 -0.6658
  109OSM    C4S11192   1.522   1.696  10.438  0.3411  0.4532  0.1825
  109OSM    H4S11193   1.598   1.721  10.362 -0.5007  1.5032 -0.3513
  109OSM    C5S11194   1.437   1.593  10.418  0.7435  0.0935 -0.4117
  109OSM    H5S11195   1.364   1.574  10.498  0.5858  1.4087 -0.2304
  109OSM    C6S11196   1.427   1.498  10.302  0.3002  0.5642  0.2205
  109OSM    H6S11197   1.318   1.484  10.286 -0.1281  2.2353  1.4756
  109OSM    H6T11198   1.486   1.405  10.319  2.6016  2.4230  3.4227
  109OSM    C7S11199   1.477   1.563  10.174 -0.2830  0.1584 -0.5745
  109OSM    H7S11200   1.586   1.580  10.183 -0.4013  0.3866  0.6392
  109OSM    H7T11201   1.440   1.666  10.155  1.1184  0.7397 -0.2661
  109OSM    C8S11202   1.445   1.462  10.067  0.9055 -0.4018 -1.1939
  109OSM    H8S11203   1.334   1.461  10.061  0.8169  1.0550 -0.3959
  109OSM    H8T11204   1.486   1.361  10.086  1.0935  0.1967  2.2685
  109OSM    C9S11205   1.490   1.529   9.940  0.2699 -0.2447 -0.1987
  109OSM    H9S11206   1.600   1.537   9.954  0.6835 -3.4782 -0.8712
  109OSM    H9T11207   1.436   1.626   9.928 -2.0427 -1.5348 -0.8490
  109OSM   C10S11208   1.464   1.441   9.816 -0.0789  0.1432  0.2201
  109OSM   H10S11209   1.359   1.407   9.800  0.6436 -2.1989  0.0268
  109OSM   H10T11210   1.524   1.348   9.823 -0.4131 -0.0259  0.9348
  109OSM   C11S11211   1.501   1.511   9.689  0.0110  0.0682 -0.0024
  109OSM   H11S11212   1.611   1.531   9.682 -0.1640  0.9023 -0.4749
  109OSM   H11T11213   1.455   1.609   9.714 -1.5589 -0.8128  0.6898
  109OSM   C12S11214   1.430   1.459   9.557 -0.1885  0.4002 -1.1043
  109OSM   H12S11215   1.319   1.468   9.567 -0.1149 -0.4491  0.8876
  109OSM   H12T11216   1.469   1.357   9.542  1.7372  0.8967  0.1066
  109OSM   C13S11217   1.459   1.546   9.427  0.7167 -0.1431  0.4816
  109OSM   H13S11218   1.569   1.560   9.424  1.2977 -3.9258 -1.8385
  109OSM   H13T11219   1.417   1.641   9.467  0.0948 -0.6055  0.9515
  109OSM   C14S11220   1.401   1.502   9.297 -0.0043  1.4488 -0.3300
  109OSM   H14S11221   1.292   1.495   9.315 -1.0573  2.9416 -4.8369
  109OSM   H14T11222   1.447   1.401   9.286 -0.2697  1.2223  0.5379
  109OSM   C15S11223   1.436   1.587   9.183 -0.0428 -0.9140  1.0012
  109OSM   H15S11224   1.396   1.549   9.087  0.9253  1.1036 -0.2933
  109OSM   H15T11225   1.544   1.582   9.156 -0.0004  1.9651  0.3176
  109OSM   C16S11226   1.411   1.733   9.211 -0.0654 -1.0916  0.5350
  109OSM   H16S11227   1.459   1.768   9.305  1.2062  2.8219 -1.3601
  109OSM   H16T11228   1.303   1.748   9.233 -0.5470 -1.7924 -1.2038
  109OSM   C17S11229   1.457   1.823   9.101 -0.3214 -0.7387 -0.4805
  109OSM   H17S11230   1.561   1.801   9.067 -0.7291 -2.2609 -0.8138
  109OSM   H17T11231   1.457   1.928   9.137 -0.0029 -1.5786  2.1767
  109OSM   C18S11232   1.371   1.821   8.974 -0.2840  0.2248  0.0705
  109OSM   H18S11233   1.275   1.874   8.988 -0.1691  0.1638  1.2099
  109OSM   H18T11234   1.363   1.719   8.931  2.1170 -0.1438  0.3437
  109OSM   H18U11235   1.428   1.878   8.898  1.1953 -2.3353 -0.8470
  109OSM    C1F11236   1.429   2.083  10.335 -0.1543 -0.3401  0.1492
  109OSM     OF11237   1.522   2.163  10.353  0.6300 -0.3280  0.4683
  109OSM    C2F11238   1.314   2.111  10.229  0.5815 -0.1785 -0.0148
  109OSM    H2F11239   1.263   2.204  10.262  0.9293  1.3379 -3.3550
  109OSM    H2G11240   1.244   2.024  10.223 -0.7267  0.8283  0.0768
  109OSM    C3F11241   1.367   2.143  10.083 -0.3908 -0.1219  0.0756
  109OSM    H3F11242   1.433   2.231  10.090 -1.7296  0.8819  0.4624
  109OSM    H3G11243   1.274   2.185  10.040 -2.5770 -3.3828  1.2402
  109OSM    C4F11244   1.420   2.014  10.011 -0.5517 -0.0560  0.4291
  109OSM    H4F11245   1.477   1.953  10.084  0.4931  0.8988  0.4518
  109OSM    H4G11246   1.484   2.050   9.927 -0.8644 -0.2270  0.1197
  109OSM    C5F11247   1.305   1.925   9.959 -0.0246 -0.1318 -0.6793
  109OSM    H5F11248   1.207   1.976   9.957 -1.4844 -2.7518 -0.4729
  109OSM    H5G11249   1.293   1.831  10.018 -0.5014 -0.0445 -0.6374
  109OSM    C6F11250   1.324   1.895   9.809 -0.1465 -0.3195 -0.1337
  109OSM    H6F11251   1.243   1.828   9.771 -1.6890  0.2952  1.9100
  109OSM    H6G11252   1.423   1.850   9.790  0.6902 -0.0370  3.0010
  109OSM    C7F11253   1.311   2.019   9.710 -0.0045  0.1330 -0.3529
  109OSM    H7F11254   1.395   2.086   9.737  1.7085 -1.4357 -1.4577
  109OSM    H7G11255   1.221   2.081   9.724  0.9053  1.9694 -2.1321
  109OSM    C8F11256   1.340   1.993   9.563  0.1333 -0.4127 -0.0358
  109OSM    H8F11257   1.438   1.945   9.543  0.5839  0.7375 -0.6225
  109OSM    H8G11258   1.353   2.090   9.511 -0.7308  0.7622  1.8452
  109OSM    C9F11259   1.228   1.917   9.496 -0.0013 -0.2609 -0.3719
  109OSM    H9F11260   1.226   1.812   9.527 -3.4942 -0.1917  0.0110
  109OSM   C10F11261   1.135   1.959   9.418  0.3769  1.3439  0.3988
  109OSM   H10F11262   1.065   1.887   9.374 -1.1440  0.6350  3.6946
  109OSM   C11F11263   1.114   2.099   9.376 -0.1233 -0.0637 -0.8312
  109OSM   H11F11264   1.200   2.150   9.425  0.6281 -3.0520  1.1923
  109OSM   H11G11265   1.026   2.150   9.420 -0.7312 -2.0821  0.3905
  109OSM   C12F11266   1.116   2.129   9.223 -0.2544 -0.0246 -0.4379
  109OSM   H12F11267   1.220   2.111   9.187 -0.1473  0.9170 -0.6411
  109OSM   H12G11268   1.093   2.237   9.207  2.2403  0.4194 -1.5417
  109OSM   C13F11269   1.026   2.038   9.135 -0.6673  0.1693 -0.1588
  109OSM   H13F11270   0.920   2.030   9.169 -0.6571 -1.7211 -0.4443
  109OSM   H13G11271   1.063   1.933   9.131 -2.2368 -0.4179 -0.1790
  109OSM   C14F11272   1.040   2.081   8.986 -0.2368  0.2101 -0.3880
  109OSM   H14F11273   0.996   2.000   8.923 -0.1532 -0.5241  0.4834
  109OSM   H14G11274   1.146   2.089   8.953 -0.6075  0.4532 -1.5889
  109OSM   C15F11275   0.965   2.206   8.945 -0.2512 -0.5049 -0.0098
  109OSM   H15F11276   1.015   2.291   8.995 -0.1345 -0.9892  0.7069
  109OSM   H15G11277   0.863   2.198   8.987 -0.6665  0.5361 -0.7812
  109OSM   C16F11278   0.961   2.229   8.786 -0.2365  0.2586 -0.0922
  109OSM   H16F11279   0.917   2.329   8.766 -0.7812  0.3992  1.6369
  109OSM   H16G11280   0.891   2.151   8.748 -0.4681  0.2163  0.4198
  109OSM   C17F11281   1.096   2.210   8.715  0.1579  0.3883  0.0226
  109OSM   H17F11282   1.159   2.124   8.749 -0.1892  0.2975  0.4371
  109OSM   H17G11283   1.152   2.303   8.739  1.2177 -0.3442  0.4946
  109OSM   C18F11284   1.097   2.211   8.558  0.4007 -0.6222 -0.5576
  109OSM   H18F11285   1.121   2.313   8.523  1.3868 -1.0020 -1.0459
  109OSM   H18G11286   0.994   2.189   8.523 -0.4560  1.7229  0.3133
  109OSM   H18H11287   1.163   2.133   8.514  2.3782  1.4570 -1.4536
  110OSM      N11288   1.475   0.495  10.992 -0.3975 -0.2594  0.1495
  110OSM    C1511289   1.607   0.558  11.030 -0.3737  0.0108  0.0838
  110OSM   H15A11290   1.692   0.493  11.019  0.2399  0.8443 -0.2432
  110OSM   H15B11291   1.602   0.603  11.128  0.4251  2.1648 -0.8040
  110OSM   H15C11292   1.626   0.647  10.971  0.1237  0.0047  0.2338
  110OSM    C1411293   1.482   0.445  10.856  0.2997 -0.4226  0.4790
  110OSM   H14A11294   1.566   0.381  10.833 -0.3712 -0.7776 -1.1284
  110OSM   H14B11295   1.503   0.523  10.784 -0.0328  0.4020  1.2610
  110OSM   H14C11296   1.391   0.393  10.831 -0.4369  0.7058  0.7239
  110OSM    C1311297   1.452   0.373  11.075 -0.4475  0.2609 -0.1527
  110OSM   H13A11298   1.359   0.321  11.059  0.0595  0.3482 -4.5076
  110OSM   H13B11299   1.469   0.408  11.176  1.4270  0.7240 -0.5905
  110OSM   H13C11300   1.528   0.299  11.055  1.5130  2.5032 -1.6808
  110OSM    C1211301   1.359   0.602  10.999 -0.0046  0.0185  0.1417
  110OSM   H12A11302   1.380   0.678  10.925 -0.8680  0.8778  0.7643
  110OSM   H12B11303   1.356   0.652  11.094  1.3105 -1.5238  1.0664
  110OSM    C1111304   1.221   0.543  10.965 -0.2938 -0.5831  0.8334
  110OSM   H11A11305   1.155   0.633  10.964  1.2903  0.6325  2.0940
  110OSM   H11B11306   1.190   0.463  11.035 -0.1404 -0.6967  0.7710
  110OSM      P11307   1.123   0.384  10.792 -0.0288  0.3795  0.2322
  110OSM    O1311308   1.202   0.256  10.815  0.0447 -0.5289 -0.4714
  110OSM    O1411309   0.992   0.402  10.853 -0.3925 -0.6204  0.6997
  110OSM    O1111310   1.103   0.393  10.642 -0.0482 -0.5147 -0.1370
  110OSM    O1211311   1.215   0.502  10.826 -0.1349 -0.0328 -0.3278
  110OSM    C1S11312   1.217   0.428  10.558 -0.0099  0.2856 -0.0056
  110OSM    H1S11313   1.310   0.375  10.588 -1.3103 -0.9164  2.1669
  110OSM    H1T11314   1.237   0.536  10.570 -0.9495  0.4054  0.5770
  110OSM     NF11315   1.325   0.390  10.330 -0.1034 -1.3756  0.6160
  110OSM    HNF11316   1.351   0.459  10.262 -0.6136 -0.1378  1.6405
  110OSM    C2S11317   1.196   0.405  10.402  0.0045 -0.3597 -0.5243
  110OSM    H2S11318   1.135   0.313  10.393  0.6801 -0.8066 -0.5980
  110OSM    C3S11319   1.103   0.520  10.342  0.2704 -0.3009  0.1340
  110OSM    H3S11320   1.132   0.617  10.387  0.6069  0.3887 -1.5081
  110OSM     O311321   0.964   0.502  10.367 -0.8007 -0.4724  0.0868
  110OSM    HO311322   0.967   0.432  10.434  1.9027 -1.2244 -0.6660
  110OSM    C4S11323   1.111   0.523  10.191 -0.1968 -0.1408 -0.1986
  110OSM    H4S11324   1.053   0.435  10.160 -0.5098 -0.5544  1.4366
  110OSM    C5S11325   1.184   0.609  10.116  0.8787 -0.6371  0.6447
  110OSM    H5S11326   1.241   0.685  10.172 -0.5008 -1.6866  3.6878
  110OSM    C6S11327   1.195   0.602   9.963  0.5066  0.3134 -0.1353
  110OSM    H6S11328   1.195   0.496   9.929  2.9812  0.1404  0.2451
  110OSM    H6T11329   1.296   0.634   9.931 -0.0893  1.4451 -0.9210
  110OSM    C7S11330   1.075   0.682   9.905 -0.4320 -0.0434  0.4559
  110OSM    H7S11331   1.052   0.778   9.956 -0.9909  0.1606 -0.1596
  110OSM    H7T11332   0.978   0.628   9.915 -1.0689  0.4527 -2.2933
  110OSM    C8S11333   1.103   0.725   9.753 -0.4334  0.2582 -0.6057
  110OSM    H8S11334   1.212   0.729   9.734 -0.5663  0.6810 -1.2979
  110OSM    H8T11335   1.066   0.827   9.731  0.9744  0.3075 -3.1248
  110OSM    C9S11336   1.038   0.631   9.642  0.2569  0.1053 -0.5137
  110OSM    H9S11337   0.928   0.630   9.656  0.2136 -1.4807 -0.8107
  110OSM    H9T11338   1.083   0.530   9.653  1.0222  0.5063  0.1349
  110OSM   C10S11339   1.079   0.682   9.508 -0.2806  0.2187 -0.2029
  110OSM   H10S11340   1.190   0.679   9.507 -0.2031 -2.9646  1.9082
  110OSM   H10T11341   1.039   0.783   9.486 -1.7095 -0.2816  0.0389
  110OSM   C11S11342   1.021   0.597   9.390  0.3432  0.8095 -0.0106
  110OSM   H11S11343   0.911   0.595   9.409 -0.2651 -0.4143 -3.0229
  110OSM   H11T11344   1.059   0.493   9.386  1.7206  1.3224 -0.8577
  110OSM   C12S11345   1.055   0.663   9.254 -0.3783 -0.0027 -0.0970
  110OSM   H12S11346   1.022   0.769   9.249 -0.7855 -0.1068  0.3956
  110OSM   H12T11347   1.002   0.606   9.174  4.1845 -3.3556 -1.1482
  110OSM   C13S11348   1.206   0.652   9.216 -0.1665 -0.0526  0.3339
  110OSM   H13S11349   1.223   0.549   9.179 -1.2758 -0.4681  0.9700
  110OSM   H13T11350   1.282   0.682   9.291 -0.5817 -0.8169  1.0615
  110OSM   C14S11351   1.240   0.735   9.086  0.7113 -0.0186  0.2516
  110OSM   H14S11352   1.231   0.840   9.122 -0.4062  0.5856 -1.6546
  110OSM   H14T11353   1.176   0.718   8.997 -0.1322  0.2378  0.7876
  110OSM   C15S11354   1.384   0.724   9.049 -0.9720 -0.1211 -0.1977
  110OSM   H15S11355   1.407   0.615   9.049 -0.8363 -0.0948 -0.8309
  110OSM   H15T11356   1.439   0.784   9.125 -2.3751  1.2102 -0.1812
  110OSM   C16S11357   1.422   0.790   8.917 -0.9062  0.3283  0.1041
  110OSM   H16S11358   1.380   0.893   8.915  0.7332  1.0280 -0.8696
  110OSM   H16T11359   1.394   0.729   8.828  0.7292  1.0632 -0.9622
  110OSM   C17S11360   1.572   0.789   8.893 -0.5688  0.0170  0.0633
  110OSM   H17S11361   1.608   0.685   8.887  0.6577  0.2428  2.4666
  110OSM   H17T11362   1.624   0.826   8.984 -1.8405 -0.9021  1.1967
  110OSM   C18S11363   1.596   0.869   8.767  0.0778  0.3500  0.0702
  110OSM   H18S11364   1.699   0.840   8.735 -0.8629 -0.6922 -2.2877
  110OSM   H18T11365   1.598   0.978   8.788  2.7314  0.4912 -0.5735
  110OSM   H18U11366   1.527   0.855   8.680 -0.1476  1.5801  0.0354
  110OSM    C1F11367   1.404   0.292  10.355 -0.1451 -0.2909 -0.4367
  110OSM     OF11368   1.356   0.191  10.408  0.1616  0.2694  0.4382
  110OSM    C2F11369   1.549   0.299  10.323 -0.4273  0.2999 -0.5512
  110OSM    H2F11370   1.585   0.200  10.359  2.0780  0.9714 -1.0444
  110OSM    H2G11371   1.591   0.377  10.389 -0.5314 -0.6831  0.7223
  110OSM    C3F11372   1.589   0.321  10.178 -0.1839 -0.7903 -0.0330
  110OSM    H3F11373   1.699   0.306  10.171 -0.5402 -3.3602 -1.2509
  110OSM    H3G11374   1.552   0.425  10.161 -1.8782 -1.1658  1.1667
  110OSM    C4F11375   1.518   0.229  10.072 -0.0232  0.4569 -0.0177
  110OSM    H4F11376   1.407   0.220  10.077  0.1275 -1.0434  1.3126
  110OSM    H4G11377   1.541   0.122  10.090 -2.7472 -0.3930 -1.1379
  110OSM    C5F11378   1.556   0.255   9.927 -0.1163  0.0550 -0.3563
  110OSM    H5F11379   1.519   0.170   9.867  2.1642 -1.8946  0.8473
  110OSM    H5G11380   1.666   0.260   9.913 -0.1201  0.7291 -0.1955
  110OSM    C6F11381   1.489   0.382   9.869 -0.6067  0.3728  0.2647
  110OSM    H6F11382   1.542   0.474   9.901  0.5536  0.1003 -0.7877
  110OSM    H6G11383   1.385   0.376   9.908 -1.6292  1.5364 -2.1494
  110OSM    C7F11384   1.488   0.370   9.716 -0.2135  0.6941  0.0738
  110OSM    H7F11385   1.420   0.287   9.688  1.3137  0.5414 -3.8357
  110OSM    H7G11386   1.580   0.320   9.678  0.2605  0.5953  1.2944
  110OSM    C8F11387   1.454   0.490   9.641  0.0230  0.0104  0.3034
  110OSM    H8F11388   1.362   0.533   9.686  1.2673  1.7508  1.2909
  110OSM    H8G11389   1.431   0.477   9.533 -0.9463  0.6995  0.4118
  110OSM    C9F11390   1.561   0.596   9.659 -0.2862  0.3757  0.7969
  110OSM    H9F11391   1.563   0.658   9.749  4.6116  1.0635  0.4977
  110OSM   C10F11392   1.667   0.608   9.579 -0.0512 -0.0570  0.4730
  110OSM   H10F11393   1.743   0.680   9.615 -0.8638  0.7559  0.5922
  110OSM   C11F11394   1.697   0.529   9.455 -0.1377 -0.1402  0.3300
  110OSM   H11F11395   1.636   0.436   9.462 -1.5894  0.8418  1.3872
  110OSM   H11G11396   1.806   0.513   9.455 -0.2938 -1.3374  1.4873
  110OSM   C12F11397   1.660   0.604   9.327  0.0764  0.4666 -0.2808
  110OSM   H12F11398   1.674   0.714   9.336 -1.0238  0.4367  4.2543
  110OSM   H12G11399   1.556   0.583   9.295 -0.9745  1.8290  2.0012
  110OSM   C13F11400   1.750   0.568   9.207  0.4298 -0.0929  0.5040
  110OSM   H13F11401   1.705   0.632   9.129 -1.1502 -2.9987 -1.1145
  110OSM   H13G11402   1.733   0.462   9.180 -0.9862 -0.0033  0.9894
  110OSM   C14F11403   1.896   0.618   9.228  0.2599 -0.2459  0.8639
  110OSM   H14F11404   1.957   0.593   9.317  0.4344  2.5025  1.6147
  110OSM   H14G11405   1.886   0.728   9.244 -0.4039 -0.1498 -0.1042
  110OSM   C15F11406   1.994   0.591   9.112  0.3738  0.4551  0.1279
  110OSM   H15F11407   2.044   0.492   9.102 -1.1103 -0.1487 -2.0925
  110OSM   H15G11408   2.075   0.666   9.124  0.5988  0.2781 -0.2528
  110OSM   C16F11409   1.924   0.617   8.973  0.3666 -0.1438 -0.1651
  110OSM   H16F11410   1.859   0.706   8.987 -0.1384 -0.4919 -0.2909
  110OSM   H16G11411   1.866   0.525   8.953  0.2019 -0.4803  1.7075
  110OSM   C17F11412   2.014   0.649   8.850 -0.2851  0.2959  0.3691
  110OSM   H17F11413   2.102   0.705   8.890  0.7956 -1.9571  1.3016
  110OSM   H17G11414   1.965   0.714   8.775  1.7786  0.6956 -0.6840
  110OSM   C18F11415   2.055   0.516   8.779  0.2771 -1.0421 -0.0152
  110OSM   H18F11416   1.962   0.472   8.737  0.1216 -0.9217  0.2048
  110OSM   H18G11417   2.097   0.446   8.855 -1.1777 -1.3689  0.5136
  110OSM   H18H11418   2.130   0.537   8.700 -1.4386  0.7080 -1.2795
  111OSM      N11419   2.806   5.132  10.979  0.4655 -0.3076  0.6107
  111OSM    C1511420   2.747   5.060  11.094  0.2254  0.0830  0.1298
  111OSM   H15A11421   2.651   5.016  11.073  0.2269 -0.3751  1.0377
  111OSM   H15B11422   2.751   5.118  11.185  0.9154 -0.1738  0.2709
  111OSM   H15C11423   2.812   4.974  11.094  2.2327  1.5111  1.6227
  111OSM    C1411424   2.765   5.274  10.985 -0.2467 -0.8478  0.6475
  111OSM   H14A11425   2.751   5.311  11.086 -0.8619  1.5530 -0.2529
  111OSM   H14B11426   2.669   5.267  10.936 -0.5314 -0.5459  1.1477
  111OSM   H14C11427   2.834   5.338  10.934  0.2148  1.4197  3.7793
  111OSM    C1311428   2.961   5.140  11.000  0.4507  0.1036  0.5527
  111OSM   H13A11429   3.015   5.172  10.912  2.0648 -0.8877  1.1516
  111OSM   H13B11430   2.990   5.038  11.019 -0.7740 -0.7476 -1.7343
  111OSM   H13C11431   2.998   5.199  11.083 -0.7947 -0.2109  1.3575
  111OSM    C1211432   2.773   5.077  10.838  0.2324 -0.0082 -0.4396
  111OSM   H12A11433   2.828   4.984  10.831 -1.6380 -1.3446  1.4240
  111OSM   H12B11434   2.817   5.152  10.774  0.4215  0.6433  0.4351
  111OSM    C1111435   2.625   5.069  10.801 -0.1991 -0.5190 -0.8055
  111OSM   H11A11436   2.566   5.038  10.890 -2.9817  0.3771 -2.2093
  111OSM   H11B11437   2.605   5.000  10.717  0.2247 -1.7133  0.0547
  111OSM      P11438   2.624   5.290  10.641 -0.1112  0.3741  0.4037
  111OSM    O1311439   2.540   5.410  10.641  0.0782  0.2388  0.2004
  111OSM    O1411440   2.770   5.309  10.639  0.1809 -0.2055  0.3763
  111OSM    O1111441   2.589   5.198  10.522  0.1532 -0.2671  0.1896
  111OSM    O1211442   2.584   5.204  10.766 -0.0327  0.1697 -0.1674
  111OSM    C1S11443   2.453   5.140  10.510  0.1488 -0.2382 -0.4922
  111OSM    H1S11444   2.386   5.193  10.582  0.4783  0.6948 -0.8550
  111OSM    H1T11445   2.451   5.030  10.528  3.4251 -0.4740 -1.0740
  111OSM     NF11446   2.243   5.101  10.361  0.5651 -0.6219  0.2734
  111OSM    HNF11447   2.211   5.025  10.306  0.7099 -0.9615  0.6529
  111OSM    C2S11448   2.388   5.136  10.361  0.4999  0.3031  1.4525
  111OSM    H2S11449   2.407   5.240  10.326  0.6816  0.2628  1.4290
  111OSM    C3S11450   2.471   5.040  10.266  0.0149  0.2501 -0.8996
  111OSM    H3S11451   2.465   4.937  10.306 -0.8291  0.4006 -0.6056
  111OSM     O311452   2.613   5.063  10.268  0.4688 -0.4028  0.3284
  111OSM    HO311453   2.642   5.123  10.337  1.9813 -0.3360 -0.3152
  111OSM    C4S11454   2.417   5.036  10.125  0.6242  0.0112  0.0520
  111OSM    H4S11455   2.325   4.975  10.114  1.9791 -1.9302 -1.3502
  111OSM    C5S11456   2.466   5.090  10.010 -0.1367 -0.1222  0.1483
  111OSM    H5S11457   2.566   5.135  10.015 -0.4275  0.6119 -0.3539
  111OSM    C6S11458   2.402   5.090   9.877  0.1070  0.2908  0.1938
  111OSM    H6S11459   2.364   5.191   9.850  2.3148  0.7719 -1.4172
  111OSM    H6T11460   2.314   5.022   9.885  1.3497 -1.3677  0.3028
  111OSM    C7S11461   2.494   5.048   9.752  0.5091 -0.5165 -0.4504
  111OSM    H7S11462   2.499   4.937   9.754  0.5513 -0.5080  0.1845
  111OSM    H7T11463   2.598   5.081   9.769  0.2532 -0.4095  1.0689
  111OSM    C8S11464   2.442   5.106   9.623 -0.4925  0.1308 -0.4076
  111OSM    H8S11465   2.444   5.216   9.610  0.0995  0.0416 -1.1785
  111OSM    H8T11466   2.335   5.085   9.605 -0.3524 -0.5203 -0.5285
  111OSM    C9S11467   2.512   5.037   9.496 -0.1906 -0.2572  0.4800
  111OSM    H9S11468   2.470   4.934   9.488  1.9899 -1.1063 -0.8442
  111OSM    H9T11469   2.619   5.021   9.519 -0.0809 -0.3160 -0.0517
  111OSM   C10S11470   2.501   5.123   9.367 -0.1172 -0.3304 -0.4226
  111OSM   H10S11471   2.548   5.221   9.386 -1.2051  0.1929 -0.3613
  111OSM   H10T11472   2.396   5.141   9.336  0.4561  1.4484 -1.4658
  111OSM   C11S11473   2.561   5.053   9.241  0.6971  0.1251 -0.6753
  111OSM   H11S11474   2.503   5.075   9.149 -1.3742 -1.0335  0.2851
  111OSM   H11T11475   2.547   4.945   9.261 -0.0522  0.3024 -0.2297
  111OSM   C12S11476   2.707   5.081   9.214  0.3240 -0.1217 -0.5290
  111OSM   H12S11477   2.775   5.036   9.291  0.0544 -1.6518 -1.1510
  111OSM   H12T11478   2.733   5.187   9.194 -2.0774  0.5634 -0.2725
  111OSM   C13S11479   2.749   5.008   9.085 -0.2460  0.2565  0.0738
  111OSM   H13S11480   2.695   5.038   8.993 -0.2604  1.6667  0.5068
  111OSM   H13T11481   2.717   4.903   9.101  0.9550  0.0081  1.0760
  111OSM   C14S11482   2.902   5.011   9.060 -0.4992  0.2350 -0.5581
  111OSM   H14S11483   2.963   4.970   9.143 -0.6208 -2.1399 -1.5719
  111OSM   H14T11484   2.932   5.115   9.033  2.8239 -0.3867  0.2942
  111OSM   C15S11485   2.927   4.914   8.942 -0.0092 -0.0440  0.1767
  111OSM   H15S11486   2.847   4.928   8.866  0.1704  3.0145  0.4514
  111OSM   H15T11487   2.921   4.812   8.985  1.3183  0.5093  1.7871
  111OSM   C16S11488   3.063   4.926   8.880 -0.5942  0.2065 -0.3121
  111OSM   H16S11489   3.137   4.942   8.960  1.4642  0.6417 -2.1967
  111OSM   H16T11490   3.070   5.022   8.824 -0.7718 -0.1622 -0.9834
  111OSM   C17S11491   3.120   4.819   8.785  0.3204  0.4000 -0.0699
  111OSM   H17S11492   3.128   4.732   8.855  4.1417  2.2540  2.1540
  111OSM   H17T11493   3.218   4.841   8.739  0.0909  3.6800  0.7608
  111OSM   C18S11494   3.035   4.777   8.670  0.5450  0.3832  0.2116
  111OSM   H18S11495   2.943   4.729   8.710  0.0558 -1.8383 -3.1600
  111OSM   H18T11496   3.083   4.732   8.581 -1.4661 -1.2123 -0.1513
  111OSM   H18U11497   2.995   4.870   8.623 -0.6561 -0.5424 -0.6590
  111OSM    C1F11498   2.146   5.179  10.409 -0.1956 -0.0647 -0.3370
  111OSM     OF11499   2.167   5.288  10.460 -0.5361 -0.3227 -0.7911
  111OSM    C2F11500   2.006   5.128  10.400 -0.0574 -0.4599  0.7673
  111OSM    H2F11501   1.947   5.171  10.484 -1.1524 -1.6762  0.6545
  111OSM    H2G11502   1.998   5.017  10.399 -1.5132 -0.3752  1.1262
  111OSM    C3F11503   1.932   5.185  10.269  0.0670  0.2454 -0.0157
  111OSM    H3F11504   1.961   5.292  10.261  0.0825  0.2001 -0.5870
  111OSM    H3G11505   1.825   5.187  10.296  0.1958 -0.5516  0.6042
  111OSM    C4F11506   1.947   5.105  10.133  0.1274 -0.6573 -0.2336
  111OSM    H4F11507   1.892   5.009  10.143 -0.6624 -0.4808 -2.3420
  111OSM    H4G11508   2.053   5.083  10.111  0.2096 -2.0816  1.3438
  111OSM    C5F11509   1.885   5.182  10.017  0.9791 -0.4452 -0.3100
  111OSM    H5F11510   1.791   5.225  10.059  0.0687 -1.1987 -1.5388
  111OSM    H5G11511   1.859   5.120   9.929 -1.4137 -0.1664  0.1346
  111OSM    C6F11512   1.980   5.293   9.967 -0.1133  0.5275  0.2972
  111OSM    H6F11513   2.076   5.246   9.934  0.6438  1.6069  0.9159
  111OSM    H6G11514   2.003   5.368  10.045  0.7581 -0.9983  1.5460
  111OSM    C7F11515   1.927   5.367   9.842 -0.1712  0.5317 -0.2891
  111OSM    H7F11516   1.842   5.428   9.881  0.5056  1.2549  0.0782
  111OSM    H7G11517   1.889   5.292   9.770 -1.3544 -1.1267  1.9205
  111OSM    C8F11518   2.035   5.454   9.770 -0.3820 -0.1938 -0.3579
  111OSM    H8F11519   2.072   5.521   9.851 -2.2433 -1.7189  1.9234
  111OSM    H8G11520   1.984   5.525   9.702 -0.8171  2.8025  2.7788
  111OSM    C9F11521   2.141   5.374   9.696 -0.0098  0.1682 -0.0324
  111OSM    H9F11522   2.237   5.349   9.745  0.3159  0.9816 -0.2365
  111OSM   C10F11523   2.136   5.353   9.564 -0.2347 -0.0694  0.3558
  111OSM   H10F11524   2.213   5.286   9.522 -1.0857 -2.5792  2.5328
  111OSM   C11F11525   2.035   5.394   9.457 -0.4447 -1.0607 -0.1600
  111OSM   H11F11526   1.961   5.464   9.500 -0.1204 -1.8864  1.8183
  111OSM   H11G11527   1.981   5.313   9.403 -1.4513 -0.7474  0.3740
  111OSM   C12F11528   2.094   5.481   9.351  0.3063 -0.2052  0.1894
  111OSM   H12F11529   2.128   5.576   9.398  1.4728 -1.5489  2.2380
  111OSM   H12G11530   2.012   5.496   9.277  0.5828 -2.3861 -0.6359
  111OSM   C13F11531   2.208   5.412   9.265 -0.1127 -0.4108 -0.8460
  111OSM   H13F11532   2.174   5.321   9.212  0.1062 -1.4352  0.7305
  111OSM   H13G11533   2.286   5.377   9.335 -1.4546 -1.8111 -0.0065
  111OSM   C14F11534   2.282   5.504   9.167 -1.0410 -0.2266 -0.7449
  111OSM   H14F11535   2.340   5.579   9.224  0.6109 -1.4266 -0.7974
  111OSM   H14G11536   2.200   5.548   9.106 -0.7685  0.9968 -0.2589
  111OSM   C15F11537   2.377   5.424   9.072 -0.0196 -0.8627  0.2952
  111OSM   H15F11538   2.316   5.343   9.028 -0.7937 -1.0660  1.7128
  111OSM   H15G11539   2.458   5.371   9.125 -0.5191 -0.9333  1.0012
  111OSM   C16F11540   2.429   5.518   8.964 -0.1406  0.0944  0.9396
  111OSM   H16F11541   2.477   5.603   9.016 -0.2239  0.0712  1.0558
  111OSM   H16G11542   2.347   5.563   8.904  0.7405 -0.2885 -0.5945
  111OSM   C17F11543   2.521   5.459   8.863 -0.1784  0.5134  0.0307
  111OSM   H17F11544   2.476   5.376   8.804  0.8699  0.7978 -1.2250
  111OSM   H17G11545   2.604   5.407   8.916  0.6691  1.0785 -0.7182
  111OSM   C18F11546   2.581   5.560   8.764 -0.0456  0.4115 -0.1989
  111OSM   H18F11547   2.513   5.643   8.733  0.9291  0.4944 -2.3098
  111OSM   H18G11548   2.627   5.512   8.674  0.0701  4.0081 -2.2426
  111OSM   H18H11549   2.664   5.611   8.816  0.4150 -0.8584  0.3517
  112OSM      N11550   0.457   2.396  11.017  0.4909 -0.0463  0.0795
  112OSM    C1511551   0.319   2.408  11.082 -0.5040 -0.5765 -0.1544
  112OSM   H15A11552   0.247   2.425  11.003 -0.1690  1.6071 -0.0421
  112OSM   H15B11553   0.315   2.485  11.157 -1.4984 -1.6278  0.8942
  112OSM   H15C11554   0.287   2.316  11.128 -1.4836  0.1904  0.7371
  112OSM    C1411555   0.480   2.535  10.959  0.2504 -0.4736  0.5631
  112OSM   H14A11556   0.465   2.604  11.041  0.4943 -0.8339  0.9163
  112OSM   H14B11557   0.411   2.562  10.881  1.2207 -1.3451 -0.6326
  112OSM   H14C11558   0.579   2.562  10.925  0.0549 -0.2732  0.1470
  112OSM    C1311559   0.565   2.356  11.112 -0.4040 -0.5191  0.7575
  112OSM   H13A11560   0.563   2.427  11.194 -0.4764  1.6894 -1.0729
  112OSM   H13B11561   0.665   2.359  11.071 -0.4930 -0.1554  0.5638
  112OSM   H13C11562   0.552   2.254  11.144 -1.8750  0.0785  2.2122
  112OSM    C1211563   0.455   2.297  10.905  0.1655  0.3753 -0.7265
  112OSM   H12A11564   0.393   2.215  10.939 -0.4279  1.7452  1.7836
  112OSM   H12B11565   0.556   2.272  10.876 -0.2961 -0.4480 -1.6675
  112OSM    C1111566   0.396   2.336  10.773  0.2895  0.5321 -0.6369
  112OSM   H11A11567   0.413   2.244  10.714  0.4126 -0.1537  0.4295
  112OSM   H11B11568   0.467   2.408  10.727  1.6805  0.2544  0.9423
  112OSM      P11569   0.196   2.482  10.705  0.1209  0.1637  0.4656
  112OSM    O1311570   0.052   2.458  10.695  0.3081 -0.1491 -0.5627
  112OSM    O1411571   0.246   2.606  10.771  0.9556  0.6426  0.4097
  112OSM    O1111572   0.257   2.472  10.560 -0.4606  0.8578  0.2920
  112OSM    O1211573   0.254   2.360  10.780 -0.2307  0.2832  0.0816
  112OSM    C1S11574   0.181   2.491  10.441 -0.0628 -0.1713  0.2895
  112OSM    H1S11575   0.196   2.600  10.426  0.1735  0.2386  3.0016
  112OSM    H1T11576   0.073   2.467  10.454 -0.2294 -0.1902 -1.0190
  112OSM     NF11577   0.143   2.438  10.200 -0.0792  0.3062 -0.0314
  112OSM    HNF11578   0.083   2.365  10.165  0.8038 -1.2258  1.5193
  112OSM    C2S11579   0.232   2.414  10.315 -0.2456 -0.1371  0.1594
  112OSM    H2S11580   0.336   2.448  10.295 -1.4746  2.5750 -2.2013
  112OSM    C3S11581   0.249   2.262  10.348  0.1944 -0.1152 -0.3165
  112OSM    H3S11582   0.147   2.221  10.359 -0.1615  0.9067  0.4361
  112OSM     O311583   0.321   2.239  10.469 -0.4613  0.3384 -0.4874
  112OSM    HO311584   0.285   2.294  10.539  1.2530  1.0636 -0.1192
  112OSM    C4S11585   0.310   2.190  10.232 -0.3859 -0.3820  0.5238
  112OSM    H4S11586   0.239   2.136  10.168 -0.0447  2.3757 -2.4590
  112OSM    C5S11587   0.443   2.197  10.197  0.1165 -0.2037  0.3031
  112OSM    H5S11588   0.512   2.263  10.250 -0.7926  2.0256 -1.1475
  112OSM    C6S11589   0.495   2.127  10.070 -0.6155  0.1660  0.3782
  112OSM    H6S11590   0.554   2.036  10.091  0.3206  0.7850  0.4855
  112OSM    H6T11591   0.560   2.210  10.034 -0.3008  0.3617  1.3751
  112OSM    C7S11592   0.407   2.100   9.946 -0.7036  0.4122  0.4421
  112OSM    H7S11593   0.328   2.025   9.967 -1.2740 -0.1056 -2.9032
  112OSM    H7T11594   0.471   2.058   9.865 -1.0648 -1.0963  0.9271
  112OSM    C8S11595   0.351   2.228   9.885 -0.3537 -0.0277 -0.5974
  112OSM    H8S11596   0.425   2.311   9.881 -1.6460  1.1706 -0.3796
  112OSM    H8T11597   0.267   2.262   9.949 -0.5325 -2.4753  0.5849
  112OSM    C9S11598   0.296   2.216   9.744  0.1013  0.0149  0.0971
  112OSM    H9S11599   0.199   2.162   9.732  0.6423 -1.3400  1.5882
  112OSM    H9T11600   0.373   2.163   9.685  0.8881  1.0270  0.1829
  112OSM   C10S11601   0.298   2.349   9.672  0.2545 -0.3940  0.0208
  112OSM   H10S11602   0.405   2.377   9.669 -0.0272  0.6492 -0.9767
  112OSM   H10T11603   0.240   2.427   9.726  0.1363 -0.0294 -0.6229
  112OSM   C11S11604   0.258   2.336   9.522  0.6980  0.6826  0.4335
  112OSM   H11S11605   0.151   2.312   9.506  0.3848  2.6744 -0.8116
  112OSM   H11T11606   0.321   2.262   9.470  1.8166  0.7334  1.6718
  112OSM   C12S11607   0.291   2.475   9.456  0.4163 -0.4619  0.6854
  112OSM   H12S11608   0.399   2.459   9.434  0.1476 -0.1084 -1.0186
  112OSM   H12T11609   0.289   2.557   9.532  4.9701  0.7555 -0.1773
  112OSM   C13S11610   0.214   2.494   9.323 -0.0492  0.1057  0.3175
  112OSM   H13S11611   0.228   2.590   9.271  1.4218  0.1834  0.7933
  112OSM   H13T11612   0.103   2.492   9.327 -0.0770  0.4958 -0.2267
  112OSM   C14S11613   0.257   2.394   9.221  0.1358 -0.4975 -0.2525
  112OSM   H14S11614   0.251   2.292   9.264 -1.9419 -0.5750 -0.6252
  112OSM   H14T11615   0.363   2.405   9.191  0.0208 -2.3703 -1.5123
  112OSM   C15S11616   0.171   2.387   9.089 -0.4796 -0.4488  0.1076
  112OSM   H15S11617   0.165   2.487   9.043  1.3370 -0.5383 -0.3708
  112OSM   H15T11618   0.066   2.368   9.120 -1.7678  2.5379 -2.0082
  112OSM   C16S11619   0.223   2.277   8.996  0.2275  0.2466  0.2783
  112OSM   H16S11620   0.221   2.173   9.036 -0.7122  0.4136  0.6995
  112OSM   H16T11621   0.333   2.292   8.988  0.0964  1.5736  0.7427
  112OSM   C17S11622   0.163   2.286   8.857 -0.6408  0.0835 -0.1288
  112OSM   H17S11623   0.208   2.375   8.810  0.3311 -1.0958 -1.5402
  112OSM   H17T11624   0.053   2.297   8.873 -0.0353  3.5728  2.7295
  112OSM   C18S11625   0.207   2.166   8.772 -0.0260  0.6652  0.6945
  112OSM   H18S11626   0.164   2.075   8.818 -0.7587  0.3983 -0.4815
  112OSM   H18T11627   0.317   2.151   8.761 -0.0690 -0.3334  1.5632
  112OSM   H18U11628   0.178   2.178   8.665 -0.0479 -2.0127  0.3406
  112OSM    C1F11629   0.155   2.550  10.129 -0.3186  0.3729 -0.6654
  112OSM     OF11630   0.238   2.634  10.175 -0.3223  0.7221  0.6036
  112OSM    C2F11631   0.073   2.565  10.003  0.4438  0.3094  0.5566
  112OSM    H2F11632  -0.023   2.615  10.028 -0.1476 -0.3489 -0.3229
  112OSM    H2G11633   0.064   2.466   9.953  2.3725  0.5517 -0.3751
  112OSM    C3F11634   0.126   2.663   9.898  0.4997 -0.2225 -0.0778
  112OSM    H3F11635   0.235   2.663   9.879  0.3330  0.7320 -1.1284
  112OSM    H3G11636   0.097   2.764   9.934  0.7210  0.2072 -1.0801
  112OSM    C4F11637   0.052   2.653   9.765  0.6013  0.0526 -0.9411
  112OSM    H4F11638   0.034   2.546   9.742  0.5693 -0.4298  1.1449
  112OSM    H4G11639   0.125   2.695   9.693 -0.0208  0.7790 -1.1662
  112OSM    C5F11640  -0.085   2.723   9.759  0.1832  0.1194 -0.0416
  112OSM    H5F11641  -0.077   2.804   9.834 -0.6090  0.6304 -0.4833
  112OSM    H5G11642  -0.168   2.659   9.796  0.2151  1.0636  1.7513
  112OSM    C6F11643  -0.138   2.779   9.623 -1.0323 -0.2915 -0.5678
  112OSM    H6F11644  -0.076   2.860   9.581 -1.4097  0.5483  0.4374
  112OSM    H6G11645  -0.237   2.829   9.633 -0.6910  0.3292 -0.2881
  112OSM    C7F11646  -0.152   2.668   9.517  0.5785  0.2707  1.1794
  112OSM    H7F11647  -0.231   2.595   9.549 -1.2970  2.3523  1.5230
  112OSM    H7G11648  -0.051   2.623   9.512  0.6518  0.1733  2.9050
  112OSM    C8F11649  -0.209   2.718   9.376  0.1543  0.3772  0.1128
  112OSM    H8F11650  -0.315   2.745   9.393 -0.3140 -0.9925 -0.4843
  112OSM    H8G11651  -0.223   2.631   9.308 -2.1161  0.4809  0.3648
  112OSM    C9F11652  -0.126   2.823   9.307  0.2627 -0.1718  0.1865
  112OSM    H9F11653  -0.116   2.918   9.360  3.2462  0.7922 -1.8672
  112OSM   C10F11654  -0.044   2.806   9.206 -0.1435  0.2625  0.3606
  112OSM   H10F11655   0.010   2.893   9.167 -1.5695  0.4218 -1.3713
  112OSM   C11F11656  -0.013   2.683   9.124  0.9540  0.1220  0.5779
  112OSM   H11F11657  -0.051   2.588   9.168  1.0319  0.0608  0.5146
  112OSM   H11G11658   0.097   2.691   9.110  0.9107  2.0445  1.0429
  112OSM   C12F11659  -0.071   2.679   8.980 -0.6944 -0.4088  0.1279
  112OSM   H12F11660  -0.177   2.647   8.980 -0.6398 -0.6197 -0.6472
  112OSM   H12G11661  -0.009   2.608   8.922 -1.1426  0.0030 -0.8886
  112OSM   C13F11662  -0.044   2.809   8.905 -0.7517  0.6553 -0.3021
  112OSM   H13F11663   0.060   2.846   8.914 -0.7395  0.7692 -0.9016
  112OSM   H13G11664  -0.112   2.887   8.945 -0.5106 -0.8110  3.3593
  112OSM   C14F11665  -0.081   2.797   8.755 -0.5598  0.2358 -1.1423
  112OSM   H14F11666  -0.184   2.758   8.764 -0.5261 -0.3236 -2.8653
  112OSM   H14G11667  -0.021   2.719   8.703  0.2247 -0.4376  0.7072
  112OSM   C15F11668  -0.083   2.931   8.679  0.0145  0.0543 -0.6156
  112OSM   H15F11669   0.022   2.964   8.662 -0.5932  2.0636 -0.6856
  112OSM   H15G11670  -0.133   3.007   8.743  2.6416  1.3472  0.0912
  112OSM   C16F11671  -0.152   2.912   8.544 -0.3805 -0.8731 -1.0031
  112OSM   H16F11672  -0.263   2.901   8.547 -0.3987 -0.4856  0.1864
  112OSM   H16G11673  -0.112   2.824   8.489  0.5290 -0.5350 -0.9002
  112OSM   C17F11674  -0.119   3.035   8.457 -0.3568  0.3820 -1.0601
  112OSM   H17F11675  -0.009   3.036   8.442 -0.2964 -1.7017 -1.0465
  112OSM   H17G11676  -0.144   3.131   8.506 -0.4776  0.2994 -0.9582
  112OSM   C18F11677  -0.185   3.042   8.316  0.5136  0.2536  0.3325
  112OSM   H18F11678  -0.294   3.060   8.325  0.5559  0.5938  0.1751
  112OSM   H18G11679  -0.161   2.950   8.258 -0.1984  0.4955 -0.3596
  112OSM   H18H11680  -0.146   3.126   8.255  1.0106 -1.0356 -1.2296
  113OSM      N11681   2.115   3.078  10.910  0.1151  0.1657  0.1284
  113OSM    C1511682   2.059   2.943  10.902 -0.7767  0.6391  0.3122
  113OSM   H15A11683   2.057   2.915  10.798  0.8418 -1.0817  0.6884
  113OSM   H15B11684   1.956   2.945  10.934 -0.3700  0.6603  1.6801
  113OSM   H15C11685   2.110   2.872  10.966 -0.7574  0.8083  0.4869
  113OSM    C1411686   2.140   3.112  11.060 -0.2556  0.0682  0.0267
  113OSM   H14A11687   2.204   3.197  11.073  1.1998 -0.2757 -3.7406
  113OSM   H14B11688   2.179   3.027  11.114 -2.9099  0.5411  2.9456
  113OSM   H14C11689   2.051   3.121  11.121 -0.5856  2.3115 -0.6996
  113OSM    C1311690   2.240   3.092  10.839 -0.2196  0.2154  0.3532
  113OSM   H13A11691   2.289   3.187  10.853  0.3049  0.1819 -1.1508
  113OSM   H13B11692   2.217   3.081  10.734  1.9153 -2.2867  0.0438
  113OSM   H13C11693   2.329   3.032  10.855  0.7998  1.2881 -1.0521
  113OSM    C1211694   2.010   3.177  10.850 -0.3546 -0.3649  0.7802
  113OSM   H12A11695   2.061   3.272  10.857 -0.4217 -0.0208 -2.3197
  113OSM   H12B11696   1.915   3.181  10.903 -0.3749  0.1954  0.7018
  113OSM    C1111697   1.969   3.161  10.703  0.2379  0.8481  0.4707
  113OSM   H11A11698   2.065   3.147  10.649  0.4284  1.5547  0.6168
  113OSM   H11B11699   1.918   3.254  10.671 -1.4125 -0.0832  0.3257
  113OSM      P11700   1.726   3.049  10.720 -0.3643  0.0835  0.1911
  113OSM    O1311701   1.691   2.978  10.843 -0.5029  0.3575 -0.0601
  113OSM    O1411702   1.666   3.186  10.703 -0.2263  0.4928  0.0180
  113OSM    O1111703   1.667   2.965  10.602 -0.3111  0.0892 -0.0189
  113OSM    O1211704   1.884   3.048  10.689 -0.0751  0.0508 -0.1520
  113OSM    C1S11705   1.693   2.991  10.469  0.6284  0.3101 -0.0880
  113OSM    H1S11706   1.802   3.005  10.452  1.0330 -0.6524  1.5772
  113OSM    H1T11707   1.657   3.092  10.439  0.4456  0.6279  1.1710
  113OSM     NF11708   1.627   2.950  10.239  0.1168  0.0536 -0.1951
  113OSM    HNF11709   1.555   2.996  10.188  0.3898  1.9033  0.9871
  113OSM    C2S11710   1.613   2.895  10.371  0.6330 -0.6169 -0.0808
  113OSM    H2S11711   1.645   2.789  10.380  1.0805 -0.3410  1.8980
  113OSM    C3S11712   1.453   2.887  10.410 -0.1431 -0.0315 -0.6308
  113OSM    H3S11713   1.412   2.986  10.379  0.4433  0.0421 -1.2007
  113OSM     O311714   1.417   2.861  10.550 -0.0774 -0.2253  0.0971
  113OSM    HO311715   1.499   2.874  10.598  0.0975 -1.1531  0.0681
  113OSM    C4S11716   1.392   2.783  10.325 -0.3870  0.8173  0.4826
  113OSM    H4S11717   1.425   2.680  10.345 -3.4059 -0.7304 -1.5858
  113OSM    C5S11718   1.290   2.793  10.233  0.1228 -0.5150 -0.1971
  113OSM    H5S11719   1.240   2.890  10.219  0.8051  0.3791  2.8275
  113OSM    C6S11720   1.235   2.675  10.152 -0.4822 -0.0952  0.3534
  113OSM    H6S11721   1.128   2.691  10.127 -0.4020  1.1152  0.6967
  113OSM    H6T11722   1.241   2.581  10.211  1.7905 -0.4897 -0.4101
  113OSM    C7S11723   1.323   2.660  10.020 -0.3619 -0.1320 -0.6095
  113OSM    H7S11724   1.427   2.628  10.042 -0.8587 -1.1028  0.4307
  113OSM    H7T11725   1.308   2.760   9.974 -0.6688 -0.9888 -2.4628
  113OSM    C8S11726   1.256   2.561   9.927 -0.8357 -0.7533 -0.1491
  113OSM    H8S11727   1.148   2.588   9.918 -1.0874 -1.2923  1.0424
  113OSM    H8T11728   1.246   2.455   9.960  0.7274 -0.1183  2.7260
  113OSM    C9S11729   1.330   2.555   9.793 -0.2999  0.5141  0.1012
  113OSM    H9S11730   1.426   2.500   9.809 -0.2422  0.4053 -0.5925
  113OSM    H9T11731   1.366   2.657   9.769  0.4934  0.0998 -0.4924
  113OSM   C10S11732   1.259   2.497   9.672  0.5878  0.1634 -0.2730
  113OSM   H10S11733   1.151   2.517   9.656  0.2724  0.3420  1.7947
  113OSM   H10T11734   1.275   2.387   9.673  2.0185  0.3371  0.9103
  113OSM   C11S11735   1.310   2.557   9.538  0.6371  0.4242 -0.0372
  113OSM   H11S11736   1.417   2.585   9.549  0.8574 -0.4225  0.0615
  113OSM   H11T11737   1.257   2.654   9.528  0.1323  0.1403 -0.1552
  113OSM   C12S11738   1.304   2.473   9.412  0.1732  0.4534  0.1312
  113OSM   H12S11739   1.199   2.444   9.393 -0.2398  0.1444  2.5264
  113OSM   H12T11740   1.359   2.378   9.426 -1.1380 -0.3905 -0.2719
  113OSM   C13S11741   1.372   2.543   9.298  0.0444 -0.5494 -0.2722
  113OSM   H13S11742   1.459   2.603   9.333  1.1554 -1.1389 -1.8940
  113OSM   H13T11743   1.290   2.600   9.249 -0.7684 -0.8400  0.7279
  113OSM   C14S11744   1.432   2.442   9.196  0.4894 -0.2052  0.3293
  113OSM   H14S11745   1.456   2.343   9.241 -1.3002 -0.7839  0.0810
  113OSM   H14T11746   1.533   2.475   9.163  0.2863 -1.3535 -1.6354
  113OSM   C15S11747   1.328   2.425   9.080  0.0171  0.0086 -0.1937
  113OSM   H15S11748   1.331   2.518   9.019 -0.3732 -0.5413 -1.0668
  113OSM   H15T11749   1.228   2.403   9.122 -0.5802  2.2249 -0.3323
  113OSM   C16S11750   1.374   2.309   8.990  0.1030 -0.2044  0.5588
  113OSM   H16S11751   1.289   2.272   8.930 -1.0233 -0.1458  2.0535
  113OSM   H16T11752   1.425   2.223   9.039  1.5077 -0.7687 -1.7307
  113OSM   C17S11753   1.489   2.358   8.901  0.1189  0.0555  0.1397
  113OSM   H17S11754   1.586   2.384   8.948  1.0018 -1.5772 -0.7215
  113OSM   H17T11755   1.457   2.455   8.855  0.4356 -0.5538 -1.4531
  113OSM   C18S11756   1.513   2.268   8.780 -0.1672 -0.7097  0.3108
  113OSM   H18S11757   1.528   2.162   8.811  0.5675 -0.7955 -0.3003
  113OSM   H18T11758   1.599   2.308   8.721  0.5736  0.4898  2.1205
  113OSM   H18U11759   1.422   2.254   8.718 -0.7430  0.9128  0.7382
  113OSM    C1F11760   1.743   2.925  10.181 -0.5148  0.3343  0.1952
  113OSM     OF11761   1.833   2.860  10.243  0.4454 -0.0491  0.0820
  113OSM    C2F11762   1.769   2.970  10.044 -0.3465  0.3369  0.5276
  113OSM    H2F11763   1.759   3.080  10.050  0.3095  0.3520  1.7018
  113OSM    H2G11764   1.697   2.927   9.971 -0.0490  3.2320 -1.6294
  113OSM    C3F11765   1.915   2.943   9.991 -0.0719 -0.4059 -0.7042
  113OSM    H3F11766   1.928   2.834  10.006 -1.3736 -0.5672 -0.6870
  113OSM    H3G11767   1.985   2.993  10.062 -0.0141 -2.2579  0.5929
  113OSM    C4F11768   1.924   2.981   9.846 -0.0807  0.1462  0.2348
  113OSM    H4F11769   1.898   3.088   9.837 -0.8995  0.0856  1.6405
  113OSM    H4G11770   1.846   2.924   9.790 -0.8569 -0.7865  2.1795
  113OSM    C5F11771   2.061   2.960   9.780  0.4584  0.5676  0.1416
  113OSM    H5F11772   2.094   2.857   9.808 -0.6946  0.1826  0.1350
  113OSM    H5G11773   2.135   3.031   9.823  2.8071 -1.0968 -0.9244
  113OSM    C6F11774   2.065   2.981   9.631  0.4917  0.4918 -0.1801
  113OSM    H6F11775   2.063   3.091   9.616  0.0053  0.7749  1.7010
  113OSM    H6G11776   1.973   2.944   9.580 -1.1674 -0.4372  3.1623
  113OSM    C7F11777   2.192   2.920   9.570  0.0920  0.4066  0.9769
  113OSM    H7F11778   2.272   2.968   9.630 -0.2537 -0.6229  2.2927
  113OSM    H7G11779   2.200   2.954   9.464 -1.7505 -0.2769  0.5854
  113OSM    C8F11780   2.203   2.770   9.569  0.5843 -0.1785 -0.2658
  113OSM    H8F11781   2.184   2.727   9.670  1.9130 -0.6847 -0.2087
  113OSM    H8G11782   2.312   2.758   9.549  0.5679  1.4002 -1.4440
  113OSM    C9F11783   2.112   2.709   9.472  0.4347  0.3211 -0.0741
  113OSM    H9F11784   2.007   2.719   9.501 -0.0638  0.2174 -1.7566
  113OSM   C10F11785   2.151   2.652   9.362 -0.4909 -0.3846 -0.3050
  113OSM   H10F11786   2.072   2.611   9.297  0.1192 -2.6293  0.3135
  113OSM   C11F11787   2.292   2.636   9.306  0.4213 -0.1449  0.0705
  113OSM   H11F11788   2.378   2.646   9.375  1.2403 -2.6702 -0.4845
  113OSM   H11G11789   2.306   2.708   9.223 -0.1173 -2.4248 -2.1223
  113OSM   C12F11790   2.306   2.494   9.245 -0.0550 -0.7862  0.4473
  113OSM   H12F11791   2.276   2.417   9.319 -0.7229  0.3220  1.3642
  113OSM   H12G11792   2.416   2.476   9.245 -0.1439 -1.3824  1.0886
  113OSM   C13F11793   2.253   2.484   9.100  0.4898 -0.4338  0.5953
  113OSM   H13F11794   2.142   2.482   9.108  0.4118  1.4488  0.3956
  113OSM   H13G11795   2.296   2.388   9.063 -1.6916 -0.8194 -1.1759
  113OSM   C14F11796   2.289   2.589   8.998  0.0195 -0.1535 -0.5748
  113OSM   H14F11797   2.390   2.626   9.028 -1.3362  1.6224  2.2806
  113OSM   H14G11798   2.223   2.678   9.010 -1.4149 -1.3279  0.7167
  113OSM   C15F11799   2.289   2.542   8.855 -0.4309  0.3152  0.3258
  113OSM   H15F11800   2.182   2.517   8.841 -0.1777 -0.8850  0.3737
  113OSM   H15G11801   2.336   2.442   8.844  0.2657  0.8504 -2.0065
  113OSM   C16F11802   2.343   2.646   8.748 -0.0028 -0.1805  0.2232
  113OSM   H16F11803   2.447   2.675   8.773  0.0263  0.7700 -0.8879
  113OSM   H16G11804   2.290   2.743   8.759  2.2848  1.1020  0.4870
  113OSM   C17F11805   2.349   2.584   8.605 -0.2239 -0.5237 -0.1468
  113OSM   H17F11806   2.398   2.484   8.603  0.9892  0.0588 -0.7529
  113OSM   H17G11807   2.408   2.655   8.542 -1.5566  0.7985  0.0232
  113OSM   C18F11808   2.222   2.573   8.538  0.8728  0.5830 -0.2330
  113OSM   H18F11809   2.249   2.548   8.433 -0.6245 -0.0739 -0.4857
  113OSM   H18G11810   2.166   2.668   8.550  0.4400  0.3619 -0.4665
  113OSM   H18H11811   2.155   2.492   8.574  1.3258  0.3452  0.0887
  114OSM      N11812   3.502   5.743  11.742  0.7565 -0.5891 -0.0139
  114OSM    C1511813   3.497   5.887  11.802 -0.5744 -0.4871  0.2824
  114OSM   H15A11814   3.595   5.931  11.807 -0.8817  0.1040  1.8406
  114OSM   H15B11815   3.461   5.878  11.904 -1.4252 -1.4035 -0.0768
  114OSM   H15C11816   3.432   5.947  11.740  1.3879  2.1848  0.6616
  114OSM    C1411817   3.592   5.649  11.814  0.2920 -0.4356  0.0634
  114OSM   H14A11818   3.600   5.553  11.765  2.1427  0.7212 -2.0628
  114OSM   H14B11819   3.564   5.644  11.918 -1.5378 -0.1241 -0.3737
  114OSM   H14C11820   3.687   5.699  11.808 -0.9974  2.1491  0.0512
  114OSM    C1311821   3.366   5.690  11.763  0.3472  0.4790  0.6807
  114OSM   H13A11822   3.331   5.705  11.864 -1.1429 -2.7345  0.7726
  114OSM   H13B11823   3.371   5.583  11.748  1.3576  0.4712  1.0055
  114OSM   H13C11824   3.284   5.734  11.707 -0.0428  1.5577  2.0258
  114OSM    C1211825   3.530   5.751  11.595 -0.6210 -0.4959  0.3213
  114OSM   H12A11826   3.628   5.789  11.572 -0.3075 -1.7635 -0.4981
  114OSM   H12B11827   3.451   5.814  11.556  0.2719  0.4666  0.0231
  114OSM    C1111828   3.533   5.619  11.517  0.0553 -0.3833  0.1818
  114OSM   H11A11829   3.610   5.556  11.567  1.2585  1.6937  1.0494
  114OSM   H11B11830   3.563   5.639  11.412 -0.8227  0.3792  0.0597
  114OSM      P11831   3.325   5.551  11.376 -0.1860  0.1920 -0.6272
  114OSM    O1311832   3.348   5.416  11.314  0.1896 -0.2020  0.4486
  114OSM    O1411833   3.185   5.594  11.413  0.3778 -0.3590  0.4627
  114OSM    O1111834   3.382   5.671  11.282 -0.2089  0.3048  0.3984
  114OSM    O1211835   3.401   5.551  11.517 -0.2466  0.2373  0.0093
  114OSM    C1S11836   3.344   5.683  11.141 -0.0111  0.4984  0.2803
  114OSM    H1S11837   3.237   5.710  11.139 -0.9446 -2.7949  0.4579
  114OSM    H1T11838   3.347   5.584  11.091 -0.8028  1.3376 -1.5006
  114OSM     NF11839   3.412   5.740  10.906  0.9706  0.0620 -0.1075
  114OSM    HNF11840   3.490   5.706  10.853  0.5071  0.0674 -0.8122
  114OSM    C2S11841   3.433   5.770  11.044  0.7140  0.5793 -0.5801
  114OSM    H2S11842   3.406   5.877  11.054  0.4471  0.4123  0.6503
  114OSM    C3S11843   3.588   5.761  11.089 -0.1468  0.2460 -0.4875
  114OSM    H3S11844   3.626   5.659  11.065  0.1925  0.1627  0.3802
  114OSM     O311845   3.618   5.792  11.224 -0.3674  0.1222 -0.3157
  114OSM    HO311846   3.535   5.784  11.271  0.4141 -0.3250  1.0607
  114OSM    C4S11847   3.670   5.851  10.993  0.0817 -0.0088  0.1358
  114OSM    H4S11848   3.683   5.795  10.900 -1.3650  0.1407 -0.1789
  114OSM    C5S11849   3.736   5.972  11.003  0.5951  0.2082 -0.2673
  114OSM    H5S11850   3.752   6.025  11.098  1.7177 -1.3981  0.4824
  114OSM    C6S11851   3.823   6.027  10.901 -0.6931 -0.2496  0.5114
  114OSM    H6S11852   3.921   5.975  10.910 -0.5344  0.0548  0.5343
  114OSM    H6T11853   3.833   6.135  10.923 -0.8097 -0.5710  2.3274
  114OSM    C7S11854   3.787   6.006  10.755 -0.7458 -0.1833  0.8552
  114OSM    H7S11855   3.685   6.048  10.746  0.4545  3.8543  3.5919
  114OSM    H7T11856   3.775   5.899  10.727  1.4338 -0.4982  0.9248
  114OSM    C8S11857   3.864   6.091  10.647 -0.3190  0.0362 -0.0499
  114OSM    H8S11858   3.968   6.050  10.651 -1.2819 -2.7106 -0.9314
  114OSM    H8T11859   3.857   6.197  10.680 -1.7554 -0.4706  1.3623
  114OSM    C9S11860   3.813   6.085  10.503 -0.1966  0.3295  0.4944
  114OSM    H9S11861   3.853   6.169  10.442  1.0646  0.9893  2.1601
  114OSM    H9T11862   3.703   6.092  10.488 -0.0250  3.7923 -0.0261
  114OSM   C10S11863   3.862   5.951  10.448  0.3027  0.4537  0.3245
  114OSM   H10S11864   3.829   5.865  10.511 -0.5471  0.1776 -0.4727
  114OSM   H10T11865   3.973   5.952  10.452  0.2939  1.5567  0.6692
  114OSM   C11S11866   3.819   5.922  10.306  0.1149  0.0873 -0.9627
  114OSM   H11S11867   3.805   6.016  10.250  2.2757  1.0318 -0.0460
  114OSM   H11T11868   3.722   5.869  10.315  1.1416 -1.8481 -0.5722
  114OSM   C12S11869   3.911   5.836  10.222  0.4625  0.0057 -0.2177
  114OSM   H12S11870   3.922   5.736  10.270  0.5767 -0.3630 -1.0089
  114OSM   H12T11871   4.006   5.892  10.215 -0.9801  2.5670 -0.4010
  114OSM   C13S11872   3.840   5.826  10.082 -0.6309 -0.5196  0.1589
  114OSM   H13S11873   3.850   5.924  10.032 -1.3969 -0.0372  0.9292
  114OSM   H13T11874   3.732   5.800  10.088 -0.4033 -1.4548  0.3378
  114OSM   C14S11875   3.920   5.719  10.005  0.3827  0.3592 -0.0804
  114OSM   H14S11876   3.910   5.619  10.052 -1.7870  0.3254 -0.5149
  114OSM   H14T11877   4.026   5.750  10.012  0.0334  1.3426  1.6968
  114OSM   C15S11878   3.878   5.711   9.856 -0.0495 -0.5859 -0.8350
  114OSM   H15S11879   3.769   5.708   9.836 -0.1281 -1.4754 -0.3088
  114OSM   H15T11880   3.921   5.618   9.814  1.5397  0.4374 -1.5766
  114OSM   C16S11881   3.934   5.831   9.770  0.1670 -0.3460 -0.3824
  114OSM   H16S11882   4.030   5.868   9.811 -1.4093  1.3064  2.1273
  114OSM   H16T11883   3.867   5.919   9.761  2.1444  1.3525  0.6942
  114OSM   C17S11884   3.959   5.776   9.622 -0.3175 -0.2713  0.3229
  114OSM   H17S11885   4.040   5.700   9.620  0.5390  0.5077  2.3970
  114OSM   H17T11886   3.981   5.869   9.565  2.2156 -0.1454  1.3654
  114OSM   C18S11887   3.834   5.722   9.557  0.1538 -0.2860  0.0087
  114OSM   H18S11888   3.859   5.716   9.449  1.1760 -1.5758  0.2861
  114OSM   H18T11889   3.745   5.789   9.553  0.7381  0.5071 -0.0011
  114OSM   H18U11890   3.807   5.624   9.602  1.8123 -0.2132  1.2569
  114OSM    C1F11891   3.296   5.767  10.861 -0.4088 -0.1212  0.8836
  114OSM     OF11892   3.226   5.856  10.910  0.5981 -0.0796 -0.7584
  114OSM    C2F11893   3.237   5.673  10.761  0.7664  0.2234  0.1459
  114OSM    H2F11894   3.163   5.613  10.818  0.3148  0.4516 -0.1993
  114OSM    H2G11895   3.316   5.613  10.711 -0.2154 -0.7410 -0.2824
  114OSM    C3F11896   3.163   5.736  10.640  0.2769 -0.2583 -0.4270
  114OSM    H3F11897   3.071   5.776  10.687  0.2655 -2.0937  1.2257
  114OSM    H3G11898   3.122   5.648  10.587 -2.9103 -0.9972  2.8546
  114OSM    C4F11899   3.249   5.841  10.575  0.7686  0.0434 -0.5444
  114OSM    H4F11900   3.352   5.802  10.560  0.4103 -0.5551 -1.5919
  114OSM    H4G11901   3.259   5.929  10.642  0.3721 -1.2893  1.3493
  114OSM    C5F11902   3.212   5.896  10.436 -0.4271  0.2294  0.5691
  114OSM    H5F11903   3.120   5.956  10.456  1.5888  3.3716  1.0547
  114OSM    H5G11904   3.185   5.803  10.381  3.2806 -1.0308  0.6244
  114OSM    C6F11905   3.319   5.980  10.370  0.0394  0.2070 -0.0277
  114OSM    H6F11906   3.415   5.925  10.371 -0.1713 -0.1600  1.0333
  114OSM    H6G11907   3.340   6.077  10.421  0.9170  0.2401 -0.4422
  114OSM    C7F11908   3.292   6.022  10.223 -0.3064 -0.0590  0.3884
  114OSM    H7F11909   3.380   6.084  10.195 -2.0971  2.2164 -0.4792
  114OSM    H7G11910   3.206   6.092  10.219  0.8526  1.4741  1.4187
  114OSM    C8F11911   3.297   5.918  10.112 -0.2634  0.2376 -0.3258
  114OSM    H8F11912   3.240   5.958  10.025 -0.6189  0.8911  0.1991
  114OSM    H8G11913   3.238   5.832  10.151 -2.7575  2.0686  0.2487
  114OSM    C9F11914   3.430   5.862  10.066  0.1413  0.4490 -0.2622
  114OSM    H9F11915   3.508   5.854  10.142 -1.6910 -0.1565  1.6535
  114OSM   C10F11916   3.444   5.806   9.941 -0.1697 -0.0303  0.1695
  114OSM   H10F11917   3.536   5.750   9.916  0.2347 -0.4400  2.3924
  114OSM   C11F11918   3.339   5.792   9.832 -0.1714 -0.3943  0.3126
  114OSM   H11F11919   3.270   5.879   9.831  2.6557  2.0185 -1.8401
  114OSM   H11G11920   3.281   5.700   9.854 -1.6343  0.3342 -0.4057
  114OSM   C12F11921   3.393   5.761   9.687 -0.0696  0.1466  0.2528
  114OSM   H12F11922   3.445   5.664   9.696 -1.0344 -0.2809  1.6426
  114OSM   H12G11923   3.465   5.840   9.658 -1.5064  0.9877 -1.1711
  114OSM   C13F11924   3.280   5.767   9.584  0.3433  1.5670 -0.0296
  114OSM   H13F11925   3.234   5.869   9.583 -1.3502  0.8435 -0.4010
  114OSM   H13G11926   3.200   5.691   9.600  2.6412 -0.9786 -0.0026
  114OSM   C14F11927   3.338   5.728   9.442 -0.4757  0.5516 -0.5799
  114OSM   H14F11928   3.374   5.626   9.466 -0.7702  0.7918  1.0035
  114OSM   H14G11929   3.421   5.799   9.418 -0.2477  0.7028  0.5749
  114OSM   C15F11930   3.235   5.721   9.337 -0.0126 -0.1904 -0.6439
  114OSM   H15F11931   3.132   5.699   9.372 -0.4248 -1.6830 -2.6172
  114OSM   H15G11932   3.261   5.640   9.266 -0.7874 -1.7872  0.8489
  114OSM   C16F11933   3.216   5.855   9.251  0.9623  0.1640 -0.1900
  114OSM   H16F11934   3.210   5.946   9.313  0.5159 -0.6023  0.9330
  114OSM   H16G11935   3.114   5.846   9.206  0.4641  1.4533  0.6379
  114OSM   C17F11936   3.321   5.865   9.143 -0.1774 -0.1623  0.2353
  114OSM   H17F11937   3.318   5.779   9.072  1.6101  1.1780 -1.5839
  114OSM   H17G11938   3.422   5.852   9.188  0.3922 -0.3623 -1.0344
  114OSM   C18F11939   3.320   5.996   9.061 -0.1278 -0.0224 -0.7373
  114OSM   H18F11940   3.316   6.085   9.127  1.7250  0.5500 -1.3313
  114OSM   H18G11941   3.225   5.994   9.004 -1.4139  0.2472  1.3133
  114OSM   H18H11942   3.406   6.006   8.991 -0.5297  1.2771 -1.0669
  115OSM      N11943   4.936   2.322   5.851 -0.2844 -0.7791  0.6896
  115OSM    C1511944   5.050   2.310   5.754 -0.1754 -0.4577 -0.2258
  115OSM   H15A11945   5.058   2.403   5.698 -1.8793 -0.4788 -0.5551
  115OSM   H15B11946   5.038   2.241   5.672 -1.9213 -1.0003  0.4390
  115OSM   H15C11947   5.146   2.300   5.802 -0.3295 -0.2852  0.1236
  115OSM    C1411948   4.816   2.370   5.777 -0.1853  0.2755 -0.1591
  115OSM   H14A11949   4.792   2.308   5.692 -2.1860  1.3467 -0.4236
  115OSM   H14B11950   4.824   2.471   5.738 -3.0686  1.2618  1.5263
  115OSM   H14C11951   4.730   2.368   5.841 -0.7608  1.4749 -0.8563
  115OSM    C1311952   4.890   2.188   5.894  0.1861  0.0627 -0.1832
  115OSM   H13A11953   4.859   2.132   5.808 -0.2066 -1.2566  0.7847
  115OSM   H13B11954   4.817   2.194   5.973  0.6846  1.0232  0.2303
  115OSM   H13C11955   4.973   2.127   5.929 -0.6373 -1.3264 -0.5901
  115OSM    C1211956   4.965   2.412   5.963  0.3277  0.1631  0.2125
  115OSM   H12A11957   4.872   2.440   6.010  0.3643 -0.9189  0.9500
  115OSM   H12B11958   5.006   2.506   5.930  2.2631 -0.6814  0.0493
  115OSM    C1111959   5.062   2.350   6.066  0.3454  0.1858 -0.7024
  115OSM   H11A11960   4.994   2.285   6.127  1.3813 -0.5167 -0.2720
  115OSM   H11B11961   5.089   2.430   6.138 -1.3628  0.7728 -0.6537
  115OSM      P11962   5.215   2.140   6.072  0.2581  0.1676  0.1783
  115OSM    O1311963   5.105   2.043   6.048 -0.0016  0.1347 -0.0550
  115OSM    O1411964   5.353   2.103   6.023 -0.6860  0.5590 -0.5429
  115OSM    O1111965   5.225   2.171   6.224 -0.0628  0.1520 -0.0412
  115OSM    O1211966   5.179   2.281   6.022 -0.1827  0.4738 -0.4937
  115OSM    C1S11967   5.323   2.256   6.281 -0.2615  0.4263 -0.1297
  115OSM    H1S11968   5.293   2.363   6.276 -0.1263  0.5394  1.2928
  115OSM    H1T11969   5.423   2.243   6.233 -0.4512 -2.6412  0.1144
  115OSM     NF11970   5.421   2.328   6.492  0.2317 -0.0202 -0.4639
  115OSM    HNF11971   5.517   2.300   6.501 -0.0281 -0.9143 -0.4027
  115OSM    C2S11972   5.335   2.225   6.433  0.2245 -0.1277 -0.6089
  115OSM    H2S11973   5.235   2.224   6.482 -0.0019 -0.8197 -1.0740
  115OSM    C3S11974   5.395   2.084   6.451  0.4671 -0.1672  0.0145
  115OSM    H3S11975   5.499   2.079   6.411 -0.2646 -1.4668 -1.9299
  115OSM     O311976   5.330   1.991   6.367 -0.0032 -0.3010  0.1161
  115OSM    HO311977   5.293   2.054   6.305  0.2862  0.3229  0.5618
  115OSM    C4S11978   5.390   2.037   6.590  0.6796  0.3049 -0.8398
  115OSM    H4S11979   5.298   1.985   6.623  0.7385 -0.2848 -1.5613
  115OSM    C5S11980   5.494   2.054   6.671 -0.3833 -0.3540 -0.5533
  115OSM    H5S11981   5.585   2.107   6.638 -1.4041  1.9664  0.1546
  115OSM    C6S11982   5.500   2.016   6.813  0.3846  1.2112 -0.8186
  115OSM    H6S11983   5.600   1.972   6.830 -0.6151 -0.7384  0.3524
  115OSM    H6T11984   5.430   1.935   6.843 -1.3981  3.1033  0.3945
  115OSM    C7S11985   5.498   2.122   6.918 -0.6052 -0.0365  0.1437
  115OSM    H7S11986   5.408   2.182   6.891 -1.4439 -0.9676  0.8032
  115OSM    H7T11987   5.587   2.188   6.920 -0.9469  0.4245  1.8950
  115OSM    C8S11988   5.474   2.071   7.061 -0.2593  0.5796 -0.7065
  115OSM    H8S11989   5.534   1.978   7.070  0.5156  0.8451 -2.6708
  115OSM    H8T11990   5.370   2.036   7.079 -0.2838  1.8543  2.1590
  115OSM    C9S11991   5.508   2.182   7.167 -0.0352 -0.1248  0.5798
  115OSM    H9S11992   5.430   2.260   7.153 -0.9771 -0.8857  1.4477
  115OSM    H9T11993   5.610   2.224   7.157 -1.0429  2.1556 -0.9815
  115OSM   C10S11994   5.486   2.135   7.310  0.3500  0.9113 -0.1776
  115OSM   H10S11995   5.541   2.041   7.334 -2.2613 -0.7357 -0.2313
  115OSM   H10T11996   5.376   2.136   7.330  0.4453  2.6110  0.4535
  115OSM   C11S11997   5.540   2.235   7.406  0.7471 -0.6651 -0.7638
  115OSM   H11S11998   5.497   2.335   7.382 -0.5650 -1.1369 -0.4384
  115OSM   H11T11999   5.648   2.252   7.389  0.5883  2.4018  0.5244
  115OSM   C12S12000   5.528   2.205   7.557  0.3778 -0.1243 -0.0626
  115OSM   H12S12001   5.612   2.142   7.593  1.0661  1.1400  0.6117
  115OSM   H12T12002   5.435   2.153   7.588 -0.1540  0.9166  0.1508
  115OSM   C13S12003   5.538   2.322   7.645  0.2416 -0.5782 -0.0848
  115OSM   H13S12004   5.493   2.415   7.604  1.4931  0.9135  1.7742
  115OSM   H13T12005   5.644   2.352   7.662 -1.1404  4.2953  1.8359
  115OSM   C14S12006   5.486   2.289   7.790  0.0094 -0.7855 -0.4694
  115OSM   H14S12007   5.550   2.208   7.830 -0.0077 -1.2212 -1.2929
  115OSM   H14T12008   5.378   2.263   7.787 -0.4972  1.1203 -0.0282
  115OSM   C15S12009   5.502   2.411   7.880  0.0572 -0.1050 -0.3634
  115OSM   H15S12010   5.435   2.491   7.843  0.6374  0.2987 -0.5497
  115OSM   H15T12011   5.608   2.442   7.879 -0.1831  0.7674  0.3388
  115OSM   C16S12012   5.474   2.385   8.030 -0.5951 -0.6148  0.3953
  115OSM   H16S12013   5.553   2.311   8.054  1.3911 -0.3583 -4.1955
  115OSM   H16T12014   5.372   2.347   8.051 -0.0776 -2.1301  0.3228
  115OSM   C17S12015   5.494   2.511   8.123  0.2950 -0.8595  0.6983
  115OSM   H17S12016   5.461   2.607   8.077 -1.0104 -0.9364  1.4343
  115OSM   H17T12017   5.602   2.520   8.147  0.1127 -0.8335  1.5378
  115OSM   C18S12018   5.419   2.502   8.256 -0.3026 -0.1667  0.5268
  115OSM   H18S12019   5.436   2.602   8.303  1.1285 -0.2151  0.1572
  115OSM   H18T12020   5.459   2.418   8.318  0.6824 -1.4915 -1.7690
  115OSM   H18U12021   5.311   2.475   8.246 -0.7657  1.6501  0.2790
  115OSM    C1F12022   5.387   2.455   6.505 -0.1993  1.1297  0.2074
  115OSM     OF12023   5.267   2.479   6.504  0.1515 -0.7517 -0.2223
  115OSM    C2F12024   5.488   2.563   6.537 -0.2293 -0.2199 -0.3960
  115OSM    H2F12025   5.546   2.596   6.448 -0.5896  3.0846  0.4724
  115OSM    H2G12026   5.572   2.517   6.593  1.8111  4.2270  0.6594
  115OSM    C3F12027   5.442   2.687   6.607  0.1231 -0.3174  0.1069
  115OSM    H3F12028   5.400   2.655   6.705 -0.6741  3.0325  0.9893
  115OSM    H3G12029   5.363   2.743   6.552  1.1629  1.8579  0.7187
  115OSM    C4F12030   5.549   2.797   6.641  0.6439  0.8516 -0.0387
  115OSM    H4F12031   5.497   2.876   6.699 -1.8333  0.7804 -1.9830
  115OSM    H4G12032   5.577   2.829   6.538  0.9137 -2.8736 -1.2545
  115OSM    C5F12033   5.666   2.743   6.724 -0.3413 -0.6347 -0.3269
  115OSM    H5F12034   5.728   2.830   6.752 -3.1763  1.2010  0.6234
  115OSM    H5G12035   5.732   2.668   6.674  0.9010 -0.3843  0.8758
  115OSM    C6F12036   5.621   2.682   6.860 -0.0678  0.3200 -0.5757
  115OSM    H6F12037   5.579   2.580   6.845  2.1068 -0.3775 -2.5252
  115OSM    H6G12038   5.555   2.758   6.906  0.9171  1.2715 -0.6971
  115OSM    C7F12039   5.742   2.660   6.961 -0.5748  0.1148 -0.0566
  115OSM    H7F12040   5.781   2.754   7.006  1.3092 -0.4995 -0.3239
  115OSM    H7G12041   5.833   2.625   6.908  0.9624 -0.3109  2.6907
  115OSM    C8F12042   5.721   2.560   7.074 -0.6069  0.3053 -0.2766
  115OSM    H8F12043   5.818   2.544   7.125 -0.9558  2.6299  1.2536
  115OSM    H8G12044   5.697   2.466   7.020  0.7492 -0.4420  0.3638
  115OSM    C9F12045   5.604   2.587   7.166 -0.4518 -0.0797  0.0775
  115OSM    H9F12046   5.505   2.581   7.117  0.4385  0.9113 -1.9650
  115OSM   C10F12047   5.609   2.643   7.291  0.0482  0.4247  0.2418
  115OSM   H10F12048   5.516   2.652   7.348  0.2065  0.4004  0.5061
  115OSM   C11F12049   5.722   2.681   7.380 -0.3687  0.1279  0.0864
  115OSM   H11F12050   5.739   2.791   7.383  0.2027  0.0193  1.1872
  115OSM   H11G12051   5.819   2.653   7.333  1.5616  2.0360  2.6250
  115OSM   C12F12052   5.706   2.628   7.522 -0.4257  0.1483 -0.4995
  115OSM   H12F12053   5.708   2.517   7.513 -0.3732 -0.0340  1.3920
  115OSM   H12G12054   5.611   2.663   7.568 -1.1037 -1.1698 -0.8575
  115OSM   C13F12055   5.827   2.678   7.592  0.6102 -0.5616  0.2963
  115OSM   H13F12056   5.853   2.781   7.558  2.4406 -0.7115  1.1009
  115OSM   H13G12057   5.910   2.610   7.566  2.1395  1.3839 -0.1664
  115OSM   C14F12058   5.814   2.673   7.744  0.5158  0.1313  0.4192
  115OSM   H14F12059   5.916   2.666   7.789  0.1572 -0.4252  1.1647
  115OSM   H14G12060   5.751   2.588   7.777  2.0213 -1.0186  0.4406
  115OSM   C15F12061   5.740   2.797   7.808  0.4747 -0.3385 -0.5158
  115OSM   H15F12062   5.633   2.784   7.782 -0.2273 -1.0389  2.4325
  115OSM   H15G12063   5.788   2.888   7.765 -0.6304  1.0579  1.0943
  115OSM   C16F12064   5.745   2.792   7.960  0.4608  0.4082 -0.0212
  115OSM   H16F12065   5.854   2.786   7.979  0.4784 -1.9750 -0.5366
  115OSM   H16G12066   5.692   2.700   7.992  1.1633  0.0708  0.1931
  115OSM   C17F12067   5.668   2.903   8.029  0.1434  0.5727  0.5750
  115OSM   H17F12068   5.566   2.879   7.992  0.1656 -1.7632  1.7945
  115OSM   H17G12069   5.704   2.998   7.984 -0.2545 -0.8793 -3.1639
  115OSM   C18F12070   5.674   2.899   8.184  0.1939 -0.0109 -0.6074
  115OSM   H18F12071   5.632   2.988   8.235  0.3835  0.7729 -1.7711
  115OSM   H18G12072   5.777   2.873   8.217 -0.9853  0.1569  3.7286
  115OSM   H18H12073   5.605   2.822   8.224  0.3907  0.9299  1.7036
  116OSM      N12074   4.374   0.358   6.297 -0.1096  0.4706  0.4730
  116OSM    C1512075   4.428   0.395   6.164 -0.6187 -0.7359  1.0423
  116OSM   H15A12076   4.534   0.396   6.141 -0.5088 -1.9545  1.4361
  116OSM   H15B12077   4.388   0.492   6.139 -1.1689 -1.3073 -0.3896
  116OSM   H15C12078   4.390   0.331   6.086 -0.1287 -0.1047  0.2693
  116OSM    C1412079   4.397   0.468   6.401 -0.5427 -0.0730 -0.3524
  116OSM   H14A12080   4.304   0.523   6.404 -0.2466  0.6714 -2.7528
  116OSM   H14B12081   4.475   0.535   6.367 -0.4928  0.0296 -0.0420
  116OSM   H14C12082   4.430   0.435   6.498 -2.2563  3.2746  1.5720
  116OSM    C1312083   4.227   0.318   6.300  0.5439  0.3994  0.1286
  116OSM   H13A12084   4.150   0.380   6.257 -0.0994 -1.2491 -1.2311
  116OSM   H13B12085   4.190   0.305   6.401  1.3025  1.9687  0.6397
  116OSM   H13C12086   4.216   0.229   6.240 -2.7750  1.9215 -1.8145
  116OSM    C1212087   4.464   0.244   6.340  0.4331  0.2058  0.3884
  116OSM   H12A12088   4.445   0.198   6.436  1.1876  0.9772  0.9159
  116OSM   H12B12089   4.564   0.283   6.335  0.1483  1.5903  3.4832
  116OSM    C1112090   4.454   0.125   6.245  0.0994 -0.6068  0.2398
  116OSM   H11A12091   4.514   0.137   6.153 -1.5366 -0.7591 -0.8797
  116OSM   H11B12092   4.352   0.102   6.208 -0.4993  1.9585  0.1564
  116OSM      P12093   4.465  -0.134   6.266  0.2957 -0.0770 -0.1433
  116OSM    O1312094   4.424  -0.130   6.123  0.4043  0.1565  0.7841
  116OSM    O1412095   4.578  -0.225   6.293 -0.3863  0.0738  0.2051
  116OSM    O1112096   4.343  -0.163   6.367 -0.1989  0.0666  0.2068
  116OSM    O1212097   4.503   0.017   6.314 -0.7718  0.8624  0.6069
  116OSM    C1S12098   4.371  -0.191   6.511 -0.2339  0.2244  0.0719
  116OSM    H1S12099   4.472  -0.232   6.533 -0.2874 -1.2505 -2.1753
  116OSM    H1T12100   4.295  -0.266   6.539 -0.4999 -0.0430 -1.2861
  116OSM     NF12101   4.370  -0.114   6.735 -0.6208 -0.2510  0.5430
  116OSM    HNF12102   4.286  -0.146   6.778 -2.5545  0.9004 -2.1092
  116OSM    C2S12103   4.345  -0.073   6.601  1.2386  0.5356  0.0298
  116OSM    H2S12104   4.410   0.015   6.583  2.0760  0.0336  0.5686
  116OSM    C3S12105   4.198  -0.028   6.579 -0.7993  0.3376 -0.3835
  116OSM    H3S12106   4.126  -0.113   6.576  0.9037 -1.1442 -3.2775
  116OSM     O312107   4.185   0.028   6.450 -0.1776 -0.3120 -0.5071
  116OSM    HO312108   4.264   0.000   6.403  1.4268  2.5696  0.2617
  116OSM    C4S12109   4.151   0.081   6.661 -0.4324  0.7628  0.7850
  116OSM    H4S12110   4.200   0.177   6.635 -0.0916 -0.0058 -1.7207
  116OSM    C5S12111   4.065   0.085   6.759  0.2397 -0.2192 -0.2359
  116OSM    H5S12112   4.013  -0.005   6.796  0.2562  1.3941  4.4044
  116OSM    C6S12113   4.038   0.204   6.840 -0.6999 -0.9779 -0.2471
  116OSM    H6S12114   3.941   0.196   6.893 -1.4252  2.1686 -0.8807
  116OSM    H6T12115   4.030   0.292   6.773 -0.2316  1.0109  2.1635
  116OSM    C7S12116   4.142   0.235   6.957 -0.1778  0.2428  0.7043
  116OSM    H7S12117   4.118   0.340   6.986  1.5499  0.8458  0.0867
  116OSM    H7T12118   4.244   0.230   6.912 -1.2807 -0.8317 -1.9036
  116OSM    C8S12119   4.144   0.149   7.083  0.3133 -0.8281  0.5180
  116OSM    H8S12120   4.160   0.041   7.062  1.2269 -0.3206 -1.7180
  116OSM    H8T12121   4.044   0.167   7.129 -1.0058 -0.8868 -2.1023
  116OSM    C9S12122   4.243   0.207   7.189 -0.9631  0.7292  0.4991
  116OSM    H9S12123   4.242   0.317   7.177  0.7012  0.8790  1.4525
  116OSM    H9T12124   4.345   0.166   7.171 -0.9807  0.5511  0.7978
  116OSM   C10S12125   4.198   0.169   7.329 -0.5937 -0.4033 -0.3267
  116OSM   H10S12126   4.203   0.058   7.334 -2.8729 -0.4932  1.3335
  116OSM   H10T12127   4.098   0.216   7.338  1.0159  3.0505  1.0810
  116OSM   C11S12128   4.291   0.234   7.435  0.2143 -0.3751  0.3948
  116OSM   H11S12129   4.396   0.209   7.410 -0.1000 -1.6342  0.2716
  116OSM   H11T12130   4.275   0.190   7.536 -0.7874  1.0197  0.8787
  116OSM   C12S12131   4.278   0.386   7.446  0.0564 -0.6186 -0.4035
  116OSM   H12S12132   4.287   0.429   7.344 -0.1052  2.1348  0.6549
  116OSM   H12T12133   4.356   0.431   7.512 -0.8766 -0.4324  0.6084
  116OSM   C13S12134   4.145   0.419   7.505  0.7331 -0.0808 -0.5435
  116OSM   H13S12135   4.119   0.340   7.579  0.9958  0.9093  0.6252
  116OSM   H13T12136   4.058   0.418   7.436 -0.7622  0.0485  1.2578
  116OSM   C14S12137   4.142   0.556   7.577  0.5540  0.0368 -0.1490
  116OSM   H14S12138   4.144   0.628   7.493 -3.8989 -0.5712 -1.0226
  116OSM   H14T12139   4.235   0.578   7.635  0.6932 -1.0677  0.0732
  116OSM   C15S12140   4.018   0.572   7.668 -0.8177  0.0893  0.1840
  116OSM   H15S12141   3.928   0.559   7.603 -0.4427 -1.3843 -0.0903
  116OSM   H15T12142   4.012   0.674   7.710  0.6127 -0.1192  0.9536
  116OSM   C16S12143   4.014   0.474   7.785  0.8868 -0.3256 -0.7013
  116OSM   H16S12144   4.109   0.478   7.842 -0.4439 -1.7627  1.8165
  116OSM   H16T12145   3.997   0.374   7.740 -3.2803 -0.0425 -0.2359
  116OSM   C17S12146   3.902   0.500   7.903  0.5117  0.2810 -0.7201
  116OSM   H17S12147   3.803   0.492   7.853 -1.5298  0.1064  3.0338
  116OSM   H17T12148   3.920   0.603   7.939 -0.4371  0.6344 -1.2172
  116OSM   C18S12149   3.915   0.403   8.013  0.3721  0.3238  0.3099
  116OSM   H18S12150   3.904   0.305   7.962 -0.1877  0.3670  0.3443
  116OSM   H18T12151   3.845   0.410   8.099  0.0267 -1.2701  0.1989
  116OSM   H18U12152   4.018   0.398   8.056  1.5342 -3.3783 -2.4006
  116OSM    C1F12153   4.488  -0.125   6.789 -0.2919  0.2651  0.2600
  116OSM     OF12154   4.584  -0.070   6.739 -0.5322 -0.0798  0.2892
  116OSM    C2F12155   4.496  -0.211   6.909 -0.1924 -0.3543 -0.5278
  116OSM    H2F12156   4.455  -0.309   6.880  2.3236 -2.3317  1.9958
  116OSM    H2G12157   4.438  -0.177   6.998  0.1465  1.7344 -1.0386
  116OSM    C3F12158   4.637  -0.227   6.977 -0.2842  0.8153 -0.6368
  116OSM    H3F12159   4.711  -0.280   6.913 -0.0925 -0.6125  0.7085
  116OSM    H3G12160   4.623  -0.282   7.072 -0.1068  1.1538 -0.4101
  116OSM    C4F12161   4.695  -0.090   7.024 -0.0363  0.2953 -0.0709
  116OSM    H4F12162   4.619  -0.049   7.094 -1.4834 -1.8007 -0.3306
  116OSM    H4G12163   4.729  -0.016   6.949 -0.1015  0.3544 -0.0428
  116OSM    C5F12164   4.826  -0.106   7.099  0.3235 -0.5979  0.3972
  116OSM    H5F12165   4.894  -0.019   7.082  1.1682 -1.7261 -2.7151
  116OSM    H5G12166   4.889  -0.184   7.050  0.2797  0.9347 -2.2904
  116OSM    C6F12167   4.805  -0.151   7.241 -0.1527 -0.1355 -0.0947
  116OSM    H6F12168   4.912  -0.154   7.272  0.4338  0.6245 -1.8825
  116OSM    H6G12169   4.776  -0.258   7.256 -1.1794 -0.0040 -0.9951
  116OSM    C7F12170   4.712  -0.069   7.327  0.5247  0.3792 -0.6224
  116OSM    H7F12171   4.606  -0.098   7.309  1.2726 -3.1676 -0.0257
  116OSM    H7G12172   4.742   0.038   7.321  0.3375  0.7472  2.8598
  116OSM    C8F12173   4.722  -0.118   7.473  0.3506  0.2078 -1.0270
  116OSM    H8F12174   4.829  -0.099   7.496  0.7926 -1.8011 -1.2111
  116OSM    H8G12175   4.718  -0.229   7.475  1.8492  0.1227 -1.4700
  116OSM    C9F12176   4.621  -0.053   7.559 -0.1983 -0.4389 -0.1694
  116OSM    H9F12177   4.584   0.046   7.529  0.4481 -0.1187  0.0641
  116OSM   C10F12178   4.582  -0.099   7.671  0.4254 -1.0059  0.3015
  116OSM   H10F12179   4.520  -0.040   7.741  0.9057 -0.4893  0.3028
  116OSM   C11F12180   4.634  -0.227   7.729  0.3698 -0.3103  0.4241
  116OSM   H11F12181   4.737  -0.260   7.704  0.7937 -1.8918  3.6805
  116OSM   H11G12182   4.565  -0.312   7.709  0.2963 -0.3959  1.0348
  116OSM   C12F12183   4.645  -0.219   7.888 -0.6588 -0.1535 -0.4581
  116OSM   H12F12184   4.711  -0.136   7.922 -1.1782 -0.5426  1.5817
  116OSM   H12G12185   4.702  -0.309   7.918  1.2199  0.3542 -2.2600
  116OSM   C13F12186   4.508  -0.231   7.941 -0.0451  0.6423 -0.9881
  116OSM   H13F12187   4.448  -0.297   7.875  0.6810 -0.0995 -0.9310
  116OSM   H13G12188   4.446  -0.140   7.944 -0.2680  0.5620 -2.5276
  116OSM   C14F12189   4.511  -0.275   8.094 -0.1863 -0.1317  0.1144
  116OSM   H14F12190   4.568  -0.371   8.102  0.7951  0.2818 -1.4424
  116OSM   H14G12191   4.407  -0.295   8.127  0.4714 -1.3562  1.6128
  116OSM   C15F12192   4.573  -0.169   8.176  0.8010  0.0856 -0.6098
  116OSM   H15F12193   4.522  -0.071   8.167  0.5642  0.0776  0.5746
  116OSM   H15G12194   4.678  -0.152   8.143  0.3767  1.8606 -1.1335
  116OSM   C16F12195   4.585  -0.212   8.327 -0.2315 -0.7310  1.3275
  116OSM   H16F12196   4.621  -0.317   8.316 -2.1505 -1.4748  1.6119
  116OSM   H16G12197   4.483  -0.223   8.371 -1.0578 -0.8055 -0.5224
  116OSM   C17F12198   4.682  -0.125   8.409 -0.1923 -0.1545 -0.7842
  116OSM   H17F12199   4.661  -0.021   8.377 -1.0873  0.9285  2.8114
  116OSM   H17G12200   4.791  -0.148   8.404  0.4112  2.2484 -0.1620
  116OSM   C18F12201   4.648  -0.129   8.560  0.9597  0.3641  0.4506
  116OSM   H18F12202   4.660  -0.235   8.593  1.4756 -0.8383 -3.1679
  116OSM   H18G12203   4.552  -0.089   8.598  0.3603 -1.1007  0.5558
  116OSM   H18H12204   4.720  -0.058   8.607  0.5182  1.4940 -0.5640
  117OSM      N12205   3.198   1.260   6.029  0.0933 -0.0977  0.1388
  117OSM    C1512206   3.186   1.118   5.992  0.0209 -0.2357  0.0657
  117OSM   H15A12207   3.088   1.082   5.964  0.4090 -1.9405  0.7488
  117OSM   H15B12208   3.215   1.058   6.077 -0.9773 -2.1798 -0.9035
  117OSM   H15C12209   3.248   1.089   5.910 -0.3333 -1.3361  0.1684
  117OSM    C1412210   3.338   1.305   6.049 -0.6804  0.6514  0.1194
  117OSM   H14A12211   3.334   1.411   6.070 -1.8032  0.9394 -1.3331
  117OSM   H14B12212   3.404   1.289   5.965 -2.9236  1.7672 -2.0088
  117OSM   H14C12213   3.366   1.244   6.134 -1.0955  0.9574  0.4796
  117OSM    C1312214   3.141   1.332   5.907 -0.3889 -0.0124 -0.0420
  117OSM   H13A12215   3.141   1.440   5.916 -0.2692  0.1359 -1.5420
  117OSM   H13B12216   3.042   1.291   5.899 -1.1351  0.1089  5.1699
  117OSM   H13C12217   3.199   1.299   5.823  1.3357 -0.2597  1.1805
  117OSM    C1212218   3.107   1.286   6.151 -0.3318 -0.2666  0.3247
  117OSM   H12A12219   3.007   1.281   6.111 -0.3077 -1.5657  0.3983
  117OSM   H12B12220   3.126   1.382   6.196  1.2050 -0.6647  0.5671
  117OSM    C1112221   3.124   1.194   6.269 -0.1833 -0.4614  0.8108
  117OSM   H11A12222   3.081   1.099   6.234  0.9304  0.0482 -2.2590
  117OSM   H11B12223   3.060   1.235   6.350 -1.3669  0.4723 -0.5453
  117OSM      P12224   3.333   1.055   6.342  0.1626 -0.2430  0.1060
  117OSM    O1312225   3.235   0.946   6.326  0.0100  0.0278 -0.2840
  117OSM    O1412226   3.459   1.050   6.266  0.2877 -0.3685 -0.5793
  117OSM    O1112227   3.360   1.062   6.494  1.1712  0.4559 -0.0420
  117OSM    O1212228   3.256   1.190   6.308 -0.6680 -0.3934 -0.3716
  117OSM    C1S12229   3.276   1.155   6.572 -0.5192  0.3458  0.1982
  117OSM    H1S12230   3.168   1.129   6.567 -0.2643 -0.5800 -0.6971
  117OSM    H1T12231   3.287   1.259   6.536  0.5321  0.5674  1.1080
  117OSM     NF12232   3.217   1.210   6.811  0.5089 -0.0271  0.7950
  117OSM    HNF12233   3.212   1.302   6.849  0.0605 -1.0959  3.5517
  117OSM    C2S12234   3.323   1.161   6.722  0.1979  0.4041 -0.6031
  117OSM    H2S12235   3.347   1.056   6.747 -0.8341 -0.5165 -3.1982
  117OSM    C3S12236   3.447   1.252   6.725  0.0424 -0.0848 -0.0117
  117OSM    H3S12237   3.411   1.353   6.696 -1.5238 -1.0387 -1.6143
  117OSM     O312238   3.554   1.227   6.632 -0.1937  0.1993  0.9742
  117OSM    HO312239   3.533   1.148   6.583  4.3692 -0.0668 -1.0845
  117OSM    C4S12240   3.502   1.256   6.866 -0.3673 -0.2684 -0.0641
  117OSM    H4S12241   3.460   1.337   6.928 -1.4156 -1.8168  1.3056
  117OSM    C5S12242   3.600   1.182   6.918 -1.3780  0.2191 -0.1905
  117OSM    H5S12243   3.650   1.114   6.848 -1.8031  1.7711 -2.0928
  117OSM    C6S12244   3.654   1.180   7.058 -0.5006 -0.4982 -0.3443
  117OSM    H6S12245   3.754   1.228   7.057 -1.9446  2.8251 -0.2675
  117OSM    H6T12246   3.670   1.076   7.091  0.0448 -0.7209 -1.2767
  117OSM    C7S12247   3.590   1.253   7.175 -0.0493 -0.2433  0.1171
  117OSM    H7S12248   3.483   1.228   7.192  0.6189 -1.6739  2.7714
  117OSM    H7T12249   3.600   1.361   7.151  1.0071 -0.7072 -1.6867
  117OSM    C8S12250   3.656   1.210   7.318  0.2030 -0.1397  0.8503
  117OSM    H8S12251   3.767   1.208   7.310  0.2300  1.8845  0.0081
  117OSM    H8T12252   3.631   1.105   7.344 -1.5313  0.0811  0.2138
  117OSM    C9S12253   3.627   1.296   7.436  0.2910 -0.4729 -0.9832
  117OSM    H9S12254   3.518   1.319   7.440  0.4474  0.0824  0.4441
  117OSM    H9T12255   3.673   1.392   7.405 -2.7190  1.4848  0.0941
  117OSM   C10S12256   3.673   1.225   7.574 -0.6629  0.1773 -0.5842
  117OSM   H10S12257   3.782   1.203   7.567 -0.6622 -0.7272  1.6717
  117OSM   H10T12258   3.621   1.128   7.590 -0.4148  0.2545  0.7402
  117OSM   C11S12259   3.655   1.320   7.687 -0.6245  0.0732 -0.0342
  117OSM   H11S12260   3.549   1.354   7.693  0.1246  2.7350 -0.7829
  117OSM   H11T12261   3.713   1.413   7.670  1.6483 -0.8008  2.3085
  117OSM   C12S12262   3.695   1.267   7.826 -0.5850  0.3274  0.7534
  117OSM   H12S12263   3.805   1.275   7.831 -0.5046 -1.2119  1.9366
  117OSM   H12T12264   3.660   1.162   7.826  1.1105 -0.2831 -0.8509
  117OSM   C13S12265   3.639   1.347   7.938  0.7323  0.1238 -0.4287
  117OSM   H13S12266   3.536   1.310   7.957  1.0347 -0.8410 -0.6293
  117OSM   H13T12267   3.638   1.452   7.901 -0.5789  0.2316 -0.1338
  117OSM   C14S12268   3.714   1.348   8.075  0.0491 -0.0948  0.4730
  117OSM   H14S12269   3.656   1.414   8.143 -0.8974 -1.0150  0.5715
  117OSM   H14T12270   3.816   1.390   8.063 -0.6306  1.9496  1.3346
  117OSM   C15S12271   3.715   1.211   8.139 -0.8056 -0.1709 -0.0524
  117OSM   H15S12272   3.775   1.138   8.080  3.1138 -0.3223  3.6879
  117OSM   H15T12273   3.610   1.173   8.141 -0.3982 -1.8918 -3.4763
  117OSM   C16S12274   3.770   1.207   8.287 -0.9489 -0.2606 -0.6308
  117OSM   H16S12275   3.734   1.126   8.354  1.5436 -1.0987 -0.1772
  117OSM   H16T12276   3.737   1.300   8.336 -2.2611 -0.7468 -0.5568
  117OSM   C17S12277   3.921   1.205   8.290 -0.2051  0.3529 -0.2835
  117OSM   H17S12278   3.950   1.269   8.376 -1.2964  0.7912 -0.2192
  117OSM   H17T12279   3.962   1.260   8.203  0.1259  0.0910 -0.2941
  117OSM   C18S12280   3.975   1.061   8.290  0.0564  0.3024 -0.3215
  117OSM   H18S12281   3.922   0.998   8.215  1.4476 -2.3228  0.7898
  117OSM   H18T12282   3.965   1.016   8.391  0.7640 -1.1461 -0.8789
  117OSM   H18U12283   4.082   1.058   8.263  0.3198  0.6100  0.6239
  117OSM    C1F12284   3.099   1.142   6.825  0.5041 -0.7036  0.2613
  117OSM     OF12285   3.086   1.026   6.779 -0.3390 -0.0942  0.1507
  117OSM    C2F12286   2.972   1.216   6.883 -0.7394 -0.2009  0.1067
  117OSM    H2F12287   2.959   1.313   6.830 -2.9134 -1.0331 -1.0114
  117OSM    H2G12288   2.984   1.228   6.993 -0.5848 -2.5055  0.3815
  117OSM    C3F12289   2.841   1.143   6.863  0.9078  0.6750  0.2498
  117OSM    H3F12290   2.842   1.091   6.765 -3.0793  0.0201  0.4102
  117OSM    H3G12291   2.754   1.210   6.878  0.3320 -0.2137  0.9632
  117OSM    C4F12292   2.824   1.041   6.980 -0.1948 -0.0883  0.2808
  117OSM    H4F12293   2.926   1.015   7.014 -0.6755 -1.1635  0.9471
  117OSM    H4G12294   2.770   0.948   6.954  2.5085 -1.2289 -1.6220
  117OSM    C5F12295   2.741   1.105   7.101  0.2865 -0.0663  0.0990
  117OSM    H5F12296   2.639   1.128   7.064  0.5722 -0.6763 -1.1153
  117OSM    H5G12297   2.799   1.197   7.124  3.1643 -0.8150 -3.3199
  117OSM    C6F12298   2.726   1.000   7.213 -0.1109  0.1875  0.4256
  117OSM    H6F12299   2.828   0.959   7.231  0.0158  0.4110  0.2185
  117OSM    H6G12300   2.671   0.911   7.178  0.0025 -0.1702  1.1429
  117OSM    C7F12301   2.650   1.058   7.342 -0.4113  0.4164  0.0541
  117OSM    H7F12302   2.554   1.104   7.312 -0.5109  1.2047  1.4883
  117OSM    H7G12303   2.709   1.142   7.387  0.7488 -0.1664 -0.3256
  117OSM    C8F12304   2.611   0.949   7.443 -0.9519 -0.1463  0.5272
  117OSM    H8F12305   2.548   0.882   7.380  0.8624 -1.5852  0.1478
  117OSM    H8G12306   2.548   0.986   7.525 -1.3073  1.0165 -0.2483
  117OSM    C9F12307   2.738   0.865   7.501 -0.7340  0.3663  0.2127
  117OSM    H9F12308   2.763   0.778   7.439  1.1519 -0.0885  1.5176
  117OSM   C10F12309   2.814   0.902   7.603 -0.2624  0.2494 -0.0386
  117OSM   H10F12310   2.896   0.836   7.635  0.3459  2.2440  2.8403
  117OSM   C11F12311   2.802   1.018   7.693 -0.2781  0.4737 -0.4982
  117OSM   H11F12312   2.720   1.080   7.652 -1.5969  0.2719  1.6741
  117OSM   H11G12313   2.891   1.085   7.685 -0.4126  0.9664  1.6931
  117OSM   C12F12314   2.763   0.995   7.844  0.2489  0.0355  0.0112
  117OSM   H12F12315   2.680   0.924   7.863  1.1477 -0.8575  0.7854
  117OSM   H12G12316   2.725   1.093   7.879 -1.3399 -0.1137 -1.2066
  117OSM   C13F12317   2.892   0.947   7.919  0.7553 -0.0590  0.4207
  117OSM   H13F12318   2.985   1.005   7.905  0.0060  0.6990 -1.8795
  117OSM   H13G12319   2.910   0.843   7.884  1.0463  0.7912 -2.1596
  117OSM   C14F12320   2.864   0.924   8.069  0.4563 -0.2692  0.5158
  117OSM   H14F12321   2.770   0.864   8.070  1.5257 -2.1442 -1.6096
  117OSM   H14G12322   2.840   1.023   8.113 -1.3052 -0.9246  1.1395
  117OSM   C15F12323   2.972   0.844   8.146  0.2914 -0.5081  0.7078
  117OSM   H15F12324   3.058   0.913   8.132 -0.4976  0.4392  0.4060
  117OSM   H15G12325   2.986   0.750   8.089 -1.8456  0.7944 -2.2391
  117OSM   C16F12326   2.944   0.831   8.295  0.9392 -0.8376  0.3592
  117OSM   H16F12327   2.908   0.927   8.339  2.3906 -0.2980  0.4084
  117OSM   H16G12328   3.039   0.803   8.345  0.1880  0.9079  3.0017
  117OSM   C17F12329   2.846   0.714   8.325 -0.0185  0.1851  0.1228
  117OSM   H17F12330   2.742   0.720   8.289 -0.6224 -3.2955  0.8865
  117OSM   H17G12331   2.885   0.628   8.267 -1.0012 -0.5054  0.4594
  117OSM   C18F12332   2.855   0.680   8.475 -0.5550  0.7658  0.6493
  117OSM   H18F12333   2.955   0.704   8.516  0.8871  0.3551 -2.3749
  117OSM   H18G12334   2.855   0.569   8.477  0.5682  0.7344 -0.2992
  117OSM   H18H12335   2.769   0.734   8.521 -1.8143  1.2871 -2.1167
  118OSM      N12336   6.466   2.936   5.766 -0.2200  0.7091  0.3693
  118OSM    C1512337   6.595   2.886   5.717 -0.1991 -0.9112  0.4733
  118OSM   H15A12338   6.613   2.906   5.613 -0.1563 -2.2968  0.1943
  118OSM   H15B12339   6.605   2.780   5.735  3.1981 -0.4358  2.0661
  118OSM   H15C12340   6.676   2.929   5.773  0.8586 -1.5131 -0.5586
  118OSM    C1412341   6.471   3.083   5.769  0.0674  0.4492  0.0210
  118OSM   H14A12342   6.396   3.121   5.700  0.0948 -0.6974 -0.6862
  118OSM   H14B12343   6.571   3.120   5.752 -0.2778  1.1053 -0.6571
  118OSM   H14C12344   6.453   3.119   5.869  1.1217  3.5339 -0.8177
  118OSM    C1312345   6.343   2.892   5.688 -0.7733  0.0186 -0.3395
  118OSM   H13A12346   6.340   2.914   5.583  0.0729 -1.5961 -0.7353
  118OSM   H13B12347   6.252   2.932   5.729  0.9645  2.2151  1.6648
  118OSM   H13C12348   6.330   2.785   5.700  2.1212 -0.4843 -0.8870
  118OSM    C1212349   6.454   2.884   5.909 -0.5532  0.3662  0.0346
  118OSM   H12A12350   6.366   2.929   5.953  0.3372  0.9171  1.3072
  118OSM   H12B12351   6.542   2.902   5.970  0.6775 -1.9676 -0.9014
  118OSM    C1112352   6.423   2.737   5.930  0.0658  0.1768  0.2135
  118OSM   H11A12353   6.333   2.690   5.885 -0.4807 -1.0604  2.4302
  118OSM   H11B12354   6.399   2.720   6.038  0.0267 -0.2035  0.1474
  118OSM      P12355   6.615   2.551   5.990  0.6480 -0.0400 -0.0209
  118OSM    O1312356   6.643   2.443   5.886 -0.0133 -0.5031 -0.6652
  118OSM    O1412357   6.733   2.602   6.063  0.8748  0.0452  0.2590
  118OSM    O1112358   6.497   2.507   6.088 -0.3385  0.0056  0.1715
  118OSM    O1212359   6.545   2.668   5.899  0.3036  0.1506 -0.5225
  118OSM    C1S12360   6.516   2.383   6.155 -0.1261  0.5074  0.3121
  118OSM    H1S12361   6.615   2.335   6.139 -0.9247 -1.3191  0.5190
  118OSM    H1T12362   6.437   2.308   6.132 -0.1442  0.2653  1.1046
  118OSM     NF12363   6.526   2.271   6.382  0.2849  0.1032 -0.0845
  118OSM    HNF12364   6.447   2.217   6.410 -1.2664  0.8260 -2.7856
  118OSM    C2S12365   6.496   2.398   6.313  0.0596 -0.4266  0.4534
  118OSM    H2S12366   6.563   2.477   6.354 -1.0658  1.3496 -0.9512
  118OSM    C3S12367   6.348   2.447   6.341 -0.5133 -0.5822  0.5528
  118OSM    H3S12368   6.285   2.361   6.311 -0.9876 -0.1284  0.2313
  118OSM     O312369   6.311   2.555   6.257  0.2131  0.4714 -0.5811
  118OSM    HO312370   6.383   2.560   6.193 -0.0306 -0.8292 -0.9921
  118OSM    C4S12371   6.329   2.493   6.481 -0.0320 -0.3465  0.0922
  118OSM    H4S12372   6.410   2.547   6.533  0.4140  0.2435 -1.1637
  118OSM    C5S12373   6.215   2.470   6.551 -0.4111  0.0826  0.8797
  118OSM    H5S12374   6.130   2.417   6.506 -0.8489  1.6871 -0.2367
  118OSM    C6S12375   6.209   2.501   6.698  0.4444 -0.2547 -0.2151
  118OSM    H6S12376   6.304   2.529   6.749 -0.3653  0.8793  0.7173
  118OSM    H6T12377   6.167   2.414   6.753 -1.3943  0.4953 -0.3770
  118OSM    C7S12378   6.121   2.634   6.720 -0.4441  0.7977 -0.0077
  118OSM    H7S12379   6.014   2.603   6.719  0.0240 -1.0392  0.6810
  118OSM    H7T12380   6.154   2.703   6.640  1.1390  0.8266  0.6258
  118OSM    C8S12381   6.139   2.678   6.866  0.9575  0.0250 -0.3059
  118OSM    H8S12382   6.060   2.753   6.886  1.5921  0.1061  2.3887
  118OSM    H8T12383   6.244   2.709   6.882  1.4609 -1.6326 -0.1819
  118OSM    C9S12384   6.109   2.568   6.976 -0.2491 -1.0373 -0.2689
  118OSM    H9S12385   6.183   2.485   6.965  0.2435 -0.4503 -1.5446
  118OSM    H9T12386   6.007   2.524   6.973 -0.9060  0.1950  1.7932
  118OSM   C10S12387   6.121   2.617   7.121  0.4032 -1.0982  0.3226
  118OSM   H10S12388   6.016   2.632   7.152  0.6752  0.0922  0.7358
  118OSM   H10T12389   6.165   2.719   7.122 -1.7935 -0.0908  0.4221
  118OSM   C11S12390   6.178   2.516   7.216 -0.5291  0.1147  0.2323
  118OSM   H11S12391   6.282   2.494   7.183 -0.3802 -1.9322  1.8589
  118OSM   H11T12392   6.126   2.419   7.199  0.4609 -0.0884 -2.0086
  118OSM   C12S12393   6.166   2.556   7.367  0.1004  0.3777  0.3622
  118OSM   H12S12394   6.151   2.463   7.426 -0.4174 -0.9625 -1.7752
  118OSM   H12T12395   6.076   2.617   7.389  0.3444  0.9620 -0.2350
  118OSM   C13S12396   6.291   2.635   7.410 -0.0091 -0.7513  0.0439
  118OSM   H13S12397   6.305   2.728   7.351 -2.3295  0.6992  1.6296
  118OSM   H13T12398   6.370   2.557   7.410 -0.8545 -1.6340  1.2543
  118OSM   C14S12399   6.257   2.685   7.552 -0.0660  0.0463 -0.4148
  118OSM   H14S12400   6.350   2.687   7.612 -0.1583 -0.5243 -0.2425
  118OSM   H14T12401   6.202   2.605   7.607  2.3609 -1.6652 -0.3467
  118OSM   C15S12402   6.179   2.825   7.556 -0.4502  0.4310  0.1866
  118OSM   H15S12403   6.077   2.825   7.512 -2.4640 -0.5965  4.3407
  118OSM   H15T12404   6.246   2.888   7.493  2.2276 -1.2977  1.1254
  118OSM   C16S12405   6.157   2.879   7.696 -0.3211 -0.4554  0.0842
  118OSM   H16S12406   6.254   2.866   7.750 -0.3482 -2.2310 -0.2324
  118OSM   H16T12407   6.089   2.814   7.754 -0.0432 -0.9753 -0.1601
  118OSM   C17S12408   6.097   3.017   7.677  0.7858 -0.6020  0.5592
  118OSM   H17S12409   6.006   3.019   7.613  0.0578 -2.5554  1.4294
  118OSM   H17T12410   6.173   3.070   7.616  0.8860 -1.7299 -0.3276
  118OSM   C18S12411   6.078   3.082   7.812  0.4720 -0.5207  0.0468
  118OSM   H18S12412   5.991   3.042   7.868  1.3725  1.5685  3.2012
  118OSM   H18T12413   6.055   3.190   7.800  2.0888  0.0237  1.3926
  118OSM   H18U12414   6.177   3.072   7.862  1.3505  2.6325 -0.8412
  118OSM    C1F12415   6.647   2.219   6.398 -0.3497 -0.3265  0.4920
  118OSM     OF12416   6.747   2.255   6.333 -0.2094  0.8398  0.1744
  118OSM    C2F12417   6.659   2.114   6.501 -0.4217 -0.0062  0.0251
  118OSM    H2F12418   6.735   2.043   6.463  0.0036  0.5369 -0.1475
  118OSM    H2G12419   6.565   2.055   6.514  0.1218 -0.4855  2.2428
  118OSM    C3F12420   6.724   2.165   6.637  0.0447  0.0309  0.1753
  118OSM    H3F12421   6.671   2.243   6.694  0.4458 -0.5314  1.3591
  118OSM    H3G12422   6.824   2.197   6.601  0.8045 -3.8428 -1.6693
  118OSM    C4F12423   6.766   2.051   6.729 -0.1083  0.3098 -0.6354
  118OSM    H4F12424   6.829   1.983   6.667  1.5582  0.4082  0.8688
  118OSM    H4G12425   6.678   1.991   6.762  1.6991 -1.6029  1.0255
  118OSM    C5F12426   6.840   2.098   6.854 -0.0172 -0.6519  0.2058
  118OSM    H5F12427   6.814   2.062   6.956  4.7360 -1.1423  1.5098
  118OSM    H5G12428   6.823   2.207   6.858  3.6861  0.2636 -2.7427
  118OSM    C6F12429   6.996   2.066   6.847 -0.1436  0.3986  0.8607
  118OSM    H6F12430   7.045   2.137   6.776  0.0912 -1.4174 -0.8614
  118OSM    H6G12431   7.007   1.962   6.812  1.0923  0.1790  1.7965
  118OSM    C7F12432   7.071   2.083   6.975 -0.6110  0.4270 -0.3967
  118OSM    H7F12433   7.176   2.092   6.939 -0.9171  0.7267 -1.2290
  118OSM    H7G12434   7.048   1.993   7.037 -1.6654  1.2485  0.4344
  118OSM    C8F12435   7.030   2.204   7.064 -0.1409 -0.3251 -0.0311
  118OSM    H8F12436   6.921   2.193   7.087  0.7222 -1.7255  4.3201
  118OSM    H8G12437   7.032   2.294   6.999 -3.3228 -1.2900 -1.7311
  118OSM    C9F12438   7.132   2.208   7.181  0.4230 -0.0881 -0.1637
  118OSM    H9F12439   7.232   2.244   7.152 -0.3647  1.0087 -1.6498
  118OSM   C10F12440   7.100   2.178   7.306 -0.3303  0.4259 -0.8377
  118OSM   H10F12441   7.178   2.171   7.384 -1.9401 -1.8509  0.6897
  118OSM   C11F12442   6.970   2.134   7.358  0.0305 -0.1852 -1.0690
  118OSM   H11F12443   6.970   2.031   7.399  3.1023 -0.9293 -2.6934
  118OSM   H11G12444   6.899   2.132   7.273 -1.2427 -2.6931 -0.0516
  118OSM   C12F12445   6.911   2.219   7.471 -0.4521 -0.6839  0.3801
  118OSM   H12F12446   6.803   2.197   7.485 -0.2275 -1.2088  1.3091
  118OSM   H12G12447   6.928   2.329   7.462 -0.5348 -0.3135  3.6341
  118OSM   C13F12448   6.971   2.190   7.613 -0.4534  0.2569 -0.2445
  118OSM   H13F12449   7.078   2.218   7.606 -0.8559  1.5861 -1.7901
  118OSM   H13G12450   6.946   2.087   7.644 -4.1838  1.0802 -0.0165
  118OSM   C14F12451   6.913   2.301   7.710 -0.3789  0.3190 -0.3122
  118OSM   H14F12452   6.806   2.324   7.690 -0.7379  0.5358  1.6831
  118OSM   H14G12453   6.970   2.394   7.692  0.9496 -0.5544 -0.8195
  118OSM   C15F12454   6.928   2.242   7.851 -0.2287  0.1638 -0.3613
  118OSM   H15F12455   6.968   2.330   7.906 -1.1039  0.7107 -0.5682
  118OSM   H15G12456   7.000   2.161   7.870  2.4066  2.6856  1.1934
  118OSM   C16F12457   6.797   2.212   7.919 -0.0129 -0.3559 -0.6315
  118OSM   H16F12458   6.734   2.304   7.914  1.5409  0.7523 -0.3599
  118OSM   H16G12459   6.815   2.202   8.028 -1.7737  4.2986  0.3205
  118OSM   C17F12460   6.725   2.087   7.875 -0.0412 -0.1509 -0.1126
  118OSM   H17F12461   6.789   2.006   7.834 -0.4204 -0.5928  0.1549
  118OSM   H17G12462   6.654   2.111   7.793 -1.4831 -1.0135  0.8374
  118OSM   C18F12463   6.637   2.036   7.991  0.0619 -0.2614 -0.0672
  118OSM   H18F12464   6.590   2.132   8.021 -0.5277  0.2403 -2.4068
  118OSM   H18G12465   6.697   2.000   8.077  0.1868  0.3174  0.0949
  118OSM   H18H12466   6.555   1.967   7.962 -0.3183 -0.1342  0.6956
  119OSM      N12467   0.704   4.028   5.626 -0.5219  0.0358 -0.6273
  119OSM    C1512468   0.646   3.915   5.549 -0.5142  0.2783  0.1259
  119OSM   H15A12469   0.558   3.941   5.493 -0.5562 -0.9602 -0.4137
  119OSM   H15B12470   0.624   3.831   5.614  0.8287  0.9803  1.5329
  119OSM   H15C12471   0.729   3.878   5.490 -0.1254 -0.3187  1.0124
  119OSM    C1412472   0.781   4.114   5.533  0.0239 -0.1741  0.4275
  119OSM   H14A12473   0.718   4.169   5.465  1.1425  0.5139 -0.0825
  119OSM   H14B12474   0.851   4.054   5.478  1.5684 -0.2395  2.3560
  119OSM   H14C12475   0.839   4.186   5.589  3.3150 -1.1744 -1.4627
  119OSM    C1312476   0.595   4.100   5.690  0.6808  0.1861 -0.4643
  119OSM   H13A12477   0.532   4.027   5.738 -0.0197  0.8038 -0.4215
  119OSM   H13B12478   0.534   4.154   5.619 -0.2806  0.3921  0.4954
  119OSM   H13C12479   0.617   4.175   5.765 -2.1063 -0.8548  1.5160
  119OSM    C1212480   0.802   3.981   5.736 -0.5688  0.2596 -0.5379
  119OSM   H12A12481   0.845   4.062   5.793  0.2280 -1.5892  1.6838
  119OSM   H12B12482   0.884   3.929   5.688 -0.3799 -0.9341  0.9689
  119OSM    C1112483   0.741   3.874   5.836  0.0348  0.0248 -0.2898
  119OSM   H11A12484   0.649   3.919   5.877  0.0943  0.0238 -0.1565
  119OSM   H11B12485   0.815   3.875   5.919  0.5594 -1.7264 -0.6988
  119OSM      P12486   0.823   3.637   5.776  0.6571  0.0180  0.4124
  119OSM    O1312487   0.773   3.524   5.697  0.1535  0.2406 -0.0256
  119OSM    O1412488   0.950   3.687   5.727 -0.1309  0.2873  0.5101
  119OSM    O1112489   0.832   3.599   5.923  0.5379 -0.2093 -0.1599
  119OSM    O1212490   0.710   3.745   5.781 -0.3681  0.3749  0.0875
  119OSM    C1S12491   0.718   3.588   6.014  0.2289 -0.1224  0.4705
  119OSM    H1S12492   0.676   3.487   5.998  0.2444 -0.1561  0.6484
  119OSM    H1T12493   0.634   3.660   6.001  0.2190 -0.2630 -0.3472
  119OSM     NF12494   0.659   3.555   6.258  0.0795 -0.1490 -0.0563
  119OSM    HNF12495   0.599   3.625   6.295  0.5115  0.2118 -0.0346
  119OSM    C2S12496   0.763   3.597   6.166 -0.4567  0.8931  0.5190
  119OSM    H2S12497   0.848   3.526   6.176  0.1248  1.3834 -0.6924
  119OSM    C3S12498   0.826   3.729   6.197 -0.5210 -0.9812 -0.1500
  119OSM    H3S12499   0.752   3.812   6.187 -0.1867 -0.3927  1.7498
  119OSM     O312500   0.938   3.763   6.118 -0.1861 -0.2554 -0.0262
  119OSM    HO312501   0.928   3.723   6.031  0.3502 -1.6408  0.5273
  119OSM    C4S12502   0.882   3.738   6.344  0.2502  0.8854  0.8707
  119OSM    H4S12503   0.983   3.702   6.367  1.1170  2.6458 -0.0104
  119OSM    C5S12504   0.818   3.803   6.446 -0.0356 -0.6760 -0.6033
  119OSM    H5S12505   0.732   3.861   6.410  0.3758  0.0753 -0.3955
  119OSM    C6S12506   0.858   3.803   6.591  0.2272 -0.1721 -0.0967
  119OSM    H6S12507   0.842   3.904   6.632 -2.6248  0.5218 -2.5883
  119OSM    H6T12508   0.969   3.791   6.600  0.1249 -1.8640 -0.5604
  119OSM    C7S12509   0.796   3.697   6.678 -0.8850  0.4815  0.4148
  119OSM    H7S12510   0.799   3.600   6.625  0.4255  0.6676  0.1182
  119OSM    H7T12511   0.692   3.732   6.698 -1.2711 -0.4970  0.1598
  119OSM    C8S12512   0.871   3.691   6.814  0.7178 -0.0511 -0.0299
  119OSM    H8S12513   0.847   3.784   6.871 -3.4281 -1.3899  0.7926
  119OSM    H8T12514   0.981   3.685   6.811  0.9160  0.7131  2.7291
  119OSM    C9S12515   0.817   3.576   6.910  0.2981  0.0281 -0.0479
  119OSM    H9S12516   0.834   3.472   6.876  0.9711  0.1306 -0.0378
  119OSM    H9T12517   0.706   3.584   6.914  0.4412  2.0283  2.0510
  119OSM   C10S12518   0.887   3.588   7.043 -0.4455 -0.3128 -0.6690
  119OSM   H10S12519   0.848   3.681   7.091  0.7406 -0.1326 -0.0073
  119OSM   H10T12520   0.996   3.605   7.033 -0.0618 -1.7601  0.6321
  119OSM   C11S12521   0.867   3.466   7.128  0.6209  0.6581 -0.2185
  119OSM   H11S12522   0.896   3.365   7.091 -0.8685 -0.4343  1.4169
  119OSM   H11T12523   0.758   3.455   7.148  0.0903  2.5108 -1.7664
  119OSM   C12S12524   0.940   3.471   7.265  0.0967 -0.5766  0.0208
  119OSM   H12S12525   0.920   3.386   7.333 -0.4149  0.6326  1.4477
  119OSM   H12T12526   0.901   3.562   7.315  0.6719 -0.3892  0.1393
  119OSM   C13S12527   1.097   3.488   7.254 -0.6255 -0.1243 -0.8691
  119OSM   H13S12528   1.123   3.556   7.170  2.7447  0.0811  0.1662
  119OSM   H13T12529   1.136   3.384   7.250  0.3346  0.2434 -1.5044
  119OSM   C14S12530   1.148   3.543   7.387 -0.3117 -0.8759 -0.6919
  119OSM   H14S12531   1.110   3.647   7.400  1.4348 -0.0955 -1.5365
  119OSM   H14T12532   1.259   3.550   7.387 -0.3785  2.0508  1.6389
  119OSM   C15S12533   1.121   3.469   7.515 -0.4494  1.2426 -1.2341
  119OSM   H15S12534   1.162   3.370   7.486 -1.1106  0.2918  0.8946
  119OSM   H15T12535   1.011   3.460   7.524 -0.8105  3.2115 -2.9199
  119OSM   C16S12536   1.180   3.528   7.638 -0.2323  0.3610 -0.3004
  119OSM   H16S12537   1.149   3.635   7.645 -2.5632 -0.3224  1.0171
  119OSM   H16T12538   1.290   3.519   7.650 -0.3395  1.8854  2.8290
  119OSM   C17S12539   1.131   3.448   7.760  0.6302 -0.3911 -0.5466
  119OSM   H17S12540   1.193   3.488   7.843 -1.0668  0.8991  0.1521
  119OSM   H17T12541   1.132   3.337   7.761 -0.2477 -0.4264  1.5357
  119OSM   C18S12542   0.984   3.471   7.793  0.2321 -0.1418  0.4986
  119OSM   H18S12543   0.918   3.434   7.711  0.8517 -0.9593  0.3615
  119OSM   H18T12544   0.982   3.579   7.819  3.6676  0.7890 -2.2787
  119OSM   H18U12545   0.944   3.421   7.883  0.4911 -0.9843  0.1575
  119OSM    C1F12546   0.602   3.438   6.247  0.8435 -0.4822 -0.2880
  119OSM     OF12547   0.662   3.342   6.205  0.1252 -0.1711  0.3585
  119OSM    C2F12548   0.453   3.427   6.283 -0.7434 -0.2623  0.3054
  119OSM    H2F12549   0.394   3.393   6.196  2.3749  0.4185 -2.2500
  119OSM    H2G12550   0.419   3.530   6.309 -1.5926 -0.4218 -0.1327
  119OSM    C3F12551   0.422   3.329   6.392  0.0913  0.0325 -0.5483
  119OSM    H3F12552   0.460   3.228   6.365 -1.6505 -2.1914  4.1300
  119OSM    H3G12553   0.312   3.314   6.400  0.1444  0.5798  4.1257
  119OSM    C4F12554   0.484   3.362   6.533 -0.6559  0.6063 -0.0033
  119OSM    H4F12555   0.591   3.388   6.524 -0.3303 -0.8252 -0.4949
  119OSM    H4G12556   0.465   3.264   6.582 -1.8282  0.0914 -1.4370
  119OSM    C5F12557   0.414   3.479   6.608 -0.4957  0.4957 -0.3545
  119OSM    H5F12558   0.303   3.474   6.602 -0.3875 -0.3395 -2.3947
  119OSM    H5G12559   0.453   3.570   6.558 -1.8327  1.5404  0.4654
  119OSM    C6F12560   0.458   3.488   6.754 -0.1200  0.5603 -0.5868
  119OSM    H6F12561   0.568   3.506   6.750  0.7116 -3.5998 -2.3880
  119OSM    H6G12562   0.453   3.384   6.792 -1.0814  0.5611 -0.6882
  119OSM    C7F12563   0.379   3.592   6.837  0.2501 -0.2944 -0.4330
  119OSM    H7F12564   0.270   3.573   6.834  0.0386  0.8932 -0.7843
  119OSM    H7G12565   0.390   3.689   6.784  1.1204 -0.5593 -0.7562
  119OSM    C8F12566   0.417   3.608   6.985  0.0759  0.0244 -0.1135
  119OSM    H8F12567   0.354   3.689   7.026  1.3592  0.0758  1.9009
  119OSM    H8G12568   0.518   3.655   6.996  0.3715 -0.3924 -0.9484
  119OSM    C9F12569   0.421   3.483   7.063  0.2300  0.0374 -0.3305
  119OSM    H9F12570   0.394   3.392   7.006 -0.4101  1.1898 -1.9286
  119OSM   C10F12571   0.446   3.487   7.197  0.5048  0.5666  0.4243
  119OSM   H10F12572   0.434   3.392   7.251 -0.2422  0.7772  0.6326
  119OSM   C11F12573   0.469   3.605   7.288 -0.0899 -0.6246 -0.5492
  119OSM   H11F12574   0.434   3.703   7.248  1.1106  1.0051  2.1456
  119OSM   H11G12575   0.577   3.615   7.312 -0.6483 -0.1559  1.9930
  119OSM   C12F12576   0.403   3.599   7.431  0.2097  1.1600 -0.2571
  119OSM   H12F12577   0.424   3.690   7.492  0.1033  0.1357  1.3558
  119OSM   H12G12578   0.451   3.510   7.476 -0.9507  0.0605 -1.1320
  119OSM   C13F12579   0.251   3.570   7.433  0.2974 -0.0682  0.2358
  119OSM   H13F12580   0.231   3.474   7.381  0.5629  0.7266 -1.3859
  119OSM   H13G12581   0.214   3.655   7.371  2.3369 -0.0257 -0.9992
  119OSM   C14F12582   0.201   3.566   7.576  0.2801  0.1076 -0.8650
  119OSM   H14F12583   0.254   3.483   7.628  0.4975  1.0592  0.4830
  119OSM   H14G12584   0.091   3.554   7.569  0.2863  0.6229 -1.9020
  119OSM   C15F12585   0.207   3.695   7.662 -0.0342 -0.6668  0.3741
  119OSM   H15F12586   0.162   3.776   7.601  1.5133 -0.8120 -1.0247
  119OSM   H15G12587   0.315   3.714   7.682 -0.3378  0.1885  1.2771
  119OSM   C16F12588   0.119   3.681   7.797 -0.5664  0.1812  0.2647
  119OSM   H16F12589   0.011   3.686   7.773 -0.5112 -0.5446 -0.1682
  119OSM   H16G12590   0.152   3.767   7.858 -1.0286 -0.1104  0.9339
  119OSM   C17F12591   0.149   3.547   7.865 -0.9120  0.3355  0.3735
  119OSM   H17F12592   0.257   3.521   7.855 -0.9964  0.2304 -0.3216
  119OSM   H17G12593   0.096   3.470   7.804  0.7258 -1.0271  0.5704
  119OSM   C18F12594   0.110   3.546   8.015 -0.4628 -0.8525 -0.4280
  119OSM   H18F12595   0.164   3.631   8.061  0.0493 -0.0043 -2.4539
  119OSM   H18G12596   0.135   3.447   8.057  0.8436 -0.2333  0.3326
  119OSM   H18H12597   0.001   3.568   8.016 -0.2617  0.2862 -0.8314
  120OSM      N12598   4.692   1.133   6.633 -0.1051  0.0881 -0.0181
  120OSM    C1512599   4.608   1.228   6.569  0.4808  0.3421 -0.4426
  120OSM   H15A12600   4.663   1.315   6.536  1.2819 -0.9241 -2.6979
  120OSM   H15B12601   4.522   1.242   6.634  0.0094  2.0570 -1.3671
  120OSM   H15C12602   4.568   1.177   6.483  0.5724  0.8452 -0.7858
  120OSM    C1412603   4.819   1.132   6.544  0.2477  0.0679  0.3407
  120OSM   H14A12604   4.798   1.099   6.443  0.1421  2.7910 -0.6051
  120OSM   H14B12605   4.895   1.075   6.596  0.1393 -1.1418 -0.7551
  120OSM   H14C12606   4.861   1.231   6.538  2.5957 -0.8682 -0.0509
  120OSM    C1312607   4.730   1.193   6.767  0.0759 -0.3540 -0.2509
  120OSM   H13A12608   4.816   1.135   6.798 -0.0472 -0.1272  0.5271
  120OSM   H13B12609   4.652   1.168   6.836  0.5732 -3.6236 -0.7117
  120OSM   H13C12610   4.758   1.297   6.758 -1.3052 -0.0956 -2.4371
  120OSM    C1212611   4.642   0.995   6.647  0.3019  0.2870  0.0888
  120OSM   H12A12612   4.565   0.994   6.722 -0.5996 -0.4354 -0.8102
  120OSM   H12B12613   4.724   0.935   6.683 -0.4256  0.3188  1.8947
  120OSM    C1112614   4.581   0.930   6.524 -0.1598 -0.5933 -0.6851
  120OSM   H11A12615   4.492   0.982   6.484 -1.0580 -1.1528  0.5278
  120OSM   H11B12616   4.534   0.840   6.569 -1.2382  0.4501  0.3369
  120OSM      P12617   4.731   0.755   6.392  0.6783 -0.5927  0.0248
  120OSM    O1312618   4.623   0.687   6.317  0.3601  0.0402  0.4002
  120OSM    O1412619   4.866   0.760   6.329 -0.0106  0.4837  0.2951
  120OSM    O1112620   4.740   0.685   6.530 -0.0825 -0.6554 -0.2493
  120OSM    O1212621   4.675   0.906   6.426 -1.0119 -0.0311 -0.5037
  120OSM    C1S12622   4.845   0.690   6.627 -0.3968  0.0287 -0.7614
  120OSM    H1S12623   4.882   0.793   6.643  0.5617 -0.8744  4.7370
  120OSM    H1T12624   4.937   0.630   6.609  1.8163  2.6027  1.2602
  120OSM     NF12625   4.883   0.667   6.871 -1.3168  0.0463  0.3720
  120OSM    HNF12626   4.948   0.600   6.907 -1.7007 -1.3930 -1.4390
  120OSM    C2S12627   4.795   0.625   6.760  0.4567 -0.3093  0.5895
  120OSM    H2S12628   4.696   0.664   6.791  1.0707  0.3250  1.8446
  120OSM    C3S12629   4.773   0.473   6.732 -0.1653  0.6964 -0.8595
  120OSM    H3S12630   4.876   0.449   6.697 -0.0228  0.5798 -0.3707
  120OSM     O312631   4.679   0.439   6.633 -0.3656 -0.3790  0.2819
  120OSM    HO312632   4.674   0.522   6.585 -0.0635 -1.9931 -2.8054
  120OSM    C4S12633   4.743   0.396   6.863  0.3560  0.0350  0.1477
  120OSM    H4S12634   4.827   0.343   6.909 -0.4369 -1.1030  0.3293
  120OSM    C5S12635   4.624   0.393   6.926 -0.4851 -0.3249 -0.2026
  120OSM    H5S12636   4.535   0.440   6.881 -0.9107 -1.5323 -0.6586
  120OSM    C6S12637   4.585   0.337   7.065  0.0083 -0.0117  0.6747
  120OSM    H6S12638   4.516   0.252   7.044  1.0796 -1.1801  1.7523
  120OSM    H6T12639   4.523   0.414   7.115  0.0111 -1.0935  2.4297
  120OSM    C7S12640   4.695   0.300   7.169  0.7004  0.2588 -0.0345
  120OSM    H7S12641   4.784   0.256   7.121  1.3078  0.9238  0.4681
  120OSM    H7T12642   4.659   0.215   7.232 -0.0254 -0.3573 -1.2409
  120OSM    C8S12643   4.721   0.409   7.268 -0.0341 -0.3491  0.9610
  120OSM    H8S12644   4.624   0.454   7.296 -0.0023 -0.2340  0.8849
  120OSM    H8T12645   4.797   0.484   7.237 -1.5407  0.5662 -0.6672
  120OSM    C9S12646   4.786   0.363   7.398  0.5531  0.3496 -0.8786
  120OSM    H9S12647   4.727   0.279   7.437  1.2451 -0.2246 -1.0454
  120OSM    H9T12648   4.777   0.443   7.474  2.4014 -0.9184  0.7705
  120OSM   C10S12649   4.932   0.313   7.377  0.2937 -0.3706 -0.0986
  120OSM   H10S12650   5.004   0.397   7.375  1.2124 -1.1377 -2.3615
  120OSM   H10T12651   4.937   0.257   7.281  0.0411 -3.0135  1.3145
  120OSM   C11S12652   4.982   0.208   7.473  0.2591  0.0669  0.3143
  120OSM   H11S12653   5.086   0.173   7.454  0.8752  1.5056  0.8745
  120OSM   H11T12654   4.918   0.118   7.463  1.4892 -1.0196  1.7696
  120OSM   C12S12655   4.974   0.255   7.618  0.0441 -0.0462  0.6772
  120OSM   H12S12656   4.879   0.309   7.631 -0.4220 -1.0678  1.7286
  120OSM   H12T12657   5.051   0.325   7.656 -2.3454  4.8318 -2.5204
  120OSM   C13S12658   4.970   0.133   7.717  0.2704  0.5807  0.0153
  120OSM   H13S12659   5.059   0.069   7.704  1.8515  2.8251 -0.9160
  120OSM   H13T12660   4.881   0.068   7.705 -0.0899  1.2256 -0.9581
  120OSM   C14S12661   4.960   0.187   7.861 -0.0152  0.7050  0.2195
  120OSM   H14S12662   4.859   0.226   7.886 -1.6861 -1.4034 -2.6595
  120OSM   H14T12663   5.027   0.274   7.878 -1.3982  2.1715 -1.4952
  120OSM   C15S12664   5.000   0.083   7.972  0.0819 -0.1827  0.4155
  120OSM   H15S12665   5.099   0.039   7.946  0.4522  0.9967 -0.2959
  120OSM   H15T12666   4.922   0.005   7.968 -0.4548  0.2949  1.3046
  120OSM   C16S12667   4.990   0.148   8.116 -1.0165 -0.1879  0.1803
  120OSM   H16S12668   4.883   0.177   8.118 -0.4643  1.9734  0.3988
  120OSM   H16T12669   5.050   0.240   8.131  0.1665 -0.1470 -3.5883
  120OSM   C17S12670   5.022   0.044   8.226 -0.2656 -0.1253  0.2281
  120OSM   H17S12671   5.112  -0.012   8.193  0.2730  0.9464 -0.1681
  120OSM   H17T12672   4.930  -0.017   8.232 -1.4484  1.7141  3.7425
  120OSM   C18S12673   5.050   0.090   8.365  0.0467  0.7714  0.3502
  120OSM   H18S12674   5.111   0.012   8.415 -2.9414 -2.2500 -0.3918
  120OSM   H18T12675   4.953   0.112   8.413 -0.4877  2.0712 -1.2370
  120OSM   H18U12676   5.108   0.185   8.370  0.3414  0.6071  0.1230
  120OSM    C1F12677   4.882   0.787   6.918  0.3774 -0.7771  0.8765
  120OSM     OF12678   4.805   0.870   6.870  0.6197  0.0285 -0.1287
  120OSM    C2F12679   4.968   0.828   7.039  0.5800 -0.3812 -0.0079
  120OSM    H2F12680   5.046   0.901   7.007  0.3043  0.3822  1.0259
  120OSM    H2G12681   5.014   0.736   7.080 -0.6096 -0.3174  1.5378
  120OSM    C3F12682   4.868   0.888   7.140 -0.0421 -0.2546 -0.1988
  120OSM    H3F12683   4.812   0.977   7.102 -0.7919  0.4146  2.2673
  120OSM    H3G12684   4.933   0.940   7.214 -0.2798  0.2885 -0.3665
  120OSM    C4F12685   4.763   0.794   7.202  0.3796 -0.2732  0.0400
  120OSM    H4F12686   4.821   0.706   7.237  1.1783  0.0654 -0.4000
  120OSM    H4G12687   4.687   0.763   7.128 -2.0809  2.1287  1.3866
  120OSM    C5F12688   4.683   0.849   7.323 -0.2159  0.7340 -0.5031
  120OSM    H5F12689   4.605   0.915   7.280 -0.1364  0.4586 -1.0791
  120OSM    H5G12690   4.746   0.922   7.377 -0.1489 -0.5577  1.2691
  120OSM    C6F12691   4.623   0.744   7.426  0.2807 -0.2900  0.3335
  120OSM    H6F12692   4.709   0.700   7.481  1.7537  1.3352 -0.5391
  120OSM    H6G12693   4.567   0.663   7.374 -2.9612  1.6745  0.5026
  120OSM    C7F12694   4.530   0.820   7.523  0.3431  0.2851  0.4620
  120OSM    H7F12695   4.446   0.864   7.467 -0.2926  1.5840  2.3237
  120OSM    H7G12696   4.591   0.902   7.567  1.7226 -0.9835  1.0327
  120OSM    C8F12697   4.480   0.734   7.637 -0.3196 -0.1124 -1.1638
  120OSM    H8F12698   4.437   0.637   7.605 -0.2632 -0.7051  0.5104
  120OSM    H8G12699   4.388   0.784   7.675 -0.2708 -0.2243 -0.8959
  120OSM    C9F12700   4.594   0.722   7.741  0.3334  0.7989 -0.0226
  120OSM    H9F12701   4.641   0.815   7.776 -0.4914  1.8130 -1.4929
  120OSM   C10F12702   4.652   0.604   7.767  0.2760  0.1978 -0.8328
  120OSM   H10F12703   4.730   0.600   7.844 -2.8005  0.5210  2.5467
  120OSM   C11F12704   4.615   0.471   7.712  0.1166 -0.6430 -0.4813
  120OSM   H11F12705   4.705   0.407   7.702  0.1334 -0.9903  1.4455
  120OSM   H11G12706   4.561   0.473   7.615 -0.7836  0.9055  0.0114
  120OSM   C12F12707   4.514   0.399   7.810 -0.0140 -0.5535  0.0521
  120OSM   H12F12708   4.411   0.440   7.807 -1.1176 -3.0903  0.4090
  120OSM   H12G12709   4.548   0.406   7.916 -0.1377  1.4870 -0.0087
  120OSM   C13F12710   4.497   0.253   7.760  1.0804  0.1482  0.3598
  120OSM   H13F12711   4.580   0.181   7.778  0.1047 -0.6922  1.6283
  120OSM   H13G12712   4.482   0.250   7.650 -0.1657  1.0085  0.4835
  120OSM   C14F12713   4.371   0.187   7.827  0.0793 -0.0974  0.1710
  120OSM   H14F12714   4.347   0.091   7.778 -1.6182 -1.2642  3.0298
  120OSM   H14G12715   4.282   0.254   7.828  1.1694  1.4319  2.4698
  120OSM   C15F12716   4.391   0.163   7.981 -0.4067  0.1466 -0.1446
  120OSM   H15F12717   4.414   0.264   8.022  1.6209  0.5986 -2.1822
  120OSM   H15G12718   4.475   0.094   8.006 -0.9660 -0.1167  1.0744
  120OSM   C16F12719   4.254   0.112   8.035  0.4471  0.0532 -0.2372
  120OSM   H16F12720   4.239   0.011   7.991  0.6444  1.2519 -3.2870
  120OSM   H16G12721   4.168   0.182   8.024 -1.2078 -1.3130  2.7747
  120OSM   C17F12722   4.261   0.111   8.186  0.1468  0.2912 -0.5785
  120OSM   H17F12723   4.273   0.212   8.230 -0.8429  0.2526 -0.1981
  120OSM   H17G12724   4.349   0.050   8.216  1.5102  1.8752 -1.1847
  120OSM   C18F12725   4.135   0.053   8.252  0.4126  0.7225 -0.0805
  120OSM   H18F12726   4.103  -0.046   8.214  0.6309  0.3224  0.7496
  120OSM   H18G12727   4.043   0.111   8.229 -0.8151 -1.5749 -1.3144
  120OSM   H18H12728   4.159   0.045   8.361  2.1199 -0.2718 -0.4851
  121OSM      N12729   0.725   2.512   5.781  0.4451 -0.3026 -0.0821
  121OSM    C1512730   0.845   2.531   5.701  0.3403  0.0753  0.4072
  121OSM   H15A12731   0.874   2.634   5.685  0.5822  0.4290  2.7669
  121OSM   H15B12732   0.845   2.483   5.605  2.1698  0.9902 -0.1118
  121OSM   H15C12733   0.931   2.492   5.754 -0.4693 -1.7309  0.4360
  121OSM    C1412734   0.615   2.557   5.696  0.1456 -0.2949  0.2755
  121OSM   H14A12735   0.523   2.556   5.752  0.4828  1.3303  0.9144
  121OSM   H14B12736   0.612   2.492   5.610  0.3254  0.6255 -0.4487
  121OSM   H14C12737   0.636   2.659   5.668  2.1434  0.6713  4.4371
  121OSM    C1312738   0.705   2.367   5.811 -0.0645 -1.1441 -0.3715
  121OSM   H13A12739   0.718   2.309   5.721 -0.7400 -1.3629 -0.3326
  121OSM   H13B12740   0.611   2.345   5.860 -0.2662 -1.7727 -1.0226
  121OSM   H13C12741   0.780   2.324   5.876  2.1579 -0.2197 -2.1742
  121OSM    C1212742   0.745   2.591   5.912  1.1370  0.5206  0.4343
  121OSM   H12A12743   0.733   2.697   5.893 -0.5970  0.3176  0.2080
  121OSM   H12B12744   0.840   2.568   5.957  2.2043 -0.6302 -2.1841
  121OSM    C1112745   0.647   2.562   6.022 -0.2433 -0.0324 -0.3439
  121OSM   H11A12746   0.693   2.596   6.117  0.6965  1.2241 -1.2093
  121OSM   H11B12747   0.637   2.452   6.029 -1.1455  0.0171 -0.7433
  121OSM      P12748   0.474   2.756   5.973 -0.3890  0.3516 -0.1180
  121OSM    O1312749   0.603   2.832   5.992  0.0686 -0.4022  0.0804
  121OSM    O1412750   0.405   2.771   5.845  0.0593 -0.1886 -0.2633
  121OSM    O1112751   0.374   2.806   6.076 -0.4357 -0.1749 -0.1716
  121OSM    O1212752   0.513   2.608   6.001  0.6934 -0.7352  0.0539
  121OSM    C1S12753   0.313   2.716   6.173  0.0876  0.2711 -0.2890
  121OSM    H1S12754   0.314   2.611   6.138  1.9042 -0.1958  0.9980
  121OSM    H1T12755   0.204   2.722   6.193 -0.0460 -2.1237  0.0058
  121OSM     NF12756   0.319   2.629   6.400 -0.5977 -0.6757 -0.7334
  121OSM    HNF12757   0.241   2.658   6.454  0.1889  1.6034 -0.7278
  121OSM    C2S12758   0.375   2.729   6.319  0.0937  1.0595  0.3273
  121OSM    H2S12759   0.481   2.711   6.291 -0.8765 -1.4448 -2.3533
  121OSM    C3S12760   0.351   2.877   6.368  0.0465 -0.0856 -0.2292
  121OSM    H3S12761   0.243   2.894   6.389 -0.2968  1.1826 -2.7109
  121OSM     O312762   0.384   2.975   6.265 -0.3439 -0.2804 -0.1302
  121OSM    HO312763   0.422   2.928   6.190 -1.4677  1.3049 -1.7526
  121OSM    C4S12764   0.411   2.908   6.496  0.3108  1.0233  0.3347
  121OSM    H4S12765   0.347   2.899   6.585 -0.7675 -0.7162 -0.5605
  121OSM    C5S12766   0.546   2.941   6.513 -0.4556  0.6365 -0.1936
  121OSM    H5S12767   0.610   2.963   6.426 -0.6077 -0.2018 -0.5322
  121OSM    C6S12768   0.615   2.960   6.646 -0.1873 -0.1731  0.0169
  121OSM    H6S12769   0.637   3.069   6.650 -0.7848 -0.0248 -0.7161
  121OSM    H6T12770   0.716   2.912   6.642 -0.1225 -0.0167 -0.2583
  121OSM    C7S12771   0.544   2.913   6.774  0.8828 -0.1516 -0.3819
  121OSM    H7S12772   0.539   2.802   6.769 -0.3238 -0.1605  0.6550
  121OSM    H7T12773   0.441   2.956   6.772  1.8836  2.8212  2.8584
  121OSM    C8S12774   0.621   2.946   6.905  0.6293 -0.2603 -0.3902
  121OSM    H8S12775   0.722   2.905   6.884 -0.5823 -2.8775 -1.5795
  121OSM    H8T12776   0.576   2.881   6.982  2.2503 -1.5321 -0.4526
  121OSM    C9S12777   0.606   3.092   6.948 -0.2522  0.2030 -0.2027
  121OSM    H9S12778   0.500   3.121   6.936 -0.5216 -1.3553 -1.9165
  121OSM    H9T12779   0.669   3.156   6.883 -0.9797  0.8650 -0.2680
  121OSM   C10S12780   0.652   3.132   7.099 -0.0010 -0.3715 -0.5028
  121OSM   H10S12781   0.669   3.241   7.108  1.2043 -0.6179  0.3976
  121OSM   H10T12782   0.749   3.083   7.124 -0.3573 -1.2152 -0.7307
  121OSM   C11S12783   0.553   3.064   7.201 -0.4016  0.4070 -0.5420
  121OSM   H11S12784   0.547   2.955   7.185  1.2738  0.2560 -0.3564
  121OSM   H11T12785   0.451   3.106   7.191 -0.0352  0.9885 -1.9887
  121OSM   C12S12786   0.600   3.069   7.349  0.0579  0.4591 -0.4545
  121OSM   H12S12787   0.698   3.017   7.345 -0.9563 -1.6063  0.5594
  121OSM   H12T12788   0.530   3.007   7.409  0.1875 -0.1891 -0.9631
  121OSM   C13S12789   0.607   3.207   7.411  0.4105  0.6898  0.5396
  121OSM   H13S12790   0.507   3.254   7.395  0.6229  1.5115  1.4854
  121OSM   H13T12791   0.684   3.275   7.369 -1.1682  1.0625 -1.9924
  121OSM   C14S12792   0.620   3.204   7.565 -0.4004  0.2602 -0.3057
  121OSM   H14S12793   0.724   3.168   7.582 -0.9841 -1.9621 -1.1587
  121OSM   H14T12794   0.555   3.137   7.625  2.6245 -1.1007  1.7123
  121OSM   C15S12795   0.587   3.334   7.643  0.2991 -0.2123 -0.0651
  121OSM   H15S12796   0.481   3.364   7.635 -0.6802 -2.6793  2.2811
  121OSM   H15T12797   0.644   3.418   7.599  1.2741 -1.3332 -1.0380
  121OSM   C16S12798   0.615   3.323   7.798  0.2264  0.5491 -0.2591
  121OSM   H16S12799   0.719   3.286   7.813  0.5486  0.2648 -2.7801
  121OSM   H16T12800   0.546   3.254   7.852  0.2725 -0.0022 -0.8952
  121OSM   C17S12801   0.613   3.463   7.861  0.2890  0.1120 -0.7574
  121OSM   H17S12802   0.533   3.528   7.819  0.0566 -0.5028 -1.2915
  121OSM   H17T12803   0.701   3.523   7.830  1.2829 -0.5176  0.7387
  121OSM   C18S12804   0.617   3.466   8.010 -0.0095  0.3529 -0.0734
  121OSM   H18S12805   0.699   3.412   8.062  0.2044  2.1058  1.5219
  121OSM   H18T12806   0.521   3.423   8.045 -0.6592  1.4859 -0.4034
  121OSM   H18U12807   0.638   3.568   8.049  2.8917  0.2124 -1.0107
  121OSM    C1F12808   0.343   2.497   6.387 -0.4224  0.0794 -1.0281
  121OSM     OF12809   0.426   2.458   6.307  0.1942 -0.5576  0.0289
  121OSM    C2F12810   0.253   2.403   6.468 -0.2857 -0.5905 -0.3265
  121OSM    H2F12811   0.234   2.315   6.404 -3.4481 -0.5304  0.3686
  121OSM    H2G12812   0.160   2.457   6.497  0.4217  0.1609  0.6250
  121OSM    C3F12813   0.331   2.350   6.589  0.2223 -0.5251 -0.3375
  121OSM    H3F12814   0.418   2.285   6.563 -1.3473 -3.1423  0.5594
  121OSM    H3G12815   0.257   2.286   6.642  0.4930 -0.2194  0.4140
  121OSM    C4F12816   0.381   2.457   6.681  0.1377 -1.0657 -0.0115
  121OSM    H4F12817   0.301   2.528   6.709 -0.6598 -2.0622  0.2848
  121OSM    H4G12818   0.460   2.512   6.626 -0.1810  0.8265  1.3457
  121OSM    C5F12819   0.450   2.399   6.808  0.4190 -0.5448 -0.1376
  121OSM    H5F12820   0.488   2.296   6.787  0.8616 -0.1245 -1.5537
  121OSM    H5G12821   0.375   2.378   6.886 -0.4156  0.7522 -0.5653
  121OSM    C6F12822   0.564   2.489   6.850  0.1115  0.3737  0.3348
  121OSM    H6F12823   0.519   2.590   6.857  0.7739  0.7471 -0.6519
  121OSM    H6G12824   0.642   2.482   6.771 -2.8494 -0.9208 -2.7321
  121OSM    C7F12825   0.642   2.451   6.974 -0.5021  0.3658 -0.4773
  121OSM    H7F12826   0.685   2.350   6.955 -0.5665  0.4011 -0.8190
  121OSM    H7G12827   0.564   2.443   7.053 -0.1553  0.7559 -0.0854
  121OSM    C8F12828   0.746   2.561   7.003  0.8494  0.3701  0.8932
  121OSM    H8F12829   0.698   2.659   6.982  3.2424  1.5865  0.8285
  121OSM    H8G12830   0.826   2.552   6.926  0.5483 -1.1296  0.7212
  121OSM    C9F12831   0.808   2.538   7.137 -0.0130 -0.1094  0.2321
  121OSM    H9F12832   0.885   2.460   7.140  0.4701  0.2967 -0.9187
  121OSM   C10F12833   0.786   2.609   7.250  0.3138  0.0156 -0.1793
  121OSM   H10F12834   0.840   2.576   7.340  1.0628 -0.1462 -0.6813
  121OSM   C11F12835   0.682   2.719   7.274  0.2156 -0.0439 -0.3558
  121OSM   H11F12836   0.607   2.725   7.193 -1.6843 -1.7463  1.1552
  121OSM   H11G12837   0.733   2.818   7.286  1.8078 -1.1515  3.8996
  121OSM   C12F12838   0.607   2.685   7.406 -0.8111  0.3980  0.7673
  121OSM   H12F12839   0.566   2.582   7.402  1.5639 -0.6520  1.5672
  121OSM   H12G12840   0.517   2.750   7.406 -1.3873 -0.3157 -1.6624
  121OSM   C13F12841   0.684   2.706   7.535 -0.1762  1.1799 -0.4769
  121OSM   H13F12842   0.737   2.804   7.546 -1.1521  1.6141  0.5251
  121OSM   H13G12843   0.759   2.624   7.539 -0.8237  0.3668 -3.1487
  121OSM   C14F12844   0.597   2.683   7.659  0.2888  0.8088 -0.4423
  121OSM   H14F12845   0.644   2.627   7.743  0.4948 -0.3119 -1.2773
  121OSM   H14G12846   0.507   2.627   7.627 -0.6295  2.0726 -0.1500
  121OSM   C15F12847   0.531   2.809   7.717  0.0282  0.1710  0.0088
  121OSM   H15F12848   0.479   2.866   7.637  1.6463  0.7992 -0.6227
  121OSM   H15G12849   0.611   2.881   7.746 -1.1254  1.9478 -1.0287
  121OSM   C16F12850   0.428   2.799   7.830  0.1355  0.7911  0.9405
  121OSM   H16F12851   0.354   2.727   7.789  0.8570  2.2249 -3.4379
  121OSM   H16G12852   0.390   2.902   7.850  1.1543  1.3016  0.3221
  121OSM   C17F12853   0.479   2.733   7.959 -0.2983 -0.0155  0.5483
  121OSM   H17F12854   0.549   2.806   8.003  0.5192 -1.2486  1.3517
  121OSM   H17G12855   0.529   2.634   7.946 -1.0990 -0.4669  0.7819
  121OSM   C18F12856   0.365   2.699   8.056  0.2747  0.6751  0.1116
  121OSM   H18F12857   0.304   2.615   8.015  0.4579  0.9998 -0.8586
  121OSM   H18G12858   0.296   2.783   8.077 -1.1853 -0.7305  1.1749
  121OSM   H18H12859   0.413   2.660   8.148 -1.4406 -0.1625  0.6951
  122OSM      N12860   5.633   2.719   5.831  0.0746 -0.6945 -0.1458
  122OSM    C1512861   5.705   2.773   5.713 -0.4859 -0.0263  0.2801
  122OSM   H15A12862   5.643   2.792   5.627  0.4752  2.3894  0.0247
  122OSM   H15B12863   5.783   2.703   5.690 -0.7004  0.5709 -2.5850
  122OSM   H15C12864   5.747   2.871   5.733 -1.1291  0.8883 -2.4570
  122OSM    C1412865   5.515   2.810   5.867  0.2381 -1.3708 -0.9886
  122OSM   H14A12866   5.451   2.770   5.944  0.4206 -0.5684 -0.4046
  122OSM   H14B12867   5.459   2.829   5.776  0.1942  1.8555 -0.4285
  122OSM   H14C12868   5.549   2.910   5.889 -1.1911 -1.5212  2.4357
  122OSM    C1312869   5.567   2.589   5.790 -0.7985 -0.3125  0.0364
  122OSM   H13A12870   5.517   2.607   5.696  1.5126  1.9680 -0.8597
  122OSM   H13B12871   5.482   2.568   5.854 -0.5682 -2.0045 -0.1730
  122OSM   H13C12872   5.630   2.502   5.798  2.4116  1.5627 -2.5885
  122OSM    C1212873   5.725   2.702   5.950  0.5309  0.0284 -0.0946
  122OSM   H12A12874   5.810   2.639   5.931  0.2326 -0.8552  1.3715
  122OSM   H12B12875   5.658   2.660   6.023  0.4012 -0.1621 -0.3193
  122OSM    C1112876   5.776   2.833   6.012 -0.2425 -0.5836 -0.1176
  122OSM   H11A12877   5.822   2.797   6.106 -1.0216  1.2601  1.0226
  122OSM   H11B12878   5.692   2.898   6.045  0.3094 -0.4964  1.1532
  122OSM      P12879   6.016   2.874   5.894  0.3346 -0.0189  0.2996
  122OSM    O1312880   6.039   2.733   5.860 -0.4362  0.0795 -0.2741
  122OSM    O1412881   6.070   2.975   5.800 -0.4891  0.1362 -0.0851
  122OSM    O1112882   6.086   2.908   6.035  0.1670 -0.2583  0.4605
  122OSM    O1212883   5.860   2.909   5.936 -0.4829  0.4050 -0.4361
  122OSM    C1S12884   6.052   3.022   6.119  0.1639  0.4009 -0.5770
  122OSM    H1S12885   5.942   3.040   6.118  0.2178  0.9007  0.8522
  122OSM    H1T12886   6.106   3.113   6.084  1.0796 -0.4699 -1.5092
  122OSM     NF12887   6.038   3.085   6.362  0.0865 -0.2034  0.2388
  122OSM    HNF12888   6.095   3.156   6.401 -1.7555  1.2141  0.5048
  122OSM    C2S12889   6.105   3.003   6.268 -0.6422  0.3576  0.3171
  122OSM    H2S12890   6.077   2.896   6.283  0.8585 -0.3038 -1.2484
  122OSM    C3S12891   6.253   3.018   6.272  0.8796 -0.4383  0.8027
  122OSM    H3S12892   6.282   3.117   6.230 -1.0824  0.0663  0.5125
  122OSM     O312893   6.319   2.929   6.184  0.4970 -0.0588  0.7927
  122OSM    HO312894   6.245   2.877   6.152  0.4614 -0.2373  1.1597
  122OSM    C4S12895   6.307   2.996   6.408  0.2966 -0.3620 -0.1623
  122OSM    H4S12896   6.312   3.091   6.464 -2.4272 -0.9561  1.2896
  122OSM    C5S12897   6.354   2.882   6.465 -0.0010  0.4572  0.7150
  122OSM    H5S12898   6.367   2.794   6.399 -1.4212 -0.5307  1.6808
  122OSM    C6S12899   6.407   2.866   6.604  1.4440  0.2309  0.1972
  122OSM    H6S12900   6.518   2.853   6.608  1.3697 -0.4307  0.1813
  122OSM    H6T12901   6.353   2.783   6.654  1.5986 -0.3248 -0.5575
  122OSM    C7S12902   6.382   2.995   6.698 -0.9188 -0.4554 -0.2782
  122OSM    H7S12903   6.414   3.091   6.653 -0.0680  0.7313  2.6055
  122OSM    H7T12904   6.440   2.967   6.788  0.2336  3.3781  0.3573
  122OSM    C8S12905   6.236   3.015   6.737 -0.4219 -0.3130 -0.5239
  122OSM    H8S12906   6.204   2.914   6.772 -1.1386  0.4625  1.1818
  122OSM    H8T12907   6.172   3.064   6.661  0.6255  2.7759  0.4297
  122OSM    C9S12908   6.220   3.102   6.862  0.3059  0.3151 -0.4223
  122OSM    H9S12909   6.113   3.122   6.883  0.3843  0.8722 -0.5195
  122OSM    H9T12910   6.270   3.196   6.829 -1.1406  1.7649  1.2652
  122OSM   C10S12911   6.301   3.056   6.984 -0.5125  0.2529 -0.1231
  122OSM   H10S12912   6.410   3.071   6.969 -0.5458 -1.2824 -2.3264
  122OSM   H10T12913   6.285   2.946   6.992 -0.9354  0.1201 -2.2473
  122OSM   C11S12914   6.264   3.127   7.118  0.3429 -0.2101 -0.0016
  122OSM   H11S12915   6.252   3.234   7.090  2.3934 -0.4244 -1.9476
  122OSM   H11T12916   6.342   3.129   7.196 -1.0924  1.3617  1.4743
  122OSM   C12S12917   6.133   3.064   7.168  0.6052  0.2795 -0.2990
  122OSM   H12S12918   6.138   2.954   7.160  3.5729  0.3931 -1.0053
  122OSM   H12T12919   6.054   3.091   7.094 -1.4964 -1.0564  1.3285
  122OSM   C13S12920   6.093   3.114   7.315 -0.8016  0.4627  0.3352
  122OSM   H13S12921   6.175   3.075   7.379 -0.7829 -1.7281 -0.9273
  122OSM   H13T12922   5.999   3.068   7.354  0.1148  0.1485  2.2957
  122OSM   C14S12923   6.076   3.266   7.324  0.1779  0.7020 -0.1048
  122OSM   H14S12924   5.988   3.307   7.270  0.8487  0.9221 -1.0618
  122OSM   H14T12925   6.172   3.303   7.283 -0.4020  2.1804 -0.1968
  122OSM   C15S12926   6.066   3.306   7.474  0.2528  0.4925  0.3056
  122OSM   H15S12927   6.164   3.281   7.521  0.6491 -1.3599 -1.3562
  122OSM   H15T12928   5.995   3.237   7.525  0.2399 -2.5728 -3.3745
  122OSM   C16S12929   6.016   3.447   7.492  0.0453  0.2561 -0.2602
  122OSM   H16S12930   5.911   3.461   7.459 -0.5544  0.6490  1.6735
  122OSM   H16T12931   6.083   3.520   7.441  0.2748  0.6388  0.5709
  122OSM   C17S12932   6.019   3.498   7.644 -0.2382  0.3260 -0.2252
  122OSM   H17S12933   6.115   3.459   7.685 -0.2204  2.2083  1.6771
  122OSM   H17T12934   5.934   3.446   7.694 -0.5823  1.8856  0.8750
  122OSM   C18S12935   6.006   3.645   7.664  0.5737  0.1742  0.3073
  122OSM   H18S12936   5.999   3.680   7.770  0.1231  3.2794 -0.6355
  122OSM   H18T12937   5.911   3.670   7.612  0.6502 -1.2065 -0.5327
  122OSM   H18U12938   6.094   3.701   7.625 -0.2881  2.2185  1.1433
  122OSM    C1F12939   5.907   3.077   6.395  0.4131  0.6012 -0.5304
  122OSM     OF12940   5.819   3.036   6.322 -0.1897  0.2225 -0.2893
  122OSM    C2F12941   5.875   3.124   6.532  0.0472  0.2810  0.4451
  122OSM    H2F12942   5.960   3.191   6.559 -1.3430  2.6421 -0.6942
  122OSM    H2G12943   5.870   3.030   6.591 -3.0199 -0.1475 -0.3186
  122OSM    C3F12944   5.746   3.200   6.541 -0.6375  0.1039  0.2815
  122OSM    H3F12945   5.674   3.123   6.505  2.1686 -2.8908  0.6524
  122OSM    H3G12946   5.738   3.274   6.458 -0.5139 -0.4631 -0.2489
  122OSM    C4F12947   5.722   3.252   6.687  0.3106  0.3530 -0.0266
  122OSM    H4F12948   5.622   3.298   6.700 -1.6345 -3.4422  0.1269
  122OSM    H4G12949   5.796   3.330   6.714  1.4546  0.1936 -2.4827
  122OSM    C5F12950   5.731   3.138   6.790  0.3618 -0.5934  0.1658
  122OSM    H5F12951   5.836   3.105   6.801  0.3017 -1.1985 -0.9444
  122OSM    H5G12952   5.659   3.055   6.770  0.9433 -0.9812 -0.3640
  122OSM    C6F12953   5.687   3.183   6.933  0.6017  0.4338  0.0559
  122OSM    H6F12954   5.583   3.220   6.927  0.7744  0.9522  0.2584
  122OSM    H6G12955   5.752   3.265   6.969 -0.1196  1.0437 -0.0081
  122OSM    C7F12956   5.693   3.061   7.033  0.0928  0.5472  1.0261
  122OSM    H7F12957   5.792   3.014   7.016 -0.0171  1.2817 -2.5249
  122OSM    H7G12958   5.617   2.981   7.021  0.5200  0.1694  0.8343
  122OSM    C8F12959   5.685   3.099   7.177 -0.1013 -0.1920 -0.0546
  122OSM    H8F12960   5.779   3.156   7.199 -0.3709  0.1038  0.3484
  122OSM    H8G12961   5.701   3.009   7.239  0.5769 -0.1231 -0.1183
  122OSM    C9F12962   5.557   3.172   7.211 -0.1946  0.5504 -0.1191
  122OSM    H9F12963   5.463   3.118   7.193 -0.1692  0.9104 -1.4413
  122OSM   C10F12964   5.551   3.279   7.285  0.2893 -0.1574  0.4213
  122OSM   H10F12965   5.454   3.332   7.283 -0.0204 -0.7415 -0.8226
  122OSM   C11F12966   5.670   3.358   7.343  0.2582 -0.5370 -0.0665
  122OSM   H11F12967   5.701   3.421   7.256 -0.1455 -2.2479 -1.4973
  122OSM   H11G12968   5.753   3.292   7.376  1.4301  0.1951 -1.4390
  122OSM   C12F12969   5.648   3.465   7.450 -0.0762 -0.2082 -0.1748
  122OSM   H12F12970   5.550   3.514   7.437  0.4498  0.7368 -0.6998
  122OSM   H12G12971   5.723   3.546   7.442 -1.0686  0.6787 -0.6895
  122OSM   C13F12972   5.652   3.405   7.590  0.1118 -0.2058  0.7124
  122OSM   H13F12973   5.636   3.492   7.657 -0.8567 -1.4141  2.1186
  122OSM   H13G12974   5.753   3.367   7.617  0.4638 -0.4913 -0.9342
  122OSM   C14F12975   5.550   3.299   7.619  0.5997  0.3330 -0.0301
  122OSM   H14F12976   5.563   3.208   7.557 -1.9790 -0.2674  0.2080
  122OSM   H14G12977   5.452   3.337   7.583 -0.9004  0.3580  3.7047
  122OSM   C15F12978   5.538   3.248   7.770  0.3369  0.0029  0.4679
  122OSM   H15F12979   5.631   3.197   7.802  0.0901  0.7327  2.4801
  122OSM   H15G12980   5.447   3.183   7.769  0.5227 -0.2673 -0.3619
  122OSM   C16F12981   5.495   3.353   7.873 -0.6583  0.5235  0.3597
  122OSM   H16F12982   5.410   3.409   7.828 -0.4655 -1.5476 -2.9517
  122OSM   H16G12983   5.579   3.425   7.879  0.8933 -0.8883 -2.3275
  122OSM   C17F12984   5.464   3.301   8.010  0.2466  0.1242 -0.0973
  122OSM   H17F12985   5.556   3.247   8.041  0.2297 -0.8212 -1.5934
  122OSM   H17G12986   5.392   3.217   8.004  0.8571 -0.5658  1.5206
  122OSM   C18F12987   5.418   3.409   8.109  0.5047  0.3573 -0.2978
  122OSM   H18F12988   5.318   3.450   8.084 -0.0763  0.1199  1.4929
  122OSM   H18G12989   5.486   3.496   8.114  0.5521  0.3864 -1.3160
  122OSM   H18H12990   5.406   3.360   8.208 -2.6429  0.0902 -0.7085
  123OSM      N12991   4.009   6.659   6.166  0.2052 -0.9090  0.4175
  123OSM    C1512992   4.100   6.549   6.204  1.2190  0.0755  0.3030
  123OSM   H15A12993   4.173   6.582   6.277  0.5871  0.1236  0.9268
  123OSM   H15B12994   4.155   6.515   6.118  0.1655  0.4523 -0.5317
  123OSM   H15C12995   4.045   6.466   6.244  0.0162  0.4723 -0.4631
  123OSM    C1412996   4.094   6.762   6.091 -0.6104  0.8509  0.1343
  123OSM   H14A12997   4.168   6.802   6.159 -0.5606  0.3273  0.3956
  123OSM   H14B12998   4.035   6.848   6.062  0.4858  1.6095  0.1035
  123OSM   H14C12999   4.139   6.716   6.004 -1.1078 -0.6490  0.6328
  123OSM    C1313000   3.896   6.612   6.076  0.0281 -0.1264 -0.8895
  123OSM   H13A13001   3.833   6.550   6.138 -0.8847  2.5283  1.0259
  123OSM   H13B13002   3.926   6.561   5.985  1.9502 -1.0894  0.2151
  123OSM   H13C13003   3.838   6.695   6.039  3.6088  3.4859  0.8758
  123OSM    C1213004   3.949   6.720   6.283 -0.2225  0.1095 -0.3984
  123OSM   H12A13005   3.881   6.800   6.258 -3.3275 -1.9321  0.9172
  123OSM   H12B13006   4.026   6.761   6.347 -0.2856 -1.1858  0.5490
  123OSM    C1113007   3.879   6.628   6.385  0.7302  0.5553 -0.3033
  123OSM   H11A13008   3.857   6.688   6.475  0.8765 -1.0542  0.8470
  123OSM   H11B13009   3.947   6.544   6.410  0.6837  0.9102  1.0598
  123OSM      P13010   3.675   6.484   6.412 -0.3612  0.1344 -0.3630
  123OSM    O1313011   3.534   6.499   6.372 -0.6791  0.4356  0.4547
  123OSM    O1413012   3.737   6.350   6.391  0.4281 -0.0229 -0.9519
  123OSM    O1113013   3.685   6.527   6.569 -0.1866  0.0612 -0.0728
  123OSM    O1213014   3.754   6.589   6.335 -0.1186  0.2459  0.0596
  123OSM    C1S13015   3.596   6.615   6.636 -0.2628  0.4591  0.3943
  123OSM    H1S13016   3.494   6.579   6.613  0.5897 -0.4204 -2.4871
  123OSM    H1T13017   3.593   6.713   6.585 -2.0813 -0.0972 -0.6351
  123OSM     NF13018   3.527   6.678   6.868  0.6295 -1.0587 -0.0396
  123OSM    HNF13019   3.543   6.757   6.926 -1.1878  1.6687 -2.9340
  123OSM    C2S13020   3.630   6.621   6.790 -0.5490  0.0962 -0.4095
  123OSM    H2S13021   3.642   6.517   6.825  1.3729 -0.2829 -2.0625
  123OSM    C3S13022   3.769   6.680   6.820 -0.0552 -0.3490  0.4724
  123OSM    H3S13023   3.769   6.788   6.792  1.8402 -0.0091  1.5825
  123OSM     O313024   3.875   6.626   6.746 -0.2097 -0.8062 -0.1115
  123OSM    HO313025   3.836   6.554   6.696  1.1900 -0.4769 -1.7420
  123OSM    C4S13026   3.812   6.670   6.961  0.2506 -0.2669  0.3824
  123OSM    H4S13027   3.851   6.574   6.998 -2.3513 -0.6919  2.2694
  123OSM    C5S13028   3.805   6.766   7.050 -0.6360 -0.0538 -0.0810
  123OSM    H5S13029   3.751   6.860   7.032 -2.7227 -0.9895  0.9907
  123OSM    C6S13030   3.867   6.755   7.189 -0.4383 -0.2776  0.5790
  123OSM    H6S13031   3.970   6.797   7.189 -0.4327 -0.2922  1.2846
  123OSM    H6T13032   3.885   6.647   7.204  0.1688 -0.8616 -3.2264
  123OSM    C7S13033   3.782   6.824   7.304 -0.5428  0.9965  0.0203
  123OSM    H7S13034   3.828   6.791   7.399  0.1001  0.7252 -0.3746
  123OSM    H7T13035   3.676   6.792   7.296 -1.7229  4.5190 -0.0876
  123OSM    C8S13036   3.794   6.971   7.299  0.6156  0.5574  0.3958
  123OSM    H8S13037   3.763   7.008   7.199  2.2295  0.8678 -0.0237
  123OSM    H8T13038   3.900   7.004   7.304  0.4943  0.8152  1.3420
  123OSM    C9S13039   3.700   7.050   7.393  0.1019 -0.1490 -0.2350
  123OSM    H9S13040   3.611   6.987   7.415 -1.3110  1.9803  0.3790
  123OSM    H9T13041   3.670   7.144   7.342 -1.2930 -0.3518  0.1741
  123OSM   C10S13042   3.762   7.098   7.526 -0.6855  1.0722  0.5632
  123OSM   H10S13043   3.821   7.188   7.502  1.3139 -0.2908  0.1589
  123OSM   H10T13044   3.834   7.018   7.553  1.5529  2.1464 -1.8776
  123OSM   C11S13045   3.653   7.137   7.635 -0.9873 -0.4448  0.6718
  123OSM   H11S13046   3.610   7.231   7.596 -0.7808 -0.6431 -0.0402
  123OSM   H11T13047   3.714   7.160   7.726 -1.7207  0.0008  1.0596
  123OSM   C12S13048   3.540   7.041   7.664 -0.3227  0.1209 -0.5856
  123OSM   H12S13049   3.583   6.939   7.674  2.7936  1.2977 -0.8536
  123OSM   H12T13050   3.464   7.049   7.583 -1.2887  0.8362  0.3739
  123OSM   C13S13051   3.469   7.092   7.789  0.2880  0.6208 -0.4538
  123OSM   H13S13052   3.363   7.057   7.787  0.0425  1.3501 -0.2561
  123OSM   H13T13053   3.474   7.203   7.789  0.9270  0.6437  1.9640
  123OSM   C14S13054   3.540   7.040   7.912  0.8668  0.3770 -0.3587
  123OSM   H14S13055   3.623   7.105   7.944  0.5338  0.8415 -0.4230
  123OSM   H14T13056   3.605   6.953   7.889  1.6108  0.2803  1.8364
  123OSM   C15S13057   3.459   7.009   8.034  0.2078  0.2112  0.0975
  123OSM   H15S13058   3.509   6.950   8.114  3.2093  2.0638 -0.2808
  123OSM   H15T13059   3.366   6.953   8.008 -0.3756  0.8082  0.8601
  123OSM   C16S13060   3.395   7.133   8.109  0.4973  0.0837 -0.8737
  123OSM   H16S13061   3.355   7.190   8.023  0.2013 -0.8657 -1.3708
  123OSM   H16T13062   3.470   7.193   8.166 -1.8468  1.7982  0.6164
  123OSM   C17S13063   3.286   7.088   8.212  0.5656  0.3111  0.4317
  123OSM   H17S13064   3.317   7.113   8.315  0.1249 -0.7921  0.8562
  123OSM   H17T13065   3.257   6.981   8.197  1.3841  0.2045 -0.4870
  123OSM   C18S13066   3.160   7.171   8.185  0.0093  0.1714  0.1671
  123OSM   H18S13067   3.195   7.276   8.172 -0.2461  0.3909  1.1694
  123OSM   H18T13068   3.091   7.169   8.272  3.1814 -1.4276  2.8854
  123OSM   H18U13069   3.093   7.127   8.108 -1.3434  1.6333  0.4673
  123OSM    C1F13070   3.399   6.633   6.861 -0.3226  0.0220 -0.6044
  123OSM     OF13071   3.376   6.528   6.806 -0.0684  0.1583 -0.0440
  123OSM    C2F13072   3.292   6.716   6.927 -0.0805 -0.2414 -0.4475
  123OSM    H2F13073   3.203   6.655   6.903  0.3770 -0.6802 -1.0742
  123OSM    H2G13074   3.294   6.814   6.874  0.7446 -0.7083 -1.3246
  123OSM    C3F13075   3.313   6.740   7.080  0.2344 -0.3347 -0.0100
  123OSM    H3F13076   3.404   6.803   7.091  0.9391 -1.4745  1.0873
  123OSM    H3G13077   3.319   6.645   7.137 -0.0915 -0.3427  0.0084
  123OSM    C4F13078   3.192   6.805   7.149  0.6052 -0.1061 -0.2070
  123OSM    H4F13079   3.108   6.749   7.103  1.4409 -0.7752 -0.9637
  123OSM    H4G13080   3.185   6.915   7.136  2.2465  0.0804  0.2706
  123OSM    C5F13081   3.205   6.790   7.301  0.1720 -0.5352 -1.0536
  123OSM    H5F13082   3.302   6.831   7.338  1.2681 -2.7787 -1.2466
  123OSM    H5G13083   3.200   6.680   7.320  3.7990 -1.0046 -1.9964
  123OSM    C6F13084   3.091   6.859   7.369 -0.2698 -0.4557 -0.2125
  123OSM    H6F13085   3.006   6.800   7.327 -0.4308 -0.4308  0.0765
  123OSM    H6G13086   3.078   6.967   7.343 -0.7837 -0.5110 -0.2080
  123OSM    C7F13087   3.087   6.841   7.519 -0.6033 -0.1579  0.2747
  123OSM    H7F13088   3.172   6.896   7.565  0.7116 -1.9702  0.1293
  123OSM    H7G13089   3.107   6.732   7.531 -0.5335  0.0328  2.1770
  123OSM    C8F13090   2.955   6.880   7.574  0.2587  0.1823  0.2616
  123OSM    H8F13091   2.877   6.805   7.549  2.2563 -2.7585  2.1614
  123OSM    H8G13092   2.916   6.973   7.527 -1.5023  0.0951  1.4593
  123OSM    C9F13093   2.947   6.877   7.726  0.0137  0.3885 -0.1225
  123OSM    H9F13094   2.944   6.979   7.769 -1.9918  0.5777 -0.6401
  123OSM   C10F13095   2.929   6.766   7.803 -0.9119 -0.4313  0.9521
  123OSM   H10F13096   2.949   6.770   7.911  2.0024  0.1679  0.4753
  123OSM   C11F13097   2.915   6.630   7.748 -0.1920  0.2060  0.2399
  123OSM   H11F13098   2.969   6.554   7.809  0.7409  0.5307 -0.1489
  123OSM   H11G13099   2.965   6.603   7.652  2.4102 -1.2865  1.8713
  123OSM   C12F13100   2.774   6.583   7.764  0.3594 -0.2483  0.0873
  123OSM   H12F13101   2.768   6.485   7.713 -3.6538  0.0407 -0.2805
  123OSM   H12G13102   2.701   6.654   7.721 -0.1632 -0.7109  0.2048
  123OSM   C13F13103   2.735   6.562   7.914 -0.3655 -0.3379 -0.0797
  123OSM   H13F13104   2.750   6.657   7.970  1.4682 -1.1206  0.8241
  123OSM   H13G13105   2.791   6.486   7.971  0.4230 -0.0745 -0.4816
  123OSM   C14F13106   2.586   6.544   7.921  0.2488 -0.2601 -0.6143
  123OSM   H14F13107   2.552   6.446   7.880 -2.1925  1.0436 -1.9287
  123OSM   H14G13108   2.537   6.628   7.867 -2.2274 -0.1450  1.5495
  123OSM   C15F13109   2.540   6.545   8.068 -0.8688  0.3059  1.0766
  123OSM   H15F13110   2.567   6.642   8.116  0.8432  0.6653 -0.4707
  123OSM   H15G13111   2.591   6.462   8.121 -1.0026 -0.5766 -0.1167
  123OSM   C16F13112   2.384   6.518   8.086  0.3184 -0.3076  0.8151
  123OSM   H16F13113   2.361   6.427   8.027  1.4220 -0.0016 -0.1392
  123OSM   H16G13114   2.328   6.593   8.027 -0.5058  0.4606  2.5002
  123OSM   C17F13115   2.331   6.517   8.229 -0.1546  0.7420 -0.6942
  123OSM   H17F13116   2.398   6.462   8.299 -0.7239  2.7112  1.5227
  123OSM   H17G13117   2.230   6.471   8.220 -0.4129  1.6398 -3.6785
  123OSM   C18F13118   2.312   6.655   8.292 -0.2086 -0.2549  0.1590
  123OSM   H18F13119   2.267   6.650   8.393 -0.8655 -0.5503 -0.1361
  123OSM   H18G13120   2.237   6.713   8.233 -0.7466 -0.2619  0.8293
  123OSM   H18H13121   2.411   6.704   8.284  1.7128 -3.7725  0.2287
  124OSM      N13122   4.152   2.151   5.658 -0.8478  0.6563 -0.0856
  124OSM    C1513123   4.015   2.210   5.661 -0.0147  0.6518 -1.1875
  124OSM   H15A13124   3.940   2.140   5.693  0.8541  0.1198 -0.2605
  124OSM   H15B13125   3.990   2.239   5.560  1.1969  1.7889 -1.1986
  124OSM   H15C13126   4.014   2.299   5.722 -0.9424  0.2063 -0.5349
  124OSM    C1413127   4.149   2.058   5.545 -0.2130  0.3299  0.5934
  124OSM   H14A13128   4.232   1.990   5.559 -1.4976 -0.9726  2.3978
  124OSM   H14B13129   4.149   2.109   5.450  1.4865  0.0522  0.3994
  124OSM   H14C13130   4.061   1.996   5.543  0.8618 -1.2599 -0.1300
  124OSM    C1313131   4.257   2.257   5.640  0.0989  0.5803  0.3018
  124OSM   H13A13132   4.243   2.326   5.722  0.9946 -0.3626  1.2697
  124OSM   H13B13133   4.239   2.317   5.552  2.2485  1.0821  0.1508
  124OSM   H13C13134   4.358   2.223   5.622 -0.6706 -0.9467 -1.4620
  124OSM    C1213135   4.184   2.067   5.792 -0.0699 -0.4829  0.2280
  124OSM   H12A13136   4.276   2.015   5.772 -0.9661 -2.6134  1.4172
  124OSM   H12B13137   4.116   1.984   5.786  0.5900 -0.9408 -1.6083
  124OSM    C1113138   4.169   2.130   5.934  0.0785 -0.1539  0.4442
  124OSM   H11A13139   4.241   2.214   5.934 -0.6566  0.5480  2.5775
  124OSM   H11B13140   4.204   2.047   5.999  1.8090  0.5667  0.4642
  124OSM      P13141   3.926   2.086   6.018  0.1182 -0.1829  0.0783
  124OSM    O1313142   3.797   2.157   6.015  0.0578 -0.2643 -0.3212
  124OSM    O1413143   3.926   1.953   5.956  0.1574  0.4303 -0.0072
  124OSM    O1113144   3.960   2.076   6.166 -0.0289 -0.0184 -0.1625
  124OSM    O1213145   4.038   2.181   5.959  0.4977 -0.7006 -0.4896
  124OSM    C1S13146   4.015   2.197   6.233 -0.0113  0.7376  0.2210
  124OSM    H1S13147   3.963   2.289   6.198  2.4135  2.0887 -0.0625
  124OSM    H1T13148   4.123   2.205   6.209 -0.1233 -0.9380 -1.0353
  124OSM     NF13149   4.025   2.297   6.456  0.7893  0.1720  0.6636
  124OSM    HNF13150   4.102   2.296   6.519  0.3846 -0.4715  1.1574
  124OSM    C2S13151   3.981   2.184   6.379 -0.0749 -0.1105 -1.0038
  124OSM    H2S13152   3.874   2.174   6.408  0.4158  0.7604  1.3159
  124OSM    C3S13153   4.049   2.049   6.430 -0.4880  0.0503  0.2374
  124OSM    H3S13154   4.157   2.071   6.417 -1.0773  2.4629 -1.1998
  124OSM     O313155   4.023   1.923   6.366  0.0322  0.1955  0.7015
  124OSM    HO313156   3.958   1.947   6.299  0.6040 -2.0587 -0.7452
  124OSM    C4S13157   4.021   2.033   6.578 -0.3426  0.1479  0.2075
  124OSM    H4S13158   4.116   2.033   6.634  0.2383  0.8987 -0.7594
  124OSM    C5S13159   3.913   1.974   6.635  0.5503  0.9502  0.0659
  124OSM    H5S13160   3.834   1.925   6.577  1.4649  0.4740 -0.7970
  124OSM    C6S13161   3.911   1.944   6.783  0.2320  0.4727  0.2659
  124OSM    H6S13162   3.889   1.836   6.796  0.7677  0.0626 -1.8094
  124OSM    H6T13163   3.848   2.014   6.841  0.0530  0.8915 -0.4290
  124OSM    C7S13164   4.053   1.941   6.854  0.6672 -0.6280 -0.8352
  124OSM    H7S13165   4.107   2.038   6.844  2.1258 -1.4681 -1.3646
  124OSM    H7T13166   4.121   1.871   6.802  0.9789 -0.5534 -0.5294
  124OSM    C8S13167   4.049   1.889   6.996 -0.0607  0.1103  0.0212
  124OSM    H8S13168   4.003   1.789   6.985 -0.3315  0.1345  0.8473
  124OSM    H8T13169   3.973   1.951   7.049  1.1975  0.5074  1.4383
  124OSM    C9S13170   4.183   1.882   7.067 -0.0078  0.4407 -0.4248
  124OSM    H9S13171   4.257   1.847   6.992  1.0904 -0.0363  0.8511
  124OSM    H9T13172   4.182   1.814   7.155  0.3191  1.0741  0.0784
  124OSM   C10S13173   4.247   2.025   7.103 -0.7464 -0.2084 -0.4567
  124OSM   H10S13174   4.289   2.059   7.006 -0.3544 -1.5380 -0.7698
  124OSM   H10T13175   4.329   2.009   7.176 -1.9703 -0.2224  0.9717
  124OSM   C11S13176   4.147   2.126   7.151  0.1464 -0.1798  0.5189
  124OSM   H11S13177   4.059   2.135   7.083 -0.1328 -1.5625  0.6634
  124OSM   H11T13178   4.196   2.225   7.148  1.2237 -0.7203 -1.1433
  124OSM   C12S13179   4.086   2.090   7.286 -0.6363  0.3453 -1.1419
  124OSM   H12S13180   4.170   2.050   7.348  0.3421  0.6509 -2.2422
  124OSM   H12T13181   4.007   2.011   7.283 -0.4250 -0.1090  1.6996
  124OSM   C13S13182   4.031   2.212   7.359 -0.2485  0.1462 -0.6554
  124OSM   H13S13183   3.964   2.270   7.293  0.3631  3.7868  1.6317
  124OSM   H13T13184   4.115   2.281   7.385  0.4270 -0.5711 -0.9003
  124OSM   C14S13185   3.951   2.177   7.488 -0.7082 -0.3955 -0.0923
  124OSM   H14S13186   4.008   2.099   7.542  0.0591  1.7609  2.4720
  124OSM   H14T13187   3.856   2.130   7.454 -0.0048 -2.3274  0.5109
  124OSM   C15S13188   3.908   2.303   7.564  0.1236 -0.8843  0.3146
  124OSM   H15S13189   3.861   2.369   7.488 -0.0070 -1.4128 -0.0674
  124OSM   H15T13190   4.003   2.350   7.599 -0.5358  0.2480  0.6439
  124OSM   C16S13191   3.821   2.266   7.688 -0.0583  1.1579  0.1482
  124OSM   H16S13192   3.867   2.177   7.737 -0.8650 -0.5743 -2.0568
  124OSM   H16T13193   3.721   2.224   7.666  0.1330  0.5333  0.4394
  124OSM   C17S13194   3.809   2.382   7.788 -0.1539 -0.4406 -0.4847
  124OSM   H17S13195   3.745   2.456   7.736 -1.7238 -1.2704  0.2137
  124OSM   H17T13196   3.910   2.429   7.789 -0.9421  1.3677  1.7295
  124OSM   C18S13197   3.751   2.360   7.932 -0.1257 -0.4858  0.5551
  124OSM   H18S13198   3.741   2.459   7.983 -1.5796  0.7460 -1.9132
  124OSM   H18T13199   3.817   2.294   7.992  0.8364 -0.1211 -0.0785
  124OSM   H18U13200   3.650   2.314   7.936 -1.1786  1.5217 -1.1479
  124OSM    C1F13201   3.961   2.415   6.434 -0.5722 -0.3401  0.8154
  124OSM     OF13202   3.858   2.422   6.367  0.7283  0.0224 -0.2684
  124OSM    C2F13203   4.027   2.546   6.487  0.4318  0.1301  0.5797
  124OSM    H2F13204   4.060   2.609   6.401  1.4045  0.7538  1.3820
  124OSM    H2G13205   4.120   2.511   6.536  0.4601  0.1523  0.5436
  124OSM    C3F13206   3.944   2.630   6.586  0.0525 -0.2770 -0.2820
  124OSM    H3F13207   3.863   2.685   6.533 -0.7168 -1.5671 -0.4643
  124OSM    H3G13208   4.002   2.723   6.608  1.4316 -0.8609 -1.3145
  124OSM    C4F13209   3.879   2.562   6.707 -0.9825  0.2187  0.4792
  124OSM    H4F13210   3.803   2.487   6.677 -2.1874  0.2522  3.1711
  124OSM    H4G13211   3.824   2.643   6.760 -1.9107 -0.5933  0.8006
  124OSM    C5F13212   3.987   2.500   6.796 -0.5588  0.0792 -0.2832
  124OSM    H5F13213   4.048   2.590   6.821  0.3390 -1.1450  2.2867
  124OSM    H5G13214   4.047   2.432   6.732 -0.1493 -2.5584  2.6755
  124OSM    C6F13215   3.936   2.436   6.912  0.1396 -0.5843 -0.0008
  124OSM    H6F13216   3.887   2.515   6.973  1.8521  0.3075  0.2992
  124OSM    H6G13217   4.023   2.408   6.976  0.8080 -0.6076 -0.9061
  124OSM    C7F13218   3.830   2.329   6.887 -0.0379  0.5383  0.2585
  124OSM    H7F13219   3.838   2.254   6.968  0.9220  1.4556  1.0463
  124OSM    H7G13220   3.838   2.283   6.786  0.9673  0.9175  0.1531
  124OSM    C8F13221   3.689   2.385   6.910 -0.4500 -0.3048  0.4585
  124OSM    H8F13222   3.670   2.465   6.835 -0.8235  0.5061  1.4001
  124OSM    H8G13223   3.685   2.427   7.013  0.5680 -1.0463  0.8068
  124OSM    C9F13224   3.584   2.279   6.904  0.8937 -0.3227 -0.2580
  124OSM    H9F13225   3.597   2.201   6.827  0.6065  1.1602 -1.8609
  124OSM   C10F13226   3.469   2.265   6.973 -0.6093 -0.1608 -0.5592
  124OSM   H10F13227   3.415   2.171   6.959  0.1954 -0.4244 -2.0791
  124OSM   C11F13228   3.411   2.344   7.092 -0.4120  0.7514 -0.1643
  124OSM   H11F13229   3.304   2.330   7.065  0.6963 -1.6942 -4.1097
  124OSM   H11G13230   3.430   2.453   7.092  0.3049  0.6353 -1.5705
  124OSM   C12F13231   3.440   2.293   7.233  0.3391 -0.4948  0.0245
  124OSM   H12F13232   3.550   2.297   7.243  0.2908  0.1506  0.3588
  124OSM   H12G13233   3.395   2.191   7.233  1.6243 -1.0774 -0.5376
  124OSM   C13F13234   3.365   2.377   7.339  0.2326  0.5045 -0.5491
  124OSM   H13F13235   3.258   2.348   7.340  0.3442  0.0672  0.7141
  124OSM   H13G13236   3.373   2.487   7.322 -0.1767  0.7262  0.5882
  124OSM   C14F13237   3.412   2.344   7.485 -0.3965 -0.2114 -0.2986
  124OSM   H14F13238   3.523   2.341   7.492 -0.4469 -0.2698  0.5439
  124OSM   H14G13239   3.372   2.248   7.524 -1.0724 -0.4027 -1.4090
  124OSM   C15F13240   3.365   2.457   7.576 -0.2348 -0.3494 -0.9140
  124OSM   H15F13241   3.254   2.451   7.565  0.0151 -2.1246 -3.2236
  124OSM   H15G13242   3.385   2.558   7.535  1.6605 -0.5428 -0.5615
  124OSM   C16F13243   3.405   2.433   7.725 -0.3524 -0.7707  0.5797
  124OSM   H16F13244   3.514   2.416   7.741 -0.2924 -1.6236 -0.5926
  124OSM   H16G13245   3.364   2.337   7.764 -1.3290 -0.0752  1.3121
  124OSM   C17F13246   3.339   2.535   7.821  0.2024 -0.4530  0.1644
  124OSM   H17F13247   3.235   2.557   7.788  0.5326 -0.3268 -0.8333
  124OSM   H17G13248   3.408   2.622   7.822  0.2595 -0.4844 -0.4761
  124OSM   C18F13249   3.324   2.479   7.959 -0.5156  0.4040  0.1405
  124OSM   H18F13250   3.415   2.476   8.022 -1.4335 -3.6385  1.6137
  124OSM   H18G13251   3.281   2.376   7.964  3.0975 -1.5250 -2.9332
  124OSM   H18H13252   3.270   2.556   8.017  1.3426  3.1007 -1.4839
  125OSM      N13253   6.597   0.607   5.984 -0.3437  0.4179 -0.3527
  125OSM    C1513254   6.453   0.585   5.973  0.1113 -0.4392  0.1443
  125OSM   H15A13255   6.428   0.593   5.869  2.6764  0.1954 -0.5077
  125OSM   H15B13256   6.405   0.663   6.030  0.2601  0.9562 -1.5579
  125OSM   H15C13257   6.426   0.494   6.025  0.5672 -0.9126 -0.4460
  125OSM    C1413258   6.672   0.507   5.894 -0.0578  0.2066  0.1318
  125OSM   H14A13259   6.643   0.410   5.933  1.5371  0.2746  1.6199
  125OSM   H14B13260   6.779   0.519   5.901 -0.0825 -0.1289  1.2943
  125OSM   H14C13261   6.644   0.515   5.790 -0.7068 -1.5295  0.1335
  125OSM    C1313262   6.625   0.753   5.941 -0.0778  0.6928 -0.3736
  125OSM   H13A13263   6.579   0.764   5.844 -0.1398 -6.1982 -1.6611
  125OSM   H13B13264   6.731   0.771   5.931 -0.0634 -0.1307 -2.2819
  125OSM   H13C13265   6.586   0.824   6.012  0.0874 -0.3612  0.8119
  125OSM    C1213266   6.643   0.590   6.128  0.2896  0.4249 -0.4516
  125OSM   H12A13267   6.608   0.495   6.166 -1.3908  2.0159  2.3943
  125OSM   H12B13268   6.596   0.668   6.187 -1.7128 -1.5415  0.7045
  125OSM    C1113269   6.803   0.601   6.151 -0.2076  0.2603  0.4034
  125OSM   H11A13270   6.848   0.499   6.154 -3.2065 -1.1637  0.3703
  125OSM   H11B13271   6.816   0.624   6.259 -0.2357 -4.4875  1.6391
  125OSM      P13272   6.994   0.636   5.970 -0.0036  0.0817 -0.3737
  125OSM    O1313273   6.966   0.507   5.907  0.6002 -0.2400 -0.0656
  125OSM    O1413274   7.037   0.750   5.883 -0.1514  0.0107  0.1356
  125OSM    O1113275   7.104   0.611   6.078  0.2537 -0.4701 -0.4325
  125OSM    O1213276   6.874   0.689   6.056  0.5144  0.3610  0.4700
  125OSM    C1S13277   7.124   0.704   6.187  0.2778 -0.0315 -0.2812
  125OSM    H1S13278   7.033   0.767   6.191 -0.3712 -1.0075  1.8223
  125OSM    H1T13279   7.213   0.770   6.181 -1.2749  2.1269 -0.9282
  125OSM     NF13280   7.145   0.749   6.432  0.4325 -0.5612 -0.2623
  125OSM    HNF13281   7.240   0.773   6.450 -0.4594  2.0360  1.4130
  125OSM    C2S13282   7.113   0.640   6.333  0.2858 -0.5477 -0.1555
  125OSM    H2S13283   7.010   0.605   6.353 -0.1106  1.2022  1.0714
  125OSM    C3S13284   7.201   0.520   6.337 -0.4926 -0.2362 -0.8419
  125OSM    H3S13285   7.302   0.549   6.303  0.3756 -0.1059  1.6227
  125OSM     O313286   7.155   0.416   6.250 -0.2949 -0.2874  0.1454
  125OSM    HO313287   7.121   0.471   6.179 -0.8427  1.4360  1.6793
  125OSM    C4S13288   7.210   0.461   6.480 -0.7159 -0.2251  0.0632
  125OSM    H4S13289   7.118   0.425   6.528 -0.9152  1.0498  0.6905
  125OSM    C5S13290   7.324   0.454   6.544 -0.6901  0.2921 -0.3926
  125OSM    H5S13291   7.418   0.491   6.500 -1.4097  1.4288 -1.0128
  125OSM    C6S13292   7.331   0.408   6.689  0.0737  0.3051 -0.0661
  125OSM    H6S13293   7.402   0.325   6.704  0.0917  0.5261  1.2412
  125OSM    H6T13294   7.230   0.381   6.727 -1.3838  1.6942 -2.6470
  125OSM    C7S13295   7.358   0.534   6.786 -0.0327  1.4553  0.1341
  125OSM    H7S13296   7.276   0.606   6.764  0.1821  1.2308 -1.4918
  125OSM    H7T13297   7.454   0.582   6.757  0.4840  0.1141 -0.4469
  125OSM    C8S13298   7.351   0.484   6.928  0.0921 -0.2408 -0.0142
  125OSM    H8S13299   7.441   0.424   6.955  2.2846  2.1610 -1.5187
  125OSM    H8T13300   7.265   0.414   6.936 -0.1423 -0.2020 -1.8085
  125OSM    C9S13301   7.322   0.589   7.035 -0.0324 -0.0746  0.5990
  125OSM    H9S13302   7.211   0.594   7.033 -0.0968 -0.4623 -2.8321
  125OSM    H9T13303   7.373   0.687   7.023 -0.9808  0.2354 -1.1940
  125OSM   C10S13304   7.344   0.541   7.177  0.5169 -0.1339 -0.4362
  125OSM   H10S13305   7.447   0.545   7.217  0.2130  1.4345  0.2868
  125OSM   H10T13306   7.287   0.446   7.177  1.1869 -0.5547  1.1015
  125OSM   C11S13307   7.269   0.629   7.279 -0.5129  0.0346  0.0478
  125OSM   H11S13308   7.163   0.622   7.247 -0.1552  2.2975 -1.9472
  125OSM   H11T13309   7.297   0.737   7.276 -0.5414  0.1458  2.1481
  125OSM   C12S13310   7.272   0.579   7.425 -0.0495  0.3932 -0.2179
  125OSM   H12S13311   7.377   0.576   7.462 -0.4337  0.1542  0.9150
  125OSM   H12T13312   7.241   0.473   7.436  1.3385 -0.1856 -1.4890
  125OSM   C13S13313   7.198   0.680   7.516 -0.1279 -0.3122 -0.2549
  125OSM   H13S13314   7.096   0.683   7.472  0.1428 -0.7041 -0.9148
  125OSM   H13T13315   7.239   0.783   7.504  0.4997 -0.6233 -0.8801
  125OSM   C14S13316   7.186   0.625   7.659 -0.3762 -0.3556  0.3821
  125OSM   H14S13317   7.279   0.636   7.720 -0.6884  0.7888  0.6751
  125OSM   H14T13318   7.175   0.514   7.656  0.2392 -0.3988 -1.2588
  125OSM   C15S13319   7.074   0.684   7.755 -0.1926  0.6579 -0.2187
  125OSM   H15S13320   6.979   0.643   7.714  0.5361 -1.4474  0.0413
  125OSM   H15T13321   7.076   0.794   7.763  0.1114  0.6608 -0.3339
  125OSM   C16S13322   7.081   0.635   7.903  0.5888 -0.0367  0.6069
  125OSM   H16S13323   7.041   0.533   7.922 -0.4632  0.5868  1.8818
  125OSM   H16T13324   6.999   0.688   7.956  1.8570  1.3243  1.2862
  125OSM   C17S13325   7.214   0.668   7.967 -0.2190 -0.1507 -0.5069
  125OSM   H17S13326   7.245   0.766   7.925  0.8787 -1.1703 -2.2232
  125OSM   H17T13327   7.290   0.593   7.936  0.5878  1.3998 -2.4589
  125OSM   C18S13328   7.188   0.656   8.118 -0.0336  0.5121  0.0892
  125OSM   H18S13329   7.258   0.716   8.181 -1.7783  0.1387  2.5505
  125OSM   H18T13330   7.193   0.548   8.143 -3.3207  0.5315  1.3592
  125OSM   H18U13331   7.089   0.703   8.137 -0.9600 -1.4291  0.2599
  125OSM    C1F13332   7.054   0.833   6.485 -1.0031  0.0310 -0.3977
  125OSM     OF13333   6.940   0.830   6.442  0.3097  0.3483  0.6370
  125OSM    C2F13334   7.107   0.922   6.584 -0.1602 -0.0041 -0.7493
  125OSM    H2F13335   7.192   0.982   6.544  0.6810 -1.6780 -1.5535
  125OSM    H2G13336   7.151   0.870   6.672 -1.3587  0.5558  0.2186
  125OSM    C3F13337   6.989   1.014   6.646  0.2369 -0.2528  0.4446
  125OSM    H3F13338   6.893   0.959   6.660  0.6590 -0.5207  2.7844
  125OSM    H3G13339   6.965   1.100   6.581  0.7593 -0.8927 -0.6213
  125OSM    C4F13340   7.028   1.055   6.789 -0.1172 -0.4981  0.0491
  125OSM    H4F13341   7.122   1.114   6.784 -0.7302  0.6176  1.1513
  125OSM    H4G13342   7.046   0.966   6.853  1.8784 -0.3956 -0.3296
  125OSM    C5F13343   6.919   1.147   6.856 -0.2180 -0.3304 -0.5896
  125OSM    H5F13344   6.820   1.100   6.876 -0.7914  1.2431  0.4242
  125OSM    H5G13345   6.906   1.227   6.780  2.9936 -1.2918 -2.3293
  125OSM    C6F13346   6.982   1.193   6.997  0.7331  0.0235 -0.5593
  125OSM    H6F13347   6.989   1.302   7.016  1.0477 -0.3259  1.6398
  125OSM    H6G13348   7.089   1.165   7.009  1.8672  3.0546 -2.4724
  125OSM    C7F13349   6.899   1.127   7.107  0.2961  0.2521  0.3063
  125OSM    H7F13350   6.922   1.020   7.122  1.2541 -0.2547 -3.6051
  125OSM    H7G13351   6.791   1.127   7.078  0.1468  0.0794  0.8648
  125OSM    C8F13352   6.902   1.203   7.241 -0.2216 -1.1329 -0.1806
  125OSM    H8F13353   6.834   1.155   7.315 -1.7672 -1.3712 -1.6827
  125OSM    H8G13354   6.864   1.303   7.213  1.6839  0.0340  1.1317
  125OSM    C9F13355   7.031   1.228   7.314 -0.5948 -0.4280  0.2410
  125OSM    H9F13356   7.109   1.166   7.267  1.0962  0.4343  1.7810
  125OSM   C10F13357   7.070   1.295   7.421  0.5590 -0.7250 -0.3881
  125OSM   H10F13358   7.176   1.315   7.439  0.2770  1.5275 -0.9553
  125OSM   C11F13359   6.971   1.374   7.500 -0.3152 -1.0704  1.1796
  125OSM   H11F13360   6.916   1.432   7.422  1.0012 -1.4576 -0.0683
  125OSM   H11G13361   7.035   1.446   7.556 -0.8899  0.1761  0.3069
  125OSM   C12F13362   6.873   1.301   7.588  0.3084  0.5096  0.3332
  125OSM   H12F13363   6.815   1.227   7.528  0.6387  0.9918 -0.6024
  125OSM   H12G13364   6.801   1.372   7.636 -1.1954 -1.6064  1.3694
  125OSM   C13F13365   6.941   1.217   7.704  0.1046  0.1411 -0.5550
  125OSM   H13F13366   7.018   1.284   7.749 -0.1034 -0.1375  0.2317
  125OSM   H13G13367   6.997   1.129   7.668  0.4849 -0.2748  0.9682
  125OSM   C14F13368   6.843   1.173   7.804  0.5277  0.4179 -0.0913
  125OSM   H14F13369   6.746   1.139   7.762 -1.7172  2.7817  2.7347
  125OSM   H14G13370   6.805   1.261   7.861  0.9507 -0.4785  1.6288
  125OSM   C15F13371   6.896   1.070   7.905 -0.1800 -0.1579  0.5219
  125OSM   H15F13372   6.999   1.102   7.930  0.1029  0.6072 -1.4761
  125OSM   H15G13373   6.906   0.970   7.857 -1.4163 -0.0945  0.0999
  125OSM   C16F13374   6.809   1.060   8.035 -0.8553  0.4360  0.0056
  125OSM   H16F13375   6.710   1.013   8.018  0.0644 -0.4746 -3.6437
  125OSM   H16G13376   6.785   1.161   8.074 -0.7664 -0.4213  2.4835
  125OSM   C17F13377   6.882   0.993   8.154 -0.0360  0.4314  0.1457
  125OSM   H17F13378   6.928   0.896   8.127 -0.9893  1.1094 -4.9074
  125OSM   H17G13379   6.807   0.972   8.233 -1.5934 -3.3266 -2.0928
  125OSM   C18F13380   6.994   1.077   8.221  0.8253 -0.3121 -0.1100
  125OSM   H18F13381   7.086   1.073   8.158  0.3679 -3.6433 -0.7812
  125OSM   H18G13382   7.025   1.023   8.313 -2.0289  0.6380  1.5127
  125OSM   H18H13383   6.960   1.181   8.238  0.1081 -0.2715 -1.6100
  126OSM      N13384   5.178   6.183   6.341 -0.1535 -0.0885 -0.5322
  126OSM    C1513385   5.243   6.117   6.456 -0.7608  0.2329  0.1493
  126OSM   H15A13386   5.166   6.066   6.511 -1.0592  0.7898  0.2512
  126OSM   H15B13387   5.278   6.194   6.522 -0.6285  0.3905 -0.1031
  126OSM   H15C13388   5.318   6.041   6.436 -1.6192 -0.3401 -1.0319
  126OSM    C1413389   5.279   6.242   6.256 -1.1723 -0.1122 -0.1583
  126OSM   H14A13390   5.337   6.316   6.309 -0.8619 -0.0615 -0.5667
  126OSM   H14B13391   5.238   6.291   6.169 -1.9656  1.9384  1.2704
  126OSM   H14C13392   5.345   6.162   6.229 -0.5661 -0.7254  2.7707
  126OSM    C1313393   5.105   6.075   6.266 -0.1996  0.4064  0.1892
  126OSM   H13A13394   5.173   5.999   6.229 -0.1463  1.3109 -1.7354
  126OSM   H13B13395   5.056   6.108   6.175 -3.1018 -0.0747  1.4803
  126OSM   H13C13396   5.028   6.026   6.322 -2.6982  1.2430 -2.2724
  126OSM    C1213397   5.070   6.287   6.392 -0.3498 -0.7877  0.2459
  126OSM   H12A13398   5.022   6.320   6.301  0.4245 -0.5661 -0.0896
  126OSM   H12B13399   5.119   6.371   6.439 -0.7743  0.1633 -0.9585
  126OSM    C1113400   4.966   6.232   6.491  0.8082 -0.0382 -0.7410
  126OSM   H11A13401   4.909   6.316   6.536  1.2697  0.3050 -0.7810
  126OSM   H11B13402   5.024   6.188   6.575  0.4616 -0.5608 -0.7686
  126OSM      P13403   4.790   6.036   6.503 -0.2625  0.6099  0.3061
  126OSM    O1313404   4.690   5.985   6.409 -0.1010 -0.0803  0.4454
  126OSM    O1413405   4.874   5.932   6.569 -0.4080  0.7657 -0.5300
  126OSM    O1113406   4.726   6.128   6.613 -0.0255  0.1242 -0.1787
  126OSM    O1213407   4.884   6.139   6.425  0.4955 -0.0915  0.4215
  126OSM    C1S13408   4.620   6.084   6.701 -0.5331 -0.5554  0.3889
  126OSM    H1S13409   4.591   5.981   6.674 -0.5436 -0.4092 -0.1766
  126OSM    H1T13410   4.531   6.150   6.691  2.2632  3.3891 -1.0554
  126OSM     NF13411   4.579   6.026   6.933 -0.3857 -0.2737  0.2394
  126OSM    HNF13412   4.522   6.069   7.003 -0.3850 -0.1244  0.1493
  126OSM    C2S13413   4.672   6.102   6.845  0.7118  0.2763  0.4831
  126OSM    H2S13414   4.770   6.056   6.868 -0.1791 -0.0084  4.6915
  126OSM    C3S13415   4.682   6.253   6.880  0.4080  0.6231  0.7914
  126OSM    H3S13416   4.590   6.310   6.856  0.2044  0.0044  0.0516
  126OSM     O313417   4.795   6.321   6.819  0.2448 -0.0246 -0.1276
  126OSM    HO313418   4.830   6.249   6.766  1.0742 -0.2566  0.7004
  126OSM    C4S13419   4.697   6.268   7.030  0.7890 -0.4919  0.1863
  126OSM    H4S13420   4.639   6.355   7.062  3.7817  1.8391 -0.2627
  126OSM    C5S13421   4.780   6.207   7.119 -0.5380  0.8399  0.5978
  126OSM    H5S13422   4.853   6.130   7.086 -3.1553 -0.9384 -1.4733
  126OSM    C6S13423   4.787   6.250   7.265  0.1328  0.0732  0.5692
  126OSM    H6S13424   4.737   6.347   7.286 -0.0687 -0.0466  0.6520
  126OSM    H6T13425   4.894   6.259   7.293  0.6015 -3.4841  0.3959
  126OSM    C7S13426   4.728   6.156   7.370  0.0843  0.2960  0.1548
  126OSM    H7S13427   4.758   6.052   7.349 -2.8315 -1.0681  1.9534
  126OSM    H7T13428   4.618   6.158   7.354  0.1931 -0.1945 -0.6869
  126OSM    C8S13429   4.750   6.184   7.518 -0.5643  0.5960 -0.6637
  126OSM    H8S13430   4.723   6.289   7.545 -2.5720 -0.3652  1.3395
  126OSM    H8T13431   4.860   6.176   7.530 -0.7651  0.9941  2.0454
  126OSM    C9S13432   4.686   6.087   7.616 -0.2957  0.4918  0.7239
  126OSM    H9S13433   4.716   5.985   7.584 -0.5249  1.3111 -2.4641
  126OSM    H9T13434   4.575   6.092   7.627 -0.2704  1.8696  0.4633
  126OSM   C10S13435   4.754   6.098   7.755 -0.1034  0.1514  0.0300
  126OSM   H10S13436   4.768   6.207   7.767  0.0493  0.1647 -0.2554
  126OSM   H10T13437   4.841   6.029   7.759 -0.9214 -0.8498  1.0200
  126OSM   C11S13438   4.658   6.068   7.870  0.0131  0.2782  0.3110
  126OSM   H11S13439   4.721   6.050   7.959 -0.8962 -0.0566  0.9094
  126OSM   H11T13440   4.613   5.968   7.855  1.3536 -0.4232  0.8967
  126OSM   C12S13441   4.543   6.159   7.911  0.0158  0.3119 -0.3079
  126OSM   H12S13442   4.466   6.155   7.832 -0.0008  0.0459 -0.2810
  126OSM   H12T13443   4.583   6.263   7.915  0.9287 -0.0482  0.3904
  126OSM   C13S13444   4.489   6.114   8.045  0.5689  0.3371 -1.0179
  126OSM   H13S13445   4.559   6.133   8.129 -0.8357  1.3052 -0.0113
  126OSM   H13T13446   4.478   6.004   8.040  0.6506  0.3808 -3.0335
  126OSM   C14S13447   4.360   6.190   8.077  0.1957  0.1450  0.0944
  126OSM   H14S13448   4.282   6.169   8.001  1.2033  0.9681 -1.2254
  126OSM   H14T13449   4.382   6.298   8.062 -2.4367  0.8892  1.0004
  126OSM   C15S13450   4.309   6.179   8.225  0.1523 -0.1155 -0.1834
  126OSM   H15S13451   4.381   6.236   8.287 -1.2762  1.5791 -0.0165
  126OSM   H15T13452   4.302   6.069   8.244 -1.2369  0.0142  0.1976
  126OSM   C16S13453   4.164   6.234   8.243 -0.0700 -0.4760  0.1383
  126OSM   H16S13454   4.117   6.195   8.150  3.8789  0.0815 -2.3448
  126OSM   H16T13455   4.152   6.345   8.239 -2.2886 -0.6107  1.4634
  126OSM   C17S13456   4.087   6.199   8.380 -0.4619  0.2459  0.0049
  126OSM   H17S13457   3.987   6.248   8.373 -1.1032 -1.1770 -1.3247
  126OSM   H17T13458   4.149   6.240   8.463  0.9341 -1.4879 -0.1224
  126OSM   C18S13459   4.059   6.051   8.400  0.6635 -0.4056 -0.0109
  126OSM   H18S13460   3.978   6.043   8.476 -0.5702  0.9595 -1.1177
  126OSM   H18T13461   4.150   5.995   8.432  0.0559 -0.8341  1.0093
  126OSM   H18U13462   4.020   6.018   8.301  0.3989 -2.5563  0.7698
  126OSM    C1F13463   4.568   5.901   6.936 -1.0963 -0.4085 -0.1931
  126OSM     OF13464   4.634   5.830   6.860 -0.6570 -0.7729  0.0009
  126OSM    C2F13465   4.480   5.840   7.042  0.3386 -0.4185  0.3865
  126OSM    H2F13466   4.375   5.874   7.024  0.0730 -0.3103  1.9569
  126OSM    H2G13467   4.505   5.886   7.140  0.2029 -0.3187  0.3766
  126OSM    C3F13468   4.477   5.686   7.050  0.2827  0.1409  0.3942
  126OSM    H3F13469   4.584   5.659   7.066  0.2317 -0.7966 -0.7567
  126OSM    H3G13470   4.457   5.639   6.952  1.1739  0.3736  0.0910
  126OSM    C4F13471   4.406   5.610   7.161  0.6554 -0.5728 -0.3297
  126OSM    H4F13472   4.420   5.500   7.150 -2.7140 -1.0241 -1.2638
  126OSM    H4G13473   4.296   5.627   7.163  0.7529  0.1399 -0.6718
  126OSM    C5F13474   4.468   5.646   7.295 -0.2636 -0.4184  0.0321
  126OSM    H5F13475   4.464   5.755   7.311 -0.7437 -0.2809 -0.9264
  126OSM    H5G13476   4.578   5.634   7.287 -0.1984  0.6543 -1.0053
  126OSM    C6F13477   4.414   5.571   7.412 -0.5093 -0.1265 -0.0924
  126OSM    H6F13478   4.444   5.464   7.409  1.3702  0.2701  1.8267
  126OSM    H6G13479   4.303   5.566   7.419 -0.4550  0.6850  1.9003
  126OSM    C7F13480   4.456   5.638   7.553 -0.1546  0.1987 -0.0082
  126OSM    H7F13481   4.424   5.572   7.637  1.3402 -1.3390 -0.5739
  126OSM    H7G13482   4.404   5.735   7.554 -0.7865 -0.1253  1.1959
  126OSM    C8F13483   4.606   5.669   7.566 -0.2730 -0.4248  0.3478
  126OSM    H8F13484   4.612   5.728   7.661 -0.8332 -0.4972  0.4318
  126OSM    H8G13485   4.640   5.740   7.488 -0.2487 -1.8142 -0.9543
  126OSM    C9F13486   4.690   5.547   7.588 -0.4298  0.0247 -0.1472
  126OSM    H9F13487   4.725   5.495   7.497 -1.8703 -0.4287 -0.4718
  126OSM   C10F13488   4.721   5.488   7.707  0.4948 -0.1010  0.3076
  126OSM   H10F13489   4.782   5.397   7.720  1.2196  0.4128  0.5838
  126OSM   C11F13490   4.669   5.530   7.842  0.2094 -0.0626 -0.2424
  126OSM   H11F13491   4.654   5.431   7.891 -0.1720  0.9453  1.7989
  126OSM   H11G13492   4.570   5.581   7.830  0.1006  0.0263  0.9225
  126OSM   C12F13493   4.756   5.639   7.913  0.2998  0.5353 -0.0049
  126OSM   H12F13494   4.724   5.737   7.873  0.0965  1.3539  2.0354
  126OSM   H12G13495   4.865   5.621   7.903 -0.1855 -2.3681 -1.2993
  126OSM   C13F13496   4.715   5.645   8.065 -0.0771  0.3915  0.5208
  126OSM   H13F13497   4.746   5.547   8.108 -0.8808  0.4375  1.2240
  126OSM   H13G13498   4.604   5.650   8.070 -0.1156 -0.4107  0.6398
  126OSM   C14F13499   4.787   5.763   8.129  0.1359 -0.1759 -0.0385
  126OSM   H14F13500   4.739   5.852   8.084 -0.8169  0.5478  2.2492
  126OSM   H14G13501   4.891   5.761   8.089 -0.2517  0.1036 -1.0901
  126OSM   C15F13502   4.786   5.767   8.280 -0.9716 -0.0529 -0.4012
  126OSM   H15F13503   4.816   5.669   8.324  1.3349  0.7494 -0.0312
  126OSM   H15G13504   4.680   5.781   8.308 -0.9421  2.1432 -1.2414
  126OSM   C16F13505   4.899   5.857   8.325  0.0320  0.3434 -0.7808
  126OSM   H16F13506   4.877   5.958   8.284 -2.3097  0.3211  0.2732
  126OSM   H16G13507   4.988   5.809   8.278  0.2327  0.0027 -0.0699
  126OSM   C17F13508   4.922   5.882   8.478 -0.6192 -0.0225 -0.1385
  126OSM   H17F13509   4.928   5.781   8.525 -0.8021  0.0519  0.0427
  126OSM   H17G13510   4.832   5.936   8.515  0.9798  1.9282  1.0865
  126OSM   C18F13511   5.041   5.968   8.507 -0.1446  0.0769 -0.3600
  126OSM   H18F13512   5.133   5.929   8.457 -1.1730 -1.6237 -1.0358
  126OSM   H18G13513   5.051   5.987   8.616 -2.8689  5.1983 -0.7088
  126OSM   H18H13514   5.027   6.072   8.473 -1.8424 -0.3175 -0.9669
  127OSM      N13515   2.445   1.001   6.249 -0.7183  0.2508 -0.0139
  127OSM    C1513516   2.541   0.890   6.303  0.2135 -0.7403  0.1266
  127OSM   H15A13517   2.640   0.930   6.319  0.0064 -0.3449  0.4424
  127OSM   H15B13518   2.545   0.807   6.234  1.1941 -0.8351  0.2909
  127OSM   H15C13519   2.499   0.849   6.394  0.6333 -1.1638  0.1304
  127OSM    C1413520   2.424   1.098   6.364  0.2457 -0.2451 -0.4227
  127OSM   H14A13521   2.517   1.148   6.388  1.0336 -0.7416 -2.2888
  127OSM   H14B13522   2.397   1.054   6.459 -3.7456  1.2695 -0.6550
  127OSM   H14C13523   2.349   1.175   6.351  0.2231  0.1327  1.6007
  127OSM    C1313524   2.516   1.066   6.132 -0.1966 -0.6196  0.8728
  127OSM   H13A13525   2.447   1.133   6.084 -0.3417  0.6228  2.7070
  127OSM   H13B13526   2.548   0.991   6.061  2.7949 -0.1840  1.5879
  127OSM   H13C13527   2.599   1.123   6.172 -0.7538  1.6340 -0.9956
  127OSM    C1213528   2.317   0.936   6.203  0.0042 -0.0278 -0.5422
  127OSM   H12A13529   2.331   0.888   6.108  2.0551 -0.1192 -0.2359
  127OSM   H12B13530   2.244   1.016   6.203  1.0224  0.9259 -0.5450
  127OSM    C1113531   2.256   0.842   6.311  0.2249  0.0235 -0.6430
  127OSM   H11A13532   2.237   0.885   6.412  1.7374 -1.6110  0.4012
  127OSM   H11B13533   2.317   0.752   6.335  1.8645  0.6599 -2.1675
  127OSM      P13534   2.004   0.892   6.251 -0.0073 -0.4174 -0.2669
  127OSM    O1313535   2.050   1.025   6.204  0.5851 -0.0115 -0.0588
  127OSM    O1413536   1.891   0.825   6.182 -0.4285 -0.0314 -0.0581
  127OSM    O1113537   1.968   0.894   6.403  0.0946  0.1155  0.1716
  127OSM    O1213538   2.130   0.795   6.254 -0.1632 -0.4611  0.5090
  127OSM    C1S13539   1.960   0.779   6.490  0.3159 -0.5868 -0.4146
  127OSM    H1S13540   2.032   0.697   6.472  1.7876  0.0994  1.8620
  127OSM    H1T13541   1.858   0.736   6.481  0.1467 -0.0236 -1.3891
  127OSM     NF13542   2.030   0.720   6.733  0.2197 -0.3850  0.6380
  127OSM    HNF13543   1.961   0.684   6.795  0.1941 -1.5814 -0.0660
  127OSM    C2S13544   1.994   0.826   6.638 -0.5444 -0.9977 -0.0907
  127OSM    H2S13545   2.080   0.896   6.641 -1.3059 -0.0621  0.8325
  127OSM    C3S13546   1.864   0.904   6.688  0.3056 -0.0120  0.4446
  127OSM    H3S13547   1.780   0.836   6.664  0.5600 -0.1039 -0.2249
  127OSM     O313548   1.838   1.027   6.614  0.1292 -0.3860  0.3778
  127OSM    HO313549   1.901   1.038   6.542  2.7661  2.9738  2.8618
  127OSM    C4S13550   1.871   0.941   6.830 -0.5195  1.1038  0.8339
  127OSM    H4S13551   1.927   1.033   6.853  2.8117 -1.0442  1.9730
  127OSM    C5S13552   1.788   0.891   6.925 -0.6558  0.4568  0.6103
  127OSM    H5S13553   1.718   0.810   6.902 -1.6667  1.6799 -0.8683
  127OSM    C6S13554   1.795   0.935   7.075 -0.3546  0.1401 -0.2405
  127OSM    H6S13555   1.715   1.004   7.109 -0.3573 -0.3585  0.8040
  127OSM    H6T13556   1.898   0.969   7.098 -0.3842 -1.2813  2.4412
  127OSM    C7S13557   1.802   0.798   7.148  0.0709  0.5053 -1.3008
  127OSM    H7S13558   1.882   0.736   7.101  1.2369 -0.7181  1.9756
  127OSM    H7T13559   1.710   0.736   7.148  1.2387 -1.5222  2.5075
  127OSM    C8S13560   1.849   0.802   7.295 -0.3145 -0.7999 -0.3085
  127OSM    H8S13561   1.953   0.840   7.308 -0.2421 -1.3391  0.7792
  127OSM    H8T13562   1.842   0.699   7.337 -0.7165 -1.2258 -1.3852
  127OSM    C9S13563   1.773   0.909   7.381  0.6213 -0.6260  0.6436
  127OSM    H9S13564   1.664   0.894   7.361  0.7042  1.3026 -1.7402
  127OSM    H9T13565   1.797   1.011   7.346  1.5387 -1.2155 -0.5165
  127OSM   C10S13566   1.791   0.904   7.532  0.3189 -0.1152 -0.3548
  127OSM   H10S13567   1.889   0.919   7.581 -0.8291  0.5949  1.8269
  127OSM   H10T13568   1.757   0.801   7.558 -0.3755  0.5114  1.3622
  127OSM   C11S13569   1.699   1.006   7.600 -0.7135  0.1250 -0.4306
  127OSM   H11S13570   1.600   0.993   7.552  0.0875 -0.9436 -1.8632
  127OSM   H11T13571   1.741   1.107   7.581 -0.8986 -0.1785 -2.7287
  127OSM   C12S13572   1.678   0.982   7.747 -1.0634 -0.9591  0.4004
  127OSM   H12S13573   1.779   0.968   7.793  0.5325 -1.3518 -2.9470
  127OSM   H12T13574   1.635   0.879   7.744  0.5159 -1.6176 -0.7421
  127OSM   C13S13575   1.585   1.075   7.819  0.6028 -0.3637 -0.2815
  127OSM   H13S13576   1.494   1.082   7.755  1.3481  2.3205 -1.1835
  127OSM   H13T13577   1.633   1.174   7.803  1.1441 -0.7114 -0.8766
  127OSM   C14S13578   1.560   1.042   7.968 -0.7849  0.4318  0.0575
  127OSM   H14S13579   1.527   0.936   7.977  0.5883 -0.0390 -0.1291
  127OSM   H14T13580   1.483   1.111   8.008  0.3353  2.4313 -1.0413
  127OSM   C15S13581   1.679   1.075   8.064  0.8864 -0.1665  0.8873
  127OSM   H15S13582   1.705   1.183   8.061 -0.8577  0.2696  0.1696
  127OSM   H15T13583   1.772   1.035   8.018  1.3219  0.7446  0.9637
  127OSM   C16S13584   1.657   1.025   8.202 -0.1398  0.0167 -0.0931
  127OSM   H16S13585   1.722   1.086   8.268 -1.3148  2.1772 -0.8439
  127OSM   H16T13586   1.681   0.916   8.204  0.8451  0.2302  0.0126
  127OSM   C17S13587   1.516   1.039   8.266  0.1814 -0.7767  0.2827
  127OSM   H17S13588   1.519   0.977   8.359 -2.1300 -0.6735  0.5091
  127OSM   H17T13589   1.452   0.977   8.199 -2.0785 -0.1584  1.7519
  127OSM   C18S13590   1.469   1.179   8.295  0.4660  0.1718 -0.1261
  127OSM   H18S13591   1.381   1.161   8.360 -0.7216 -1.3855 -2.0437
  127OSM   H18T13592   1.440   1.231   8.201 -3.7680 -0.1635  0.7625
  127OSM   H18U13593   1.544   1.245   8.343  0.7847  2.8126 -3.7847
  127OSM    C1F13594   2.140   0.649   6.706 -0.7194 -0.4166  0.7734
  127OSM     OF13595   2.226   0.697   6.628 -0.4500  0.2679 -0.0275
  127OSM    C2F13596   2.159   0.520   6.779  0.1814 -0.7695  0.3240
  127OSM    H2F13597   2.204   0.439   6.719 -0.2623 -0.0955 -0.9556
  127OSM    H2G13598   2.060   0.478   6.807 -0.9623  0.8442 -1.0362
  127OSM    C3F13599   2.269   0.540   6.887  0.4973 -0.2023 -0.1543
  127OSM    H3F13600   2.354   0.595   6.842 -0.5702 -0.8805 -3.2276
  127OSM    H3G13601   2.309   0.442   6.919  4.3031  1.3908  0.4982
  127OSM    C4F13602   2.218   0.608   7.020  0.6077 -0.1276  0.4412
  127OSM    H4F13603   2.111   0.591   7.044  0.7027 -2.3057 -0.4075
  127OSM    H4G13604   2.228   0.718   7.009  1.2425  0.1384  2.9418
  127OSM    C5F13605   2.306   0.554   7.134 -0.7936  0.6797  0.4710
  127OSM    H5F13606   2.410   0.540   7.097 -0.7298  0.6004  0.6740
  127OSM    H5G13607   2.262   0.452   7.140  0.7660 -0.2282 -2.0709
  127OSM    C6F13608   2.300   0.620   7.272 -0.7082 -0.2888 -0.0411
  127OSM    H6F13609   2.198   0.661   7.288  0.6396  3.4680 -0.0805
  127OSM    H6G13610   2.377   0.699   7.269  0.5547 -1.4996 -0.5244
  127OSM    C7F13611   2.344   0.527   7.388  0.0166  0.4950  0.0522
  127OSM    H7F13612   2.451   0.496   7.388 -0.9871 -3.5958  1.4374
  127OSM    H7G13613   2.287   0.432   7.378  1.0807 -1.4274  6.9565
  127OSM    C8F13614   2.300   0.580   7.524  0.2024 -0.0244  0.4254
  127OSM    H8F13615   2.273   0.498   7.594 -1.7669  0.4315  0.2481
  127OSM    H8G13616   2.205   0.636   7.514 -0.1602 -0.7002  0.0086
  127OSM    C9F13617   2.409   0.663   7.586  0.1097  0.4210 -0.3393
  127OSM    H9F13618   2.450   0.743   7.523 -2.4928  1.9848 -0.2112
  127OSM   C10F13619   2.447   0.655   7.717  0.4452  0.5097  0.2448
  127OSM   H10F13620   2.530   0.719   7.749  1.2880 -0.8475  0.8731
  127OSM   C11F13621   2.389   0.555   7.820 -0.0518  0.0346  0.1465
  127OSM   H11F13622   2.399   0.448   7.793  1.5476  0.2665 -0.2842
  127OSM   H11G13623   2.281   0.580   7.824 -0.0122  0.2212  0.0703
  127OSM   C12F13624   2.444   0.580   7.961 -0.3930  0.7106  0.0123
  127OSM   H12F13625   2.478   0.683   7.984 -1.7463  1.9836 -3.1911
  127OSM   H12G13626   2.541   0.525   7.962 -0.5528  0.4246 -0.1079
  127OSM   C13F13627   2.354   0.530   8.079  0.6272  0.4812  0.3433
  127OSM   H13F13628   2.339   0.424   8.051  0.4553  0.3801  0.8040
  127OSM   H13G13629   2.253   0.576   8.072  0.2160 -0.2351  1.3268
  127OSM   C14F13630   2.424   0.549   8.216  0.0346 -0.6769 -0.9204
  127OSM   H14F13631   2.505   0.473   8.218  0.9707  0.2956 -1.0637
  127OSM   H14G13632   2.358   0.512   8.298  0.9351 -0.2975  0.0054
  127OSM   C15F13633   2.467   0.694   8.249  0.0134  0.0312  0.2954
  127OSM   H15F13634   2.403   0.770   8.199  1.1182  0.6135 -0.2610
  127OSM   H15G13635   2.570   0.714   8.211  0.3202 -0.7495  0.7053
  127OSM   C16F13636   2.471   0.728   8.400 -0.2911 -0.3317 -0.4787
  127OSM   H16F13637   2.562   0.792   8.406  0.3528 -1.3403  1.2079
  127OSM   H16G13638   2.483   0.636   8.461 -0.1009 -1.0724 -1.6019
  127OSM   C17F13639   2.342   0.803   8.448  0.5447  0.1097 -0.2111
  127OSM   H17F13640   2.255   0.746   8.407  1.6081 -0.7585 -1.3231
  127OSM   H17G13641   2.338   0.903   8.400 -2.0778 -0.6158 -1.7072
  127OSM   C18F13642   2.318   0.808   8.598 -0.1524 -0.2174 -0.2424
  127OSM   H18F13643   2.333   0.707   8.643 -0.2301  0.0531  0.3998
  127OSM   H18G13644   2.210   0.832   8.607 -0.5090 -1.3931 -1.1101
  127OSM   H18H13645   2.388   0.878   8.648 -0.3867  0.4057 -0.7716
  128OSM      N13646   3.771   4.797   6.039 -0.5317  0.0531 -0.3539
  128OSM    C1513647   3.765   4.732   6.177 -0.3905  0.3096 -0.9283
  128OSM   H15A13648   3.721   4.797   6.251  2.1167  1.1782 -0.1186
  128OSM   H15B13649   3.864   4.711   6.214 -1.3940  0.6099  2.1689
  128OSM   H15C13650   3.704   4.644   6.161 -2.2064  0.9856  1.6472
  128OSM    C1413651   3.862   4.915   6.054 -0.1423  0.7266 -0.3099
  128OSM   H14A13652   3.955   4.899   6.106 -0.1405  0.8328 -0.2800
  128OSM   H14B13653   3.815   4.992   6.115  0.9064  1.7027 -0.7012
  128OSM   H14C13654   3.880   4.969   5.962 -0.5052 -0.9087 -1.3633
  128OSM    C1313655   3.841   4.697   5.945 -0.2118  0.2990 -0.1195
  128OSM   H13A13656   3.774   4.614   5.930 -1.1469  1.3933 -2.5978
  128OSM   H13B13657   3.930   4.651   5.985 -0.6319 -1.7698 -1.4009
  128OSM   H13C13658   3.867   4.734   5.847  0.0341 -2.0223 -0.9834
  128OSM    C1213659   3.639   4.846   5.985  0.0754  0.4953 -0.0366
  128OSM   H12A13660   3.656   4.905   5.897  1.8055 -0.3805 -0.3313
  128OSM   H12B13661   3.593   4.913   6.057  1.5801  1.7603 -0.1998
  128OSM    C1113662   3.528   4.739   5.956 -0.4894  0.2049  0.2817
  128OSM   H11A13663   3.566   4.676   5.873  1.2376  1.8469 -0.2654
  128OSM   H11B13664   3.440   4.795   5.918  1.0540  1.3013 -1.9533
  128OSM      P13665   3.494   4.506   6.076  0.1704  0.2157 -0.1511
  128OSM    O1313666   3.405   4.448   5.976  0.4941 -0.1548 -0.0051
  128OSM    O1413667   3.640   4.468   6.073  0.4010  0.1349 -0.1124
  128OSM    O1113668   3.433   4.478   6.225 -0.0129 -0.1471 -0.5855
  128OSM    O1213669   3.489   4.663   6.067 -0.2114  0.6892  0.0634
  128OSM    C1S13670   3.508   4.460   6.344 -0.0950  0.2527 -0.0177
  128OSM    H1S13671   3.593   4.532   6.351 -1.8944  2.3783  1.1528
  128OSM    H1T13672   3.552   4.358   6.345 -1.1492 -0.2138  0.1140
  128OSM     NF13673   3.495   4.418   6.596  0.0488  0.0005 -0.5916
  128OSM    HNF13674   3.483   4.320   6.611  0.2312  0.0348 -0.2160
  128OSM    C2S13675   3.422   4.471   6.480  0.8264 -0.4398 -0.0958
  128OSM    H2S13676   3.403   4.578   6.503 -1.3841 -1.0398  1.1411
  128OSM    C3S13677   3.275   4.410   6.472 -0.3428  0.0570  0.1910
  128OSM    H3S13678   3.279   4.304   6.439 -1.1411 -0.1593  0.7758
  128OSM     O313679   3.209   4.457   6.356 -0.0034 -0.3653  0.1325
  128OSM    HO313680   3.284   4.484   6.303  1.3145 -0.4444  1.8781
  128OSM    C4S13681   3.204   4.437   6.599  1.2699  0.6634 -0.5728
  128OSM    H4S13682   3.170   4.540   6.613 -1.0964  0.1681 -2.0280
  128OSM    C5S13683   3.161   4.344   6.692  0.0435  0.1039 -0.0315
  128OSM    H5S13684   3.178   4.239   6.665 -0.3589  0.2113 -0.7584
  128OSM    C6S13685   3.074   4.363   6.808  0.5315  0.1311  0.1796
  128OSM    H6S13686   2.989   4.292   6.799  0.2684  0.6288 -1.5931
  128OSM    H6T13687   3.036   4.467   6.798  1.2737  0.2072 -2.4765
  128OSM    C7S13688   3.154   4.348   6.937  0.1549 -0.9849 -0.5814
  128OSM    H7S13689   3.242   4.416   6.936  2.0057 -3.0292  2.9904
  128OSM    H7T13690   3.191   4.246   6.962  1.9638  0.4341  3.2407
  128OSM    C8S13691   3.078   4.377   7.066  0.6145  0.5470 -0.5886
  128OSM    H8S13692   2.983   4.319   7.061  0.8228  0.2799 -1.8430
  128OSM    H8T13693   3.049   4.484   7.065  0.6392  0.6585  2.0206
  128OSM    C9S13694   3.147   4.333   7.192 -0.5365 -0.6414 -1.2450
  128OSM    H9S13695   3.230   4.402   7.216 -1.2999  1.0424 -3.1100
  128OSM    H9T13696   3.181   4.227   7.186  0.1940 -0.5714  1.0656
  128OSM   C10S13697   3.046   4.324   7.314 -0.9347 -1.2555 -0.2431
  128OSM   H10S13698   2.973   4.240   7.312 -1.7343 -0.6311  1.2354
  128OSM   H10T13699   2.978   4.411   7.299 -1.3723 -1.7342 -1.1414
  128OSM   C11S13700   3.117   4.316   7.455 -0.0087 -0.7302  0.1899
  128OSM   H11S13701   3.195   4.392   7.477  1.1502 -2.2822  1.7498
  128OSM   H11T13702   3.173   4.221   7.457 -0.4155 -0.9768  0.0029
  128OSM   C12S13703   3.015   4.331   7.570 -0.2259  0.2763  0.5755
  128OSM   H12S13704   2.937   4.254   7.553 -1.8592  2.0105 -0.1524
  128OSM   H12T13705   2.963   4.428   7.584  1.1823  1.3670 -1.3611
  128OSM   C13S13706   3.091   4.290   7.702  0.3293 -0.2531  0.0421
  128OSM   H13S13707   3.173   4.365   7.699 -2.0547  2.5674 -0.1607
  128OSM   H13T13708   3.127   4.185   7.699  2.8813  0.5213  1.2161
  128OSM   C14S13709   3.008   4.311   7.826  0.0238  0.1905 -0.7627
  128OSM   H14S13710   2.932   4.231   7.832  1.8633 -1.5857  0.0109
  128OSM   H14T13711   2.958   4.410   7.830 -0.1895  0.0501  1.0245
  128OSM   C15S13712   3.104   4.296   7.944  0.1150 -0.1134  0.0019
  128OSM   H15S13713   3.199   4.350   7.923 -0.2225  0.4804 -0.0384
  128OSM   H15T13714   3.136   4.191   7.955 -0.3225 -0.4486 -1.6235
  128OSM   C16S13715   3.039   4.356   8.074 -0.0425 -1.1645  0.5845
  128OSM   H16S13716   2.942   4.306   8.091 -1.6868  1.2281 -1.1320
  128OSM   H16T13717   3.024   4.465   8.054  0.3559 -1.2440 -0.1710
  128OSM   C17S13718   3.135   4.359   8.190  0.8288 -0.6185 -0.6128
  128OSM   H17S13719   3.227   4.411   8.156 -1.0743  1.8903 -2.3102
  128OSM   H17T13720   3.153   4.255   8.223  1.6464 -0.0943  0.6618
  128OSM   C18S13721   3.071   4.419   8.314 -0.3208 -0.0882 -0.0025
  128OSM   H18S13722   2.997   4.355   8.366 -2.5951 -0.1185 -2.9884
  128OSM   H18T13723   3.018   4.514   8.293  0.9512  0.3667 -1.3416
  128OSM   H18U13724   3.154   4.433   8.387 -0.2521 -0.1383 -0.0704
  128OSM    C1F13725   3.596   4.479   6.661  0.8067 -0.0123  0.2227
  128OSM     OF13726   3.633   4.587   6.622  0.4098  0.2073  0.3847
  128OSM    C2F13727   3.665   4.410   6.772  0.7330  0.0219  0.2520
  128OSM    H2F13728   3.752   4.470   6.804  0.8769  0.0135 -0.1217
  128OSM    H2G13729   3.697   4.307   6.746  0.0993 -0.0036 -0.4453
  128OSM    C3F13730   3.564   4.390   6.891 -0.5136 -0.1034 -0.2124
  128OSM    H3F13731   3.487   4.313   6.869  0.0517  0.0808 -3.3652
  128OSM    H3G13732   3.516   4.488   6.910 -1.3648 -0.2573 -1.4138
  128OSM    C4F13733   3.646   4.370   7.014 -0.1603  0.7705  0.2059
  128OSM    H4F13734   3.733   4.439   7.017 -0.6831  1.6425 -2.4751
  128OSM    H4G13735   3.688   4.267   7.009  0.2763  0.9012  0.9719
  128OSM    C5F13736   3.556   4.381   7.136  0.2076  0.1115 -0.6364
  128OSM    H5F13737   3.468   4.316   7.118  1.2908 -1.4418 -0.5013
  128OSM    H5G13738   3.514   4.484   7.136 -0.2340 -0.0118  1.4032
  128OSM    C6F13739   3.608   4.346   7.272  0.3273  0.6619  0.1658
  128OSM    H6F13740   3.711   4.387   7.284  1.2134 -1.8177  1.9120
  128OSM    H6G13741   3.619   4.236   7.275 -0.8922  0.5090 -0.6548
  128OSM    C7F13742   3.510   4.386   7.391  0.3220  0.5626  0.1319
  128OSM    H7F13743   3.412   4.333   7.391 -1.6191  3.8801  0.6009
  128OSM    H7G13744   3.484   4.493   7.376  0.3298  1.0771  3.1045
  128OSM    C8F13745   3.571   4.357   7.529 -0.5459 -0.5825 -0.0428
  128OSM    H8F13746   3.646   4.436   7.551 -2.2181  0.9617  0.3258
  128OSM    H8G13747   3.625   4.260   7.520 -0.5117 -0.4508 -1.5244
  128OSM    C9F13748   3.463   4.351   7.635 -0.1559  0.1856  0.2386
  128OSM    H9F13749   3.361   4.341   7.595 -0.6554 -1.4730  1.7945
  128OSM   C10F13750   3.484   4.336   7.768  0.1025  0.4982 -0.4632
  128OSM   H10F13751   3.399   4.325   7.837  0.4203  0.3385 -0.0898
  128OSM   C11F13752   3.622   4.325   7.832  0.3546 -0.0368 -0.9137
  128OSM   H11F13753   3.712   4.344   7.769  1.0018  0.4265  0.1227
  128OSM   H11G13754   3.641   4.224   7.873  1.3532 -0.0107 -1.2835
  128OSM   C12F13755   3.650   4.429   7.953 -0.2519 -0.6022  0.8011
  128OSM   H12F13756   3.623   4.533   7.922 -1.3738 -0.9293  0.6201
  128OSM   H12G13757   3.760   4.440   7.960 -0.3180  0.4989  0.3393
  128OSM   C13F13758   3.570   4.400   8.084  0.3493 -0.2133 -0.3620
  128OSM   H13F13759   3.620   4.319   8.142  1.6832  0.9029  0.1116
  128OSM   H13G13760   3.466   4.374   8.055  0.3816  0.3492 -0.9981
  128OSM   C14F13761   3.564   4.521   8.175  0.4366  0.1988 -0.0622
  128OSM   H14F13762   3.519   4.608   8.122  1.2271  0.3202 -0.5495
  128OSM   H14G13763   3.671   4.543   8.196  0.6481 -0.9375  0.1211
  128OSM   C15F13764   3.486   4.518   8.305 -0.2529 -0.2304  0.2007
  128OSM   H15F13765   3.521   4.444   8.380  0.2210  1.1230  1.3748
  128OSM   H15G13766   3.380   4.490   8.287 -0.1674 -0.4534  0.0494
  128OSM   C16F13767   3.512   4.652   8.375 -0.3454 -0.1971 -0.4941
  128OSM   H16F13768   3.555   4.717   8.296  0.1477 -1.4138 -1.2662
  128OSM   H16G13769   3.582   4.646   8.461 -1.5236 -0.7399  0.4458
  128OSM   C17F13770   3.389   4.729   8.430  0.6257 -0.1220 -0.3653
  128OSM   H17F13771   3.340   4.668   8.509  0.2561 -0.7726 -1.0897
  128OSM   H17G13772   3.318   4.739   8.345  0.4892 -0.6228 -0.3136
  128OSM   C18F13773   3.426   4.863   8.496 -0.1977 -0.1948 -0.9987
  128OSM   H18F13774   3.335   4.917   8.527  1.2345  1.7173  0.1041
  128OSM   H18G13775   3.479   4.928   8.423  1.4620  0.5483  0.7716
  128OSM   H18H13776   3.488   4.833   8.584 -1.0802 -0.1768 -0.3662
  129OSM      N13777   0.265   5.148   6.085  0.3859 -0.5571  0.6130
  129OSM    C1513778   0.325   5.129   6.218 -0.2486 -0.0158 -0.0017
  129OSM   H15A13779   0.393   5.046   6.201 -0.3258 -0.0052 -0.3759
  129OSM   H15B13780   0.250   5.114   6.294 -0.1774 -1.1188 -0.1279
  129OSM   H15C13781   0.388   5.214   6.235  0.1143 -0.3671  0.4504
  129OSM    C1413782   0.150   5.046   6.074 -0.1468  1.1159 -0.4637
  129OSM   H14A13783   0.095   5.066   5.983 -2.4056 -1.1574  0.2901
  129OSM   H14B13784   0.075   5.058   6.150  0.0819 -1.2482  0.2046
  129OSM   H14C13785   0.190   4.945   6.072 -0.9700  0.7864 -0.7177
  129OSM    C1313786   0.197   5.283   6.083 -0.8362 -0.6288 -0.5416
  129OSM   H13A13787   0.136   5.294   6.172 -1.6215 -2.9388 -0.7354
  129OSM   H13B13788   0.129   5.299   6.002 -0.3790  2.6169 -0.4052
  129OSM   H13C13789   0.276   5.357   6.079 -1.4632  0.0231 -0.9399
  129OSM    C1213790   0.368   5.132   5.973 -0.7059 -0.6673 -0.1564
  129OSM   H12A13791   0.316   5.143   5.879  1.0365 -0.0971 -1.1096
  129OSM   H12B13792   0.409   5.034   5.954 -0.8984 -1.0801  1.4623
  129OSM    C1113793   0.494   5.230   5.966  0.3568 -0.8383 -0.7971
  129OSM   H11A13794   0.564   5.221   5.880 -0.3450 -0.0084 -1.4577
  129OSM   H11B13795   0.563   5.205   6.050  2.4347  1.2596 -1.7573
  129OSM      P13796   0.532   5.467   6.055  0.0613 -0.0763  0.2153
  129OSM    O1313797   0.660   5.491   5.980  1.1712  0.3492  0.0049
  129OSM    O1413798   0.439   5.579   6.086  0.1648 -0.1154 -0.6022
  129OSM    O1113799   0.574   5.386   6.186  0.1676  0.2038  0.2573
  129OSM    O1213800   0.446   5.367   5.971 -0.0877  0.5030 -0.0117
  129OSM    C1S13801   0.640   5.456   6.293 -0.5947 -0.3856  0.2983
  129OSM    H1S13802   0.585   5.547   6.325  0.9538  0.4771  0.5623
  129OSM    H1T13803   0.748   5.477   6.284 -0.1158 -3.2286 -2.9794
  129OSM     NF13804   0.691   5.433   6.533  0.3384  0.0588 -0.0623
  129OSM    HNF13805   0.789   5.448   6.539  0.3341 -0.4736  4.2024
  129OSM    C2S13806   0.651   5.354   6.418  0.0032  0.2265 -0.0625
  129OSM    H2S13807   0.550   5.308   6.431 -0.4082  0.2276 -2.6247
  129OSM    C3S13808   0.741   5.234   6.375 -0.6098 -0.6854 -0.7312
  129OSM    H3S13809   0.845   5.270   6.358 -0.8562  1.1052  1.1831
  129OSM     O313810   0.706   5.155   6.261 -0.8983 -0.1516 -0.1434
  129OSM    HO313811   0.650   5.210   6.205 -0.6880 -0.3109 -0.5143
  129OSM    C4S13812   0.753   5.148   6.492  0.0404  0.3342 -0.8619
  129OSM    H4S13813   0.660   5.127   6.547  1.5228  1.7318  2.4152
  129OSM    C5S13814   0.873   5.118   6.553 -0.4941  0.2140 -0.7027
  129OSM    H5S13815   0.964   5.177   6.533  0.1053 -0.6147 -0.4536
  129OSM    C6S13816   0.895   5.038   6.678  0.2342 -0.4978 -0.0468
  129OSM    H6S13817   0.859   5.088   6.770 -0.3725 -1.0392  0.0151
  129OSM    H6T13818   1.005   5.038   6.692  0.4340  1.6113 -1.0955
  129OSM    C7S13819   0.838   4.903   6.661 -0.0928  1.1338 -0.0619
  129OSM    H7S13820   0.872   4.867   6.562 -1.7419  0.0454 -0.2772
  129OSM    H7T13821   0.728   4.893   6.663  0.0152 -0.5626  2.1347
  129OSM    C8S13822   0.877   4.805   6.773 -0.1393  0.1232  0.6349
  129OSM    H8S13823   0.848   4.836   6.875  0.8104 -0.8489  1.2259
  129OSM    H8T13824   0.987   4.784   6.777  0.0280  1.0333  0.9077
  129OSM    C9S13825   0.800   4.667   6.757 -0.1377 -0.3252  0.1241
  129OSM    H9S13826   0.836   4.635   6.658  1.8327  1.1333  0.3035
  129OSM    H9T13827   0.692   4.693   6.763 -0.3665 -0.9205 -1.2420
  129OSM   C10S13828   0.828   4.562   6.872  0.3463  0.6188  0.3657
  129OSM   H10S13829   0.925   4.512   6.853 -0.6143 -0.6381 -1.4768
  129OSM   H10T13830   0.750   4.485   6.859  0.5472  0.8553 -3.4044
  129OSM   C11S13831   0.830   4.612   7.015  0.2893  0.0192  0.4347
  129OSM   H11S13832   0.744   4.679   7.038 -0.6098 -1.2014  0.7219
  129OSM   H11T13833   0.926   4.665   7.033 -1.1278  2.7757  0.3764
  129OSM   C12S13834   0.810   4.488   7.116 -0.1164 -0.7749 -0.2868
  129OSM   H12S13835   0.895   4.422   7.087  3.0069  2.5110  0.6107
  129OSM   H12T13836   0.717   4.427   7.115 -0.7402  0.1248 -1.8380
  129OSM   C13S13837   0.822   4.541   7.257 -0.6631 -0.3322 -0.0616
  129OSM   H13S13838   0.733   4.604   7.279 -0.4704 -0.7966  2.3581
  129OSM   H13T13839   0.911   4.607   7.267 -2.4039  2.1420  0.3381
  129OSM   C14S13840   0.827   4.423   7.353 -0.0116 -0.3363 -0.1828
  129OSM   H14S13841   0.896   4.347   7.309  0.9887  0.5838 -0.2438
  129OSM   H14T13842   0.726   4.382   7.371  0.0700 -0.1511  0.7465
  129OSM   C15S13843   0.895   4.469   7.488  0.1718  0.9693  0.0301
  129OSM   H15S13844   0.863   4.571   7.518 -0.1566  2.0074 -3.4260
  129OSM   H15T13845   1.001   4.480   7.454  0.1108  0.8553 -0.1970
  129OSM   C16S13846   0.891   4.362   7.599  0.6011  0.0988  0.2549
  129OSM   H16S13847   0.953   4.282   7.553  0.7473  0.0049  0.6110
  129OSM   H16T13848   0.790   4.319   7.613  0.3369  0.9577  1.1359
  129OSM   C17S13849   0.953   4.418   7.733  0.1965 -0.6439 -0.6328
  129OSM   H17S13850   0.899   4.509   7.767  2.1122  0.8989 -1.5259
  129OSM   H17T13851   1.061   4.440   7.723  0.2943 -0.4957  0.5731
  129OSM   C18S13852   0.946   4.313   7.840  0.4427  0.0475 -0.1309
  129OSM   H18S13853   0.954   4.367   7.936  0.6825  1.8950 -1.1335
  129OSM   H18T13854   1.037   4.249   7.841  0.0479 -0.5310 -0.2496
  129OSM   H18U13855   0.845   4.266   7.843  0.6585 -0.8890 -3.4086
  129OSM    C1F13856   0.613   5.516   6.606  0.5226 -0.1327 -0.8099
  129OSM     OF13857   0.495   5.549   6.579  0.0038 -0.2158  0.4230
  129OSM    C2F13858   0.683   5.582   6.719 -0.2798  0.4577  0.2230
  129OSM    H2F13859   0.759   5.647   6.672  3.2546 -3.1037  0.5638
  129OSM    H2G13860   0.736   5.502   6.775 -0.4084  0.0609 -0.2159
  129OSM    C3F13861   0.584   5.659   6.811  0.3015 -0.6557  0.1824
  129OSM    H3F13862   0.499   5.594   6.842 -0.1043  0.2273  0.9725
  129OSM    H3G13863   0.540   5.747   6.759 -0.6540 -1.8161 -1.0556
  129OSM    C4F13864   0.651   5.705   6.947  0.5797  0.2280  0.2673
  129OSM    H4F13865   0.582   5.786   6.980 -0.5698 -0.8956  0.6935
  129OSM    H4G13866   0.749   5.750   6.920  0.8101 -1.3688 -1.8073
  129OSM    C5F13867   0.660   5.602   7.061  0.6073  0.3170 -0.1270
  129OSM    H5F13868   0.748   5.537   7.040 -0.1872 -0.6420 -0.5192
  129OSM    H5G13869   0.571   5.536   7.058  0.6119  0.1670  1.6593
  129OSM    C6F13870   0.668   5.670   7.200 -0.0923 -0.1292  0.3883
  129OSM    H6F13871   0.587   5.742   7.223  0.1263 -0.0040  0.7829
  129OSM    H6G13872   0.762   5.729   7.196 -0.3581  0.2357 -0.9716
  129OSM    C7F13873   0.671   5.564   7.316 -0.4460 -0.0461  0.5945
  129OSM    H7F13874   0.757   5.495   7.321 -0.0272  0.5305  2.1026
  129OSM    H7G13875   0.575   5.507   7.316 -1.3480  1.3940  0.3988
  129OSM    C8F13876   0.669   5.648   7.448 -0.1101 -0.2317 -0.4106
  129OSM    H8F13877   0.647   5.583   7.536  0.4971 -1.5908 -1.2250
  129OSM    H8G13878   0.586   5.722   7.451  1.1897  1.2423  0.2285
  129OSM    C9F13879   0.796   5.721   7.476 -0.2514  0.8807  0.7140
  129OSM    H9F13880   0.865   5.719   7.390 -0.7746 -1.3944  0.2665
  129OSM   C10F13881   0.842   5.757   7.595  0.4139 -0.7476  0.3282
  129OSM   H10F13882   0.941   5.804   7.607 -1.3295  3.4287  0.1597
  129OSM   C11F13883   0.769   5.734   7.725  0.4930 -0.6902 -0.5598
  129OSM   H11F13884   0.843   5.679   7.786 -1.2291 -0.3547  1.9467
  129OSM   H11G13885   0.672   5.684   7.707 -0.7899  2.0498 -1.8675
  129OSM   C12F13886   0.729   5.863   7.791  0.3918 -0.0197  0.4271
  129OSM   H12F13887   0.659   5.834   7.873 -1.7299  1.3430 -0.7953
  129OSM   H12G13888   0.668   5.923   7.720  0.6369  0.7029  0.8148
  129OSM   C13F13889   0.850   5.944   7.851  0.4469 -0.2083  1.0934
  129OSM   H13F13890   0.917   5.974   7.767  1.1649  1.6182  2.2510
  129OSM   H13G13891   0.908   5.879   7.919  0.2709  0.0138  1.4624
  129OSM   C14F13892   0.813   6.072   7.928 -0.2721 -0.5783 -0.3535
  129OSM   H14F13893   0.773   6.157   7.869  0.2069 -1.2308 -1.6562
  129OSM   H14G13894   0.905   6.126   7.959 -2.2828  3.3331 -0.5724
  129OSM   C15F13895   0.720   6.048   8.048  0.2950  0.2405 -0.2579
  129OSM   H15F13896   0.744   6.112   8.135 -0.2090 -0.6805  0.5825
  129OSM   H15G13897   0.733   5.943   8.080 -1.4016 -0.2520 -1.0746
  129OSM   C16F13898   0.572   6.072   8.022  0.2910 -0.5360 -0.0500
  129OSM   H16F13899   0.548   6.020   7.927  0.1322 -1.2336  0.3690
  129OSM   H16G13900   0.557   6.180   8.003  0.4453 -0.4268  0.4408
  129OSM   C17F13901   0.472   6.043   8.140 -0.7722  0.4955 -0.0041
  129OSM   H17F13902   0.442   5.936   8.146  3.0623 -0.7250 -0.0451
  129OSM   H17G13903   0.379   6.096   8.109  0.6781  2.6671 -0.8082
  129OSM   C18F13904   0.521   6.101   8.278  0.3006 -0.3674  0.3847
  129OSM   H18F13905   0.614   6.044   8.297  0.5027 -0.5548 -1.0513
  129OSM   H18G13906   0.455   6.077   8.364  2.6094 -0.3343  2.2614
  129OSM   H18H13907   0.544   6.209   8.267 -1.2852  0.2193  2.2565
  130OSM      N13908   1.111   3.347   5.782  0.4773  0.4294 -0.1603
  130OSM    C1513909   0.981   3.271   5.744 -0.4865 -0.5252 -0.0692
  130OSM   H15A13910   0.990   3.233   5.644 -1.9868 -0.0027 -0.4173
  130OSM   H15B13911   0.893   3.332   5.754 -0.9846 -1.5080  2.2380
  130OSM   H15C13912   0.980   3.184   5.808  1.1326 -0.9631 -0.5939
  130OSM    C1413913   1.212   3.249   5.806 -0.4232 -0.1433  0.1553
  130OSM   H14A13914   1.275   3.281   5.888 -1.4387  0.2375  0.8078
  130OSM   H14B13915   1.278   3.230   5.723 -0.8488  0.4722 -0.3362
  130OSM   H14C13916   1.177   3.153   5.841 -0.4603 -0.0819  0.2871
  130OSM    C1313917   1.141   3.445   5.663  0.4847  0.4627 -0.2753
  130OSM   H13A13918   1.062   3.516   5.647  1.1788  1.1620 -0.6770
  130OSM   H13B13919   1.127   3.389   5.571  0.0710  0.4401 -0.1967
  130OSM   H13C13920   1.236   3.497   5.666  1.1237 -0.5500 -1.4403
  130OSM    C1213921   1.081   3.432   5.914  0.6656 -0.4140  0.2570
  130OSM   H12A13922   0.995   3.495   5.900  1.3981  1.5894  3.6612
  130OSM   H12B13923   1.170   3.493   5.925  1.3777 -1.5326  0.9031
  130OSM    C1113924   1.067   3.354   6.046  0.5716 -0.4405 -0.2171
  130OSM   H11A13925   0.995   3.272   6.026 -0.6691 -0.1292  2.5498
  130OSM   H11B13926   1.018   3.424   6.117 -0.7340  0.7093 -2.1599
  130OSM      P13927   1.294   3.387   6.169  0.6326 -0.4221  0.0041
  130OSM    O1313928   1.400   3.298   6.218 -0.1750  0.2769 -0.1518
  130OSM    O1413929   1.347   3.500   6.081  0.9326  0.6643 -0.5141
  130OSM    O1113930   1.229   3.447   6.295  0.0174  0.1324  0.3361
  130OSM    O1213931   1.184   3.293   6.092 -0.4408 -0.0679 -0.1300
  130OSM    C1S13932   1.140   3.372   6.375  0.3606 -0.4715 -0.2685
  130OSM    H1S13933   1.150   3.262   6.363 -1.6182 -1.0426  2.3934
  130OSM    H1T13934   1.035   3.400   6.352 -0.3853 -2.2261  0.7713
  130OSM     NF13935   1.111   3.303   6.611 -0.7708  0.8522  0.0912
  130OSM    HNF13936   1.031   3.336   6.659 -0.4392 -0.8512  1.9449
  130OSM    C2S13937   1.177   3.401   6.526 -0.0085  0.8391  0.3655
  130OSM    H2S13938   1.285   3.379   6.540  0.0129  0.0034 -0.9594
  130OSM    C3S13939   1.156   3.552   6.562 -0.3038  0.4759 -1.0349
  130OSM    H3S13940   1.047   3.565   6.573 -0.1693 -0.2855  2.0112
  130OSM     O313941   1.186   3.647   6.463  0.0974  0.0684 -0.3890
  130OSM    HO313942   1.186   3.604   6.378  2.1347 -1.5007  0.3306
  130OSM    C4S13943   1.228   3.573   6.692 -0.1303  0.3635 -0.7152
  130OSM    H4S13944   1.168   3.572   6.784  2.5853 -0.7028  1.1608
  130OSM    C5S13945   1.361   3.585   6.711  0.6233 -0.3754 -0.3712
  130OSM    H5S13946   1.423   3.572   6.622  0.1379  0.0626 -0.7830
  130OSM    C6S13947   1.442   3.609   6.834 -0.2232 -1.2021 -0.4577
  130OSM    H6S13948   1.431   3.716   6.864 -1.1595 -1.0067 -1.4156
  130OSM    H6T13949   1.548   3.586   6.810 -0.1216 -0.6861 -0.5373
  130OSM    C7S13950   1.388   3.535   6.962 -0.5602 -0.9520  1.0299
  130OSM    H7S13951   1.430   3.432   6.959  1.6063 -0.0844 -0.5331
  130OSM    H7T13952   1.279   3.511   6.961 -0.5833 -0.8379  0.7942
  130OSM    C8S13953   1.447   3.585   7.093 -0.9381 -0.9145 -0.2485
  130OSM    H8S13954   1.376   3.549   7.170 -2.9093  0.9724 -1.0865
  130OSM    H8T13955   1.435   3.695   7.094 -0.2049 -0.8263 -0.2593
  130OSM    C9S13956   1.589   3.525   7.124 -0.5196 -0.8310  1.0206
  130OSM    H9S13957   1.653   3.562   7.041 -1.5894 -0.4085  0.3519
  130OSM    H9T13958   1.582   3.414   7.125  0.4778 -0.9169  0.5195
  130OSM   C10S13959   1.637   3.577   7.259 -0.1072  0.4768  0.7920
  130OSM   H10S13960   1.639   3.688   7.249 -0.3692  0.3272 -1.4414
  130OSM   H10T13961   1.746   3.561   7.279  0.6891  1.9040 -1.8688
  130OSM   C11S13962   1.553   3.556   7.390  0.5508 -0.3576  0.0039
  130OSM   H11S13963   1.522   3.449   7.381 -1.3635  0.2290 -0.7019
  130OSM   H11T13964   1.462   3.619   7.385  0.9104  0.1310 -0.5216
  130OSM   C12S13965   1.635   3.584   7.516 -0.2688 -0.1770  0.5687
  130OSM   H12S13966   1.687   3.681   7.498  0.7453 -0.3652  2.2343
  130OSM   H12T13967   1.718   3.510   7.508  0.4362  0.7867 -2.9502
  130OSM   C13S13968   1.569   3.568   7.654 -0.3346 -0.4420 -0.4267
  130OSM   H13S13969   1.540   3.461   7.655  1.4709 -0.9922  1.1789
  130OSM   H13T13970   1.478   3.631   7.659 -0.8831 -1.2597  0.0493
  130OSM   C14S13971   1.663   3.590   7.775  0.1783 -0.3886 -0.6110
  130OSM   H14S13972   1.730   3.676   7.755 -2.8408  1.9552 -1.3444
  130OSM   H14T13973   1.725   3.498   7.772 -1.0640 -1.2300 -1.2735
  130OSM   C15S13974   1.595   3.596   7.916 -0.2019 -0.2434 -0.2967
  130OSM   H15S13975   1.531   3.505   7.930 -0.2160 -0.0882  0.7042
  130OSM   H15T13976   1.528   3.683   7.902  0.8561  0.6017 -0.1738
  130OSM   C16S13977   1.691   3.621   8.033  0.7547  0.2746  0.1998
  130OSM   H16S13978   1.733   3.723   8.036  0.5811  0.4385 -1.5523
  130OSM   H16T13979   1.770   3.544   8.020  1.8410  0.5034  4.1930
  130OSM   C17S13980   1.622   3.590   8.170  0.4889 -0.5051 -0.4245
  130OSM   H17S13981   1.596   3.482   8.172  0.0453 -0.4390 -1.6491
  130OSM   H17T13982   1.530   3.653   8.174  1.8797  1.5564  0.9757
  130OSM   C18S13983   1.709   3.640   8.287  0.2983 -1.2088 -0.5373
  130OSM   H18S13984   1.707   3.751   8.288  0.2263 -1.2018 -1.1882
  130OSM   H18T13985   1.810   3.593   8.276 -0.0735 -1.9214 -0.9518
  130OSM   H18U13986   1.665   3.605   8.383 -0.5540  1.2304  0.0353
  130OSM    C1F13987   1.134   3.169   6.612  0.3100 -0.1975  0.2109
  130OSM     OF13988   1.221   3.123   6.540 -0.2896 -0.3452 -0.2179
  130OSM    C2F13989   1.049   3.095   6.702  0.1848  0.1996 -0.7080
  130OSM    H2F13990   1.008   3.010   6.643 -1.4519  2.5344 -3.1317
  130OSM    H2G13991   0.955   3.149   6.725  0.2311  0.2264 -0.5797
  130OSM    C3F13992   1.114   3.038   6.833 -0.5362 -0.3318  0.3503
  130OSM    H3F13993   1.198   2.973   6.802  1.6426  0.5093  3.9645
  130OSM    H3G13994   1.039   2.969   6.879 -1.0630  0.1770  0.2746
  130OSM    C4F13995   1.156   3.148   6.935  0.2154 -0.6520 -0.2253
  130OSM    H4F13996   1.090   3.237   6.923  1.1932  0.3847  1.6242
  130OSM    H4G13997   1.251   3.187   6.892  0.0691 -0.0113  0.0183
  130OSM    C5F13998   1.185   3.097   7.080 -0.5899 -0.4828  0.4382
  130OSM    H5F13999   1.215   3.195   7.121 -0.6409  0.2299 -1.1492
  130OSM    H5G14000   1.278   3.037   7.080  0.7993  1.5889 -0.6958
  130OSM    C6F14001   1.076   3.022   7.156 -0.4402 -0.0680  0.0324
  130OSM    H6F14002   1.015   2.950   7.097 -0.9938 -0.2504  0.8080
  130OSM    H6G14003   1.000   3.097   7.188 -0.4191  0.0668 -0.2328
  130OSM    C7F14004   1.129   2.943   7.278 -0.5389 -0.7725  0.7885
  130OSM    H7F14005   1.221   2.994   7.313 -1.2363  1.2918 -0.2674
  130OSM    H7G14006   1.159   2.844   7.238 -0.1617  0.3129 -1.8228
  130OSM    C8F14007   1.033   2.924   7.391 -0.6280 -0.5515 -0.2585
  130OSM    H8F14008   0.936   2.879   7.359 -1.7905  1.5154  0.2106
  130OSM    H8G14009   0.995   3.025   7.417  0.0855 -0.1824 -0.6211
  130OSM    C9F14010   1.080   2.837   7.503  0.1524 -0.9139 -0.0699
  130OSM    H9F14011   1.101   2.734   7.469 -0.7319 -0.6121 -1.6347
  130OSM   C10F14012   1.086   2.866   7.634 -0.5028 -0.2065 -0.1403
  130OSM   H10F14013   1.129   2.787   7.698 -2.1091 -0.0465  1.1907
  130OSM   C11F14014   1.048   3.004   7.702 -0.0661 -1.0424 -0.5969
  130OSM   H11F14015   1.012   3.074   7.623  0.8119 -0.5773 -0.6025
  130OSM   H11G14016   1.139   3.045   7.752 -0.1714 -0.6867 -0.6943
  130OSM   C12F14017   0.930   2.987   7.799  0.8009 -0.0866  0.1419
  130OSM   H12F14018   0.923   2.883   7.837  1.9566 -0.6782 -1.1683
  130OSM   H12G14019   0.838   3.019   7.745  1.4020  3.6230  0.9922
  130OSM   C13F14020   0.938   3.081   7.911 -0.2635  0.7728 -0.1339
  130OSM   H13F14021   0.956   3.185   7.875  0.4673  0.5144 -0.5250
  130OSM   H13G14022   1.029   3.058   7.971 -1.5251  0.1485  1.6206
  130OSM   C14F14023   0.814   3.089   8.003  0.5995  0.0552  0.3211
  130OSM   H14F14024   0.716   3.084   7.950  2.6708 -2.2655 -3.8663
  130OSM   H14G14025   0.813   3.182   8.064 -1.3072 -1.3348  2.5561
  130OSM   C15F14026   0.826   2.971   8.107 -0.0647  0.3565 -0.4335
  130OSM   H15F14027   0.931   2.955   8.141 -0.0536  0.2543 -0.5148
  130OSM   H15G14028   0.803   2.882   8.045 -1.3350  1.4849 -1.6545
  130OSM   C16F14029   0.737   2.978   8.231 -0.5115  0.3737 -0.4179
  130OSM   H16F14030   0.633   2.959   8.196  0.2516 -0.3300 -2.4486
  130OSM   H16G14031   0.739   3.087   8.256  0.2071  1.0501 -3.0910
  130OSM   C17F14032   0.784   2.887   8.346  1.4344  0.9572  0.3594
  130OSM   H17F14033   0.895   2.898   8.342  1.6122 -0.5594  0.3589
  130OSM   H17G14034   0.754   2.781   8.329  0.5368  1.5024 -1.7232
  130OSM   C18F14035   0.734   2.920   8.491  0.6671 -0.3270  0.3969
  130OSM   H18F14036   0.754   3.028   8.503 -0.4646  0.3536 -2.8011
  130OSM   H18G14037   0.782   2.852   8.565 -1.4652 -2.0142  0.3458
  130OSM   H18H14038   0.623   2.917   8.503  0.6692 -0.1701  0.4584
  131OSM      N14039   1.002   0.873   6.227 -0.5035 -0.4242 -0.0356
  131OSM    C1514040   0.971   0.874   6.087  0.1887 -0.0959  0.8071
  131OSM   H15A14041   0.866   0.846   6.078  0.2392  0.4107 -2.7904
  131OSM   H15B14042   1.023   0.802   6.025 -0.0750  0.9686 -0.7084
  131OSM   H15C14043   0.991   0.975   6.055  2.3562 -0.1778  1.7189
  131OSM    C1414044   0.891   0.932   6.305  0.5535 -0.5206 -0.9688
  131OSM   H14A14045   0.801   0.874   6.299 -0.7104  1.1389  0.6441
  131OSM   H14B14046   0.867   1.035   6.284 -0.4322 -0.4453  0.3856
  131OSM   H14C14047   0.918   0.938   6.410  0.4212  0.4978 -0.9816
  131OSM    C1314048   1.029   0.735   6.281 -0.8506 -0.1388  0.3493
  131OSM   H13A14049   0.935   0.683   6.273 -0.8978  0.1297 -0.9719
  131OSM   H13B14050   1.067   0.731   6.382  1.2720 -1.9980 -0.4198
  131OSM   H13C14051   1.099   0.682   6.217  0.8649  3.1596 -0.7381
  131OSM    C1214052   1.128   0.952   6.260  0.7091  0.9026  0.2604
  131OSM   H12A14053   1.218   0.903   6.224  1.3316  1.8308  0.5038
  131OSM   H12B14054   1.134   0.953   6.368  2.8407 -2.0552  0.3155
  131OSM    C1114055   1.137   1.101   6.223  0.7405  0.5095 -0.4872
  131OSM   H11A14056   1.048   1.139   6.279  1.3884 -0.3272  1.1828
  131OSM   H11B14057   1.122   1.122   6.115  0.5821 -1.9719 -1.0097
  131OSM      P14058   1.400   1.153   6.200 -0.1721 -0.1730  0.0620
  131OSM    O1314059   1.383   1.095   6.063 -0.1605 -0.2892 -0.0505
  131OSM    O1414060   1.461   1.285   6.204  0.2615  0.6482  0.2939
  131OSM    O1114061   1.476   1.047   6.290  0.3944 -0.4564  0.1232
  131OSM    O1214062   1.258   1.161   6.274  0.2698 -0.1886 -0.0821
  131OSM    C1S14063   1.542   1.107   6.407  0.2961  0.5926 -0.2414
  131OSM    H1S14064   1.539   1.217   6.422 -1.5950  0.3326  1.7878
  131OSM    H1T14065   1.647   1.069   6.411  0.5589  1.0734 -1.9225
  131OSM     NF14066   1.538   1.105   6.653 -0.3599 -0.4043 -0.5008
  131OSM    HNF14067   1.627   1.070   6.682 -1.7356 -1.4891  2.9160
  131OSM    C2S14068   1.479   1.044   6.538  0.2466 -0.3519  0.2901
  131OSM    H2S14069   1.368   1.058   6.536  0.2446 -0.4069 -0.6754
  131OSM    C3S14070   1.485   0.884   6.531  0.0655  1.0272 -0.1275
  131OSM    H3S14071   1.589   0.850   6.552 -0.2060  0.2304 -0.0397
  131OSM     O314072   1.435   0.826   6.410  0.0327  0.7024 -0.4866
  131OSM    HO314073   1.427   0.903   6.354  2.6433  1.8511  0.5360
  131OSM    C4S14074   1.411   0.817   6.647  0.4164 -0.0903 -0.2567
  131OSM    H4S14075   1.302   0.827   6.649  0.2212 -1.6781 -1.0899
  131OSM    C5S14076   1.463   0.749   6.745 -0.5139 -0.1881  0.4070
  131OSM    H5S14077   1.569   0.721   6.740 -0.9354 -2.0660  1.2050
  131OSM    C6S14078   1.402   0.674   6.862  0.6378 -0.6370  0.8106
  131OSM    H6S14079   1.461   0.580   6.872  2.2552 -0.0188 -1.8679
  131OSM    H6T14080   1.292   0.661   6.851  0.0977  2.5834  1.2508
  131OSM    C7S14081   1.423   0.752   7.000  0.4824  0.3689 -0.0287
  131OSM    H7S14082   1.534   0.757   7.006  0.4884 -0.4081  0.7471
  131OSM    H7T14083   1.397   0.689   7.088 -0.3458  1.0040  0.1986
  131OSM    C8S14084   1.347   0.888   7.006  0.0262 -0.0740  0.1598
  131OSM    H8S14085   1.245   0.882   6.963  1.1969 -0.7433 -2.7587
  131OSM    H8T14086   1.397   0.962   6.939 -0.4970  0.3322  0.2110
  131OSM    C9S14087   1.343   0.941   7.152 -0.3859 -0.8138  0.0897
  131OSM    H9S14088   1.315   1.048   7.152 -0.3001 -0.7892 -0.4025
  131OSM    H9T14089   1.445   0.934   7.195 -0.3017 -0.5309 -0.0673
  131OSM   C10S14090   1.249   0.859   7.245 -0.3045  0.0712  0.2548
  131OSM   H10S14091   1.271   0.752   7.224  0.4478  0.0034  1.2925
  131OSM   H10T14092   1.144   0.869   7.212 -0.3748 -2.4354 -0.4921
  131OSM   C11S14093   1.259   0.886   7.396  0.9471  0.4945 -0.0100
  131OSM   H11S14094   1.362   0.864   7.432  0.7497 -1.5225 -0.5786
  131OSM   H11T14095   1.191   0.810   7.439  0.3130  1.6155  1.0604
  131OSM   C12S14096   1.206   1.025   7.433 -0.0167 -0.6820 -0.9095
  131OSM   H12S14097   1.101   1.041   7.401  0.6216 -0.3974 -3.0134
  131OSM   H12T14098   1.265   1.107   7.388  0.1438 -0.1253  0.2879
  131OSM   C13S14099   1.198   1.041   7.588  0.1307  0.0416  0.3898
  131OSM   H13S14100   1.300   1.036   7.630 -0.6367  0.8344  2.4493
  131OSM   H13T14101   1.140   0.953   7.624 -1.5032  0.8048 -0.2487
  131OSM   C14S14102   1.138   1.171   7.630  0.0240 -0.3037 -0.3420
  131OSM   H14S14103   1.030   1.148   7.628  0.1128 -1.7955  3.8648
  131OSM   H14T14104   1.163   1.264   7.574 -2.1350  2.0890  2.3719
  131OSM   C15S14105   1.175   1.212   7.780 -0.2225  0.4571  0.5035
  131OSM   H15S14106   1.106   1.296   7.803 -0.4874  0.2114  0.6018
  131OSM   H15T14107   1.279   1.250   7.772 -0.0665 -0.0056  0.3238
  131OSM   C16S14108   1.163   1.095   7.882 -0.6174  0.0498 -0.3113
  131OSM   H16S14109   1.251   1.032   7.856 -0.4027  0.2729 -0.1281
  131OSM   H16T14110   1.068   1.039   7.874 -0.1482 -1.4680  3.0925
  131OSM   C17S14111   1.190   1.140   8.029 -0.1834 -0.3215  0.0088
  131OSM   H17S14112   1.291   1.186   8.036  0.1155 -1.0051  0.2340
  131OSM   H17T14113   1.205   1.052   8.095  0.1071  1.1733  2.0188
  131OSM   C18S14114   1.078   1.232   8.086  1.6273  0.3484  0.3896
  131OSM   H18S14115   1.083   1.341   8.062 -0.7855  1.1251  2.9099
  131OSM   H18T14116   1.069   1.226   8.196 -2.8625 -1.1327  0.1261
  131OSM   H18U14117   0.980   1.202   8.043  2.3776 -1.5351 -0.1013
  131OSM    C1F14118   1.498   1.236   6.673 -0.2503 -0.1842  0.0314
  131OSM     OF14119   1.381   1.266   6.678  0.4178 -0.2832  0.3923
  131OSM    C2F14120   1.604   1.339   6.696 -0.2707  0.1927  0.3245
  131OSM    H2F14121   1.561   1.441   6.707 -2.5574 -0.9231  2.8606
  131OSM    H2G14122   1.672   1.338   6.609 -1.4909  0.1452 -0.6460
  131OSM    C3F14123   1.683   1.311   6.827  0.0336 -0.4432 -0.3984
  131OSM    H3F14124   1.763   1.388   6.832 -0.6651  0.2265  1.0383
  131OSM    H3G14125   1.736   1.215   6.842 -0.1996 -0.2972  1.5450
  131OSM    C4F14126   1.592   1.338   6.955 -0.1953  0.2004 -0.2404
  131OSM    H4F14127   1.520   1.254   6.957 -0.1844  0.1616 -1.2707
  131OSM    H4G14128   1.540   1.436   6.947  3.5781  2.5761  1.1347
  131OSM    C5F14129   1.667   1.333   7.092  0.2945  1.0239  0.0338
  131OSM    H5F14130   1.732   1.423   7.089  1.5454  0.1156 -2.6485
  131OSM    H5G14131   1.736   1.247   7.100 -0.0322  0.7503 -0.1082
  131OSM    C6F14132   1.578   1.327   7.213 -0.1711  0.0696  0.0919
  131OSM    H6F14133   1.489   1.261   7.205  0.3831 -0.8127  0.9643
  131OSM    H6G14134   1.527   1.425   7.221  0.4120  0.3275  0.8032
  131OSM    C7F14135   1.648   1.295   7.352 -0.1673  0.8170  0.1042
  131OSM    H7F14136   1.730   1.369   7.365  0.8343 -0.1939 -0.3804
  131OSM    H7G14137   1.694   1.195   7.340  0.4440  0.9564  1.1945
  131OSM    C8F14138   1.550   1.286   7.477 -0.2484  0.2631  0.7942
  131OSM    H8F14139   1.609   1.272   7.571  1.2936 -0.3170 -0.2162
  131OSM    H8G14140   1.485   1.196   7.471 -0.9562  0.7755  0.7223
  131OSM    C9F14141   1.464   1.404   7.490 -0.0540  0.0630  0.2005
  131OSM    H9F14142   1.377   1.406   7.422  0.9316 -2.2751 -1.2801
  131OSM   C10F14143   1.474   1.507   7.575 -0.3174 -0.2376  0.0895
  131OSM   H10F14144   1.406   1.593   7.562  2.9284  2.7582  1.2626
  131OSM   C11F14145   1.570   1.531   7.684 -0.5193  0.3459 -0.2557
  131OSM   H11F14146   1.609   1.635   7.686  0.9053 -0.1684  0.9363
  131OSM   H11G14147   1.658   1.463   7.676 -0.7301  0.1584 -1.0648
  131OSM   C12F14148   1.515   1.504   7.825 -0.3404  0.4789 -0.3861
  131OSM   H12F14149   1.477   1.401   7.839  0.6607  0.5118  3.6636
  131OSM   H12G14150   1.420   1.563   7.826 -1.0227 -0.4553 -2.8076
  131OSM   C13F14151   1.621   1.522   7.935 -0.1347 -1.1864 -0.0893
  131OSM   H13F14152   1.661   1.624   7.915 -1.3347 -0.9505 -1.4929
  131OSM   H13G14153   1.702   1.446   7.935  1.0370  0.0231 -1.0634
  131OSM   C14F14154   1.555   1.517   8.075 -0.2195  0.1386 -0.0975
  131OSM   H14F14155   1.627   1.554   8.151  1.2823 -1.2989 -0.7527
  131OSM   H14G14156   1.534   1.409   8.095 -1.4935  0.2908 -0.5466
  131OSM   C15F14157   1.432   1.604   8.093 -0.2294 -0.7089  0.1160
  131OSM   H15F14158   1.362   1.553   8.162  0.1581 -1.1845  0.1646
  131OSM   H15G14159   1.374   1.622   7.999 -0.3376 -0.3232  0.2556
  131OSM   C16F14160   1.481   1.737   8.147  0.2131 -0.3763  0.4856
  131OSM   H16F14161   1.408   1.820   8.139 -0.7166 -1.1755  0.5285
  131OSM   H16G14162   1.566   1.779   8.089 -0.1643  0.4645  0.5410
  131OSM   C17F14163   1.520   1.738   8.297  0.4445  0.1000 -0.4991
  131OSM   H17F14164   1.583   1.651   8.325  0.8931  0.2675 -0.9598
  131OSM   H17G14165   1.430   1.746   8.362  1.2377  0.5237  0.5820
  131OSM   C18F14166   1.606   1.864   8.320 -0.0410 -0.5950 -1.1545
  131OSM   H18F14167   1.556   1.963   8.316 -1.4420 -1.1050  1.6024
  131OSM   H18G14168   1.687   1.866   8.244 -0.6138 -0.2997 -1.7718
  131OSM   H18H14169   1.649   1.863   8.423  0.3805 -0.7358 -1.3291
  132OSM      N14170   3.763   5.555   5.861  0.1862 -0.6150  0.3321
  132OSM    C1514171   3.809   5.700   5.851 -0.1952  0.1447 -0.5161
  132OSM   H15A14172   3.811   5.754   5.944  3.0662 -0.3083 -0.2105
  132OSM   H15B14173   3.741   5.754   5.786 -1.8472 -2.7786 -1.3953
  132OSM   H15C14174   3.911   5.706   5.817  0.7878  2.4854  2.4234
  132OSM    C1414175   3.620   5.549   5.900 -0.4828 -0.1578  0.1234
  132OSM   H14A14176   3.605   5.607   5.990  1.0271 -0.2308  0.4568
  132OSM   H14B14177   3.582   5.451   5.925  0.7576 -0.5665  0.4782
  132OSM   H14C14178   3.554   5.584   5.822  1.1874  1.8998 -0.4486
  132OSM    C1314179   3.779   5.504   5.723 -0.0203 -0.0965 -0.0073
  132OSM   H13A14180   3.717   5.419   5.700  1.3783 -1.2658  0.4015
  132OSM   H13B14181   3.881   5.480   5.698  0.0393  0.7409 -0.5900
  132OSM   H13C14182   3.748   5.581   5.654  0.1660  1.1938  1.2911
  132OSM    C1214183   3.850   5.484   5.964  0.0982 -0.6495  0.1458
  132OSM   H12A14184   3.829   5.522   6.063  0.9871 -0.1265  0.1379
  132OSM   H12B14185   3.950   5.515   5.939 -0.3907  0.7301 -0.1463
  132OSM    C1114186   3.849   5.332   5.960  0.3430  0.5887  0.3285
  132OSM   H11A14187   3.927   5.297   6.031  0.7667  1.7757  0.4603
  132OSM   H11B14188   3.867   5.295   5.857  1.4047 -0.2897  0.8094
  132OSM      P14189   3.675   5.280   6.147 -0.2000 -0.5190  0.1168
  132OSM    O1314190   3.688   5.413   6.198 -0.4589 -0.1457  0.3466
  132OSM    O1414191   3.543   5.218   6.159  0.1508 -0.3052 -0.0797
  132OSM    O1114192   3.775   5.183   6.224 -0.5425 -0.0845  0.2236
  132OSM    O1214193   3.722   5.280   5.998 -0.1618  0.5097  0.1844
  132OSM    C1S14194   3.847   5.228   6.336  0.6628  0.0228 -0.6792
  132OSM    H1S14195   3.865   5.338   6.345 -2.1244  0.5264 -0.3513
  132OSM    H1T14196   3.948   5.182   6.339  1.3327  1.4670  0.4853
  132OSM     NF14197   3.846   5.238   6.590  0.0496  0.2245 -0.0968
  132OSM    HNF14198   3.915   5.174   6.622 -0.3676 -0.2285 -0.0975
  132OSM    C2S14199   3.780   5.193   6.474  0.4214  0.3589  0.1548
  132OSM    H2S14200   3.675   5.230   6.475 -0.5079 -2.0547  1.9959
  132OSM    C3S14201   3.764   5.040   6.480 -0.4988 -0.6696  0.0128
  132OSM    H3S14202   3.867   4.997   6.473 -0.3000 -0.0165 -1.3993
  132OSM     O314203   3.689   4.983   6.371 -0.6863  0.0730 -0.5338
  132OSM    HO314204   3.686   5.065   6.321  0.9806 -0.5906 -1.8378
  132OSM    C4S14205   3.715   5.001   6.614  0.3456  0.6102  0.2583
  132OSM    H4S14206   3.612   5.035   6.630 -0.2757 -0.1927 -1.8203
  132OSM    C5S14207   3.775   4.940   6.718  0.6755 -0.4928 -0.0701
  132OSM    H5S14208   3.877   4.904   6.700  0.5196 -0.5672 -0.8494
  132OSM    C6S14209   3.708   4.907   6.843  0.4259 -0.3951  0.5150
  132OSM    H6S14210   3.716   4.797   6.855 -1.3559 -0.5382  0.6151
  132OSM    H6T14211   3.600   4.927   6.823  0.5214 -1.6357 -1.6424
  132OSM    C7S14212   3.768   4.961   6.977 -0.3033 -0.8878  0.1131
  132OSM    H7S14213   3.776   5.071   6.982 -0.1480 -0.9553  3.0979
  132OSM    H7T14214   3.869   4.917   6.990 -0.4536 -0.7306  2.2413
  132OSM    C8S14215   3.696   4.914   7.101  0.5464 -0.1970  0.0271
  132OSM    H8S14216   3.690   4.804   7.088  2.5089 -0.2361 -1.0020
  132OSM    H8T14217   3.593   4.957   7.105 -0.3929 -2.3965  0.8725
  132OSM    C9S14218   3.760   4.950   7.232  0.3241 -0.7232 -0.8824
  132OSM    H9S14219   3.771   5.061   7.233 -2.6762 -0.3629 -0.0226
  132OSM    H9T14220   3.862   4.905   7.231  0.5462 -0.3392  0.8870
  132OSM   C10S14221   3.682   4.911   7.359 -0.4818  0.0308 -0.5403
  132OSM   H10S14222   3.668   4.800   7.357  2.0741 -0.3626 -2.6079
  132OSM   H10T14223   3.576   4.934   7.338 -1.0563 -0.9831  1.0103
  132OSM   C11S14224   3.744   4.964   7.490  0.0398 -0.4189 -0.4048
  132OSM   H11S14225   3.675   4.943   7.575 -2.0002  2.2784 -1.2362
  132OSM   H11T14226   3.759   5.074   7.476  0.7015 -0.5558 -0.8345
  132OSM   C12S14227   3.884   4.906   7.518 -0.0630 -0.1871  0.8269
  132OSM   H12S14228   3.950   4.957   7.445  0.8707 -0.9942  1.0860
  132OSM   H12T14229   3.890   4.803   7.477  1.9408  1.0470 -2.2660
  132OSM   C13S14230   3.938   4.918   7.663 -0.7286  0.8042 -0.2160
  132OSM   H13S14231   3.946   5.025   7.693 -1.2864  0.8706 -0.2899
  132OSM   H13T14232   4.043   4.885   7.652 -0.2846  2.0876 -0.0270
  132OSM   C14S14233   3.854   4.838   7.763  0.8155  0.0696 -0.4803
  132OSM   H14S14234   3.875   4.732   7.734 -0.1797  0.2467 -1.9995
  132OSM   H14T14235   3.749   4.871   7.748  0.5615  0.7177  2.2722
  132OSM   C15S14236   3.878   4.842   7.920  0.4750  0.3280  0.8325
  132OSM   H15S14237   3.804   4.785   7.980  0.0797  0.7272  0.7209
  132OSM   H15T14238   3.865   4.949   7.945  1.5347  0.8807 -0.8154
  132OSM   C16S14239   4.019   4.794   7.963 -0.1299 -0.4317  0.1926
  132OSM   H16S14240   4.101   4.839   7.904  0.8303  0.3220  2.0244
  132OSM   H16T14241   4.023   4.683   7.950  1.6620 -0.7919  2.8063
  132OSM   C17S14242   4.045   4.812   8.112 -0.0032 -0.9479  0.5021
  132OSM   H17S14243   4.036   4.922   8.122  0.4304 -0.6145 -2.1191
  132OSM   H17T14244   4.151   4.792   8.135  0.2509  0.4797  0.6778
  132OSM   C18S14245   3.945   4.747   8.202 -0.8081  0.4224 -0.1668
  132OSM   H18S14246   3.844   4.794   8.206 -0.5418  0.9288  0.7523
  132OSM   H18T14247   3.973   4.746   8.309  0.1887 -0.4508 -0.4222
  132OSM   H18U14248   3.936   4.640   8.172  0.1350  0.1789  0.3803
  132OSM    C1F14249   3.830   5.360   6.633  0.1059  0.0556 -0.6584
  132OSM     OF14250   3.755   5.443   6.579 -0.2144  0.2395 -0.4464
  132OSM    C2F14251   3.910   5.402   6.753  0.1647  0.8827 -0.1017
  132OSM    H2F14252   3.895   5.509   6.779 -0.7402  0.6515  0.3723
  132OSM    H2G14253   4.020   5.393   6.738  0.3269  3.6463 -1.2050
  132OSM    C3F14254   3.861   5.324   6.884  0.0567  0.5826  0.0658
  132OSM    H3F14255   3.903   5.222   6.884 -1.1438  0.0671  0.7436
  132OSM    H3G14256   3.750   5.320   6.876 -0.2538  0.6084  3.2198
  132OSM    C4F14257   3.901   5.408   7.001 -0.1480  0.5837 -0.6225
  132OSM    H4F14258   3.854   5.509   7.003 -0.0570  0.6142  0.8947
  132OSM    H4G14259   4.012   5.405   7.009 -0.1626 -1.8756 -0.5708
  132OSM    C5F14260   3.860   5.332   7.126  0.1080  0.1867 -0.0901
  132OSM    H5F14261   3.911   5.235   7.109  0.4489 -0.1156  2.2877
  132OSM    H5G14262   3.752   5.313   7.147  0.5588  1.2016  4.2463
  132OSM    C6F14263   3.921   5.394   7.255 -0.6580 -0.1873  0.6415
  132OSM    H6F14264   3.871   5.493   7.260 -1.9843 -0.8284  0.5791
  132OSM    H6G14265   4.029   5.414   7.239 -0.7423  1.1528  1.5599
  132OSM    C7F14266   3.900   5.318   7.385 -0.0259  0.3242  0.5334
  132OSM    H7F14267   3.977   5.238   7.396  0.9944  1.6565  5.1230
  132OSM    H7G14268   3.799   5.271   7.378 -0.3998  1.0913  0.7677
  132OSM    C8F14269   3.922   5.406   7.511  0.2068 -0.2081  0.6187
  132OSM    H8F14270   3.853   5.492   7.494  1.1106  0.0769 -2.0582
  132OSM    H8G14271   4.027   5.435   7.533  0.1766  0.4247 -0.0074
  132OSM    C9F14272   3.875   5.315   7.630  0.7950 -0.0711  0.1394
  132OSM    H9F14273   3.771   5.281   7.626  0.0440  1.9887  1.2538
  132OSM   C10F14274   3.954   5.286   7.736  0.5400 -0.2170  0.4862
  132OSM   H10F14275   3.911   5.212   7.806  0.9488  1.0980  2.1868
  132OSM   C11F14276   4.103   5.319   7.761 -0.8352  0.4911  0.1953
  132OSM   H11F14277   4.129   5.420   7.800  1.9186  0.7880 -2.1003
  132OSM   H11G14278   4.143   5.322   7.657 -0.5705 -1.6861  0.1916
  132OSM   C12F14279   4.184   5.204   7.832  0.0080  0.2467  0.3803
  132OSM   H12F14280   4.291   5.231   7.841  0.2854 -0.1222 -1.4825
  132OSM   H12G14281   4.167   5.112   7.773  1.7483 -0.4163  0.8604
  132OSM   C13F14282   4.142   5.174   7.973 -0.8158 -0.0915 -0.1549
  132OSM   H13F14283   4.112   5.067   7.972  1.1465 -0.6668 -1.1669
  132OSM   H13G14284   4.056   5.241   7.997 -0.1376 -0.3254  3.4756
  132OSM   C14F14285   4.254   5.207   8.072  0.3659  0.4861 -0.2962
  132OSM   H14F14286   4.268   5.316   8.057  0.1416  0.4599 -0.6991
  132OSM   H14G14287   4.349   5.155   8.044  0.0978 -0.0474 -0.2214
  132OSM   C15F14288   4.207   5.171   8.222 -0.1087 -0.3393 -0.0701
  132OSM   H15F14289   4.196   5.064   8.252  2.0581  0.2104  3.0877
  132OSM   H15G14290   4.103   5.208   8.234 -0.6851 -1.3429 -1.5862
  132OSM   C16F14291   4.290   5.245   8.322  0.1562 -0.3999  0.0825
  132OSM   H16F14292   4.293   5.352   8.292 -1.8587  0.3642  2.3091
  132OSM   H16G14293   4.393   5.203   8.332  0.4483  0.5687  1.2980
  132OSM   C17F14294   4.235   5.209   8.465 -0.5035  0.1488  0.2625
  132OSM   H17F14295   4.213   5.101   8.479  2.7762 -0.7716 -0.7083
  132OSM   H17G14296   4.140   5.265   8.473 -1.2124 -0.8490 -0.7914
  132OSM   C18F14297   4.335   5.233   8.575  0.0157  0.2261 -0.2674
  132OSM   H18F14298   4.308   5.209   8.680  2.0054  0.6860  0.4083
  132OSM   H18G14299   4.352   5.343   8.578 -2.9749  0.7466  1.3360
  132OSM   H18H14300   4.433   5.188   8.550  0.0112 -1.5152  2.4519
  133SAPE     N14301   4.195   4.180  10.760 -0.1421  0.0189  0.2906
  133SAPE   HN114302   4.172   4.100  10.698 -0.6813  0.5996 -0.2684
  133SAPE   HN214303   4.143   4.190  10.850 -0.6223  1.2685 -0.0900
  133SAPE   HN314304   4.190   4.272  10.710 -0.7365 -0.4878 -0.6067
  133SAPE   C1214305   4.334   4.147  10.798 -0.8773 -0.4996 -0.1964
  133SAPE  H12A14306   4.337   4.078  10.884  1.8630 -1.2798 -0.8235
  133SAPE  H12B14307   4.400   4.234  10.817 -0.1988 -1.2854  1.1863
  133SAPE   C1114308   4.388   4.076  10.673  0.5467  0.0861 -0.2673
  133SAPE  H11A14309   4.475   4.018  10.710  0.1628 -0.4276 -0.1734
  133SAPE  H11B14310   4.433   4.148  10.600 -1.1768  2.5531  0.9400
  133SAPE     P14311   4.334   3.866  10.527  0.0709  0.1538  0.1129
  133SAPE   O1314312   4.470   3.883  10.471 -0.2652 -0.3693  0.1305
  133SAPE   O1414313   4.313   3.742  10.606  0.0316  0.1320  0.0868
  133SAPE   O1214314   4.286   3.992  10.608  0.0268 -0.1767  0.5296
  133SAPE   O1114315   4.239   3.861  10.407 -0.2978 -0.1719  0.0661
  133SAPE    C114316   4.094   3.866  10.420 -0.5341  0.1685  0.7626
  133SAPE    HA14317   4.063   3.773  10.471  0.7035 -0.8367 -0.2398
  133SAPE    HB14318   4.059   3.959  10.470  1.6054  0.8371  1.0847
  133SAPE    C214319   4.020   3.837  10.283  0.6332  0.1325  0.6073
  133SAPE    HS14320   3.910   3.823  10.289  0.2299  1.8407 -1.4265
  133SAPE   O2114321   4.090   3.726  10.221 -0.2597  0.0823  0.1933
  133SAPE   C2114322   4.030   3.610  10.213 -0.1120  0.0851 -0.0030
  133SAPE   O2214323   3.908   3.590  10.231  0.0501 -0.0789 -0.4008
  133SAPE   C2214324   4.124   3.510  10.155 -0.0072 -0.1654 -0.0159
  133SAPE   H2R14325   4.105   3.500  10.046  1.1529 -0.9772 -0.1640
  133SAPE   H2S14326   4.227   3.544  10.178 -0.5529  0.3109  1.8905
  133SAPE    C314327   4.022   3.965  10.185  0.2332 -0.2529  0.2536
  133SAPE    HX14328   4.128   3.974  10.153 -0.0439 -2.2364 -1.4221
  133SAPE    HY14329   3.990   4.058  10.236  2.3503  0.7857 -0.1808
  133SAPE   O3114330   3.940   3.929  10.071  0.4074  0.2422 -0.1062
  133SAPE   C3114331   3.912   4.019   9.974  0.5656 -0.2680 -0.2266
  133SAPE   O3214332   3.952   4.137   9.981 -0.2670  0.5134  0.3624
  133SAPE   C3214333   3.841   3.942   9.861 -0.2053 -0.3675  0.2589
  133SAPE   H2X14334   3.788   4.018   9.799  1.4981 -0.2503 -1.1070
  133SAPE   H2Y14335   3.776   3.865   9.908 -1.3549  1.3247  1.6017
  133SAPE   C2314336   4.124   3.373  10.217  0.1308  0.4040  0.4525
  133SAPE   H3R14337   4.023   3.331  10.199 -0.6629  1.7783  1.5045
  133SAPE   H3S14338   4.129   3.375  10.328  0.0676 -2.6374  0.6016
  133SAPE   C2414339   4.229   3.270  10.163 -0.8898 -0.5916  0.5702
  133SAPE   H4R14340   4.214   3.265  10.053  1.8401 -0.9125  0.1396
  133SAPE   H4S14341   4.216   3.168  10.206 -0.6525 -0.3847  1.1365
  133SAPE   C2514342   4.374   3.316  10.191 -0.5778 -0.2650 -0.2364
  133SAPE   H5R14343   4.411   3.294  10.292 -5.1732 -0.1204  1.7436
  133SAPE   C2614344   4.454   3.372  10.099 -0.2569  1.1089 -0.5317
  133SAPE   H6R14345   4.555   3.406  10.127  0.0556 -0.1711 -0.0482
  133SAPE   C2714346   4.426   3.375   9.952  0.5860  0.4194  0.1569
  133SAPE   H7R14347   4.484   3.461   9.910  0.1333  1.2306  1.1547
  133SAPE   H7S14348   4.321   3.407   9.932 -0.2222 -1.7757  0.6648
  133SAPE   C2814349   4.463   3.243   9.885 -0.7648 -0.0870  0.4848
  133SAPE   H8R14350   4.549   3.188   9.927 -0.5307  0.3735  0.6103
  133SAPE   C2914351   4.406   3.188   9.776 -0.2282 -0.0434 -0.3266
  133SAPE   H9R14352   4.438   3.091   9.735 -2.3045 -0.3500 -1.3599
  133SAPE  C21014353   4.287   3.247   9.700 -0.2673  0.4154  0.4740
  133SAPE  H10R14354   4.257   3.346   9.739  0.9966  1.9829 -2.2708
  133SAPE  H10S14355   4.204   3.174   9.707  0.4562 -0.6819 -1.4468
  133SAPE  C21114356   4.328   3.276   9.559  0.4471 -0.0240  0.0794
  133SAPE  H11R14357   4.374   3.185   9.517  1.3462 -0.1676  1.3290
  133SAPE  C21214358   4.306   3.387   9.484  0.4699  0.0884  0.1273
  133SAPE  H12R14359   4.337   3.394   9.378 -2.3517  1.2682 -0.7157
  133SAPE  C21314360   4.229   3.514   9.534  0.0557  0.2298 -0.3786
  133SAPE  H13R14361   4.239   3.519   9.644 -0.8407 -1.8172 -0.1545
  133SAPE  H13S14362   4.121   3.494   9.517  0.1205 -1.5186  0.9866
  133SAPE  C21414363   4.277   3.639   9.464 -0.2498 -0.2692  0.0128
  133SAPE  H14R14364   4.274   3.635   9.354  0.9526  0.0142 -0.0453
  133SAPE  C21514365   4.312   3.754   9.523  0.2714  0.2369  0.0327
  133SAPE  H15R14366   4.348   3.840   9.465 -0.5833  0.2197 -0.5531
  133SAPE  C21614367   4.315   3.786   9.672 -0.0125 -0.8413  0.2832
  133SAPE  H16R14368   4.251   3.718   9.733  0.0260 -3.4208 -2.3463
  133SAPE  H16S14369   4.260   3.882   9.683 -0.7458 -1.4571  2.6622
  133SAPE  C21714370   4.452   3.787   9.742  0.2323 -0.4226 -0.1375
  133SAPE  H17R14371   4.492   3.887   9.711  0.2078 -0.6803 -1.0238
  133SAPE  H17S14372   4.529   3.710   9.720  1.6737  1.1119 -0.7183
  133SAPE  C21814373   4.424   3.786   9.896 -0.2834  0.3873 -0.0671
  133SAPE  H18R14374   4.379   3.688   9.923 -0.8609  0.1724 -1.6995
  133SAPE  H18S14375   4.350   3.867   9.915  0.5807  1.3108 -0.5116
  133SAPE  C21914376   4.544   3.803   9.984 -0.4180  0.6993 -0.8953
  133SAPE  H19R14377   4.584   3.906   9.974  0.0567  0.6286  0.1415
  133SAPE  H19S14378   4.630   3.734   9.970 -0.5525  0.0349  1.1646
  133SAPE  C22014379   4.505   3.800  10.134  0.2322  0.1651 -0.2768
  133SAPE  H20R14380   4.582   3.862  10.186  0.2336  0.4771 -0.6457
  133SAPE  H20S14381   4.504   3.697  10.176 -1.1785  0.2181 -0.1337
  133SAPE  H20T14382   4.405   3.847  10.146 -0.6351 -1.6962  0.1628
  133SAPE   C3314383   3.937   3.882   9.757  1.3144 -0.0016 -0.1977
  133SAPE   H3X14384   3.964   3.782   9.798  5.0687  1.1027  0.4235
  133SAPE   H3Y14385   4.032   3.939   9.756  0.6327  1.3674  2.5410
  133SAPE   C3414386   3.888   3.881   9.611  0.8935 -0.5097 -0.0005
  133SAPE   H4X14387   3.784   3.845   9.603  0.5427  0.9084 -3.5951
  133SAPE   H4Y14388   3.944   3.811   9.546 -1.0763 -1.9917 -0.1833
  133SAPE   C3514389   3.901   4.022   9.559  0.2264 -0.1951 -0.5875
  133SAPE   H5X14390   4.008   4.052   9.562  0.3076 -0.5174 -0.3027
  133SAPE   H5Y14391   3.853   4.092   9.630  0.6541  0.0936 -0.5805
  133SAPE   C3614392   3.857   4.049   9.414  0.4167 -0.1827 -0.4238
  133SAPE   H6X14393   3.894   4.149   9.381 -0.3649  0.5717  0.8738
  133SAPE   H6Y14394   3.748   4.032   9.404  0.4240 -0.7709  0.4216
  133SAPE   C3714395   3.918   3.958   9.313 -0.3735  0.6877 -0.5834
  133SAPE   H7X14396   3.855   3.867   9.320  1.3548 -0.4197  3.6328
  133SAPE   H7Y14397   4.020   3.927   9.344  0.0989  1.6215 -1.1464
  133SAPE   C3814398   3.904   4.008   9.171  0.4872  1.0734 -1.1556
  133SAPE   H8X14399   3.947   4.111   9.167  3.0746  0.1508  0.4881
  133SAPE   H8Y14400   3.795   4.013   9.151  0.3372  0.2367 -0.5882
  133SAPE   C3914401   3.974   3.918   9.063  0.7668 -0.0395 -0.6073
  133SAPE   H9X14402   3.944   3.815   9.093  1.4342 -0.2818 -0.7565
  133SAPE   H9Y14403   4.083   3.927   9.082  0.2461 -1.1823  4.5916
  133SAPE  C31014404   3.939   3.964   8.926 -0.3546 -0.3841 -0.1331
  133SAPE  H10X14405   4.027   3.930   8.867 -1.0015 -0.5875 -0.9948
  133SAPE  H10Y14406   3.934   4.075   8.916  1.2277 -0.0470  2.0545
  133SAPE  C31114407   3.802   3.908   8.875 -0.3879  0.2422 -0.0109
  133SAPE  H11X14408   3.734   3.996   8.881 -1.4733 -0.5016 -0.9073
  133SAPE  H11Y14409   3.774   3.828   8.947  0.1903 -0.5456 -0.6404
  133SAPE  C31214410   3.796   3.865   8.726 -0.6801 -0.3608  0.3050
  133SAPE  H12X14411   3.853   3.945   8.673 -2.2144  1.0292  0.6715
  133SAPE  H12Y14412   3.689   3.882   8.701 -0.7114 -0.9402  0.0232
  133SAPE  C31314413   3.849   3.726   8.702 -0.5227  1.1136  0.0947
  133SAPE  H13X14414   3.834   3.710   8.593 -2.6387 -0.6021  0.5553
  133SAPE  H13Y14415   3.787   3.663   8.769  1.4581 -2.4601 -1.1469
  133SAPE  C31414416   3.995   3.686   8.743  0.0988  0.2092 -0.3842
  133SAPE  H14X14417   4.018   3.731   8.842  0.0662  2.3486 -1.2979
  133SAPE  H14Y14418   4.056   3.743   8.669  0.5374 -1.6985 -1.5603
  133SAPE  C31514419   4.035   3.538   8.734  0.3423  0.3291 -0.0186
  133SAPE  H15X14420   4.001   3.484   8.825 -1.5493 -0.9481 -1.4158
  133SAPE  H15Y14421   4.144   3.518   8.721  0.1138  0.2119 -1.9679
  133SAPE  C31614422   3.962   3.466   8.625  0.5302  0.3483 -0.0813
  133SAPE  H16X14423   3.985   3.499   8.521 -0.5468 -1.4431 -0.9374
  133SAPE  H16Y14424   3.853   3.481   8.639  0.5560  2.6610 -1.7248
  133SAPE  C31714425   3.994   3.318   8.617 -0.3158  0.5898 -0.3560
  133SAPE  H17X14426   3.990   3.278   8.720 -1.1718 -0.4999 -0.8037
  133SAPE  H17Y14427   4.101   3.328   8.587 -0.8460  1.5682 -2.0249
  133SAPE  C31814428   3.920   3.224   8.516  0.0448 -1.0618 -0.4094
  133SAPE  H18X14429   3.811   3.227   8.537 -0.3006 -0.7604 -2.1077
  133SAPE  H18Y14430   3.950   3.119   8.536  1.3452 -0.7258 -0.5232
  133SAPE  H18Z14431   3.946   3.239   8.409  0.8268  0.0893 -0.0826
  134SAPE     N14432   0.316   5.054  10.315  0.4844  0.8460  0.0851
  134SAPE   HN114433   0.340   5.111  10.232 -1.3853  0.4423 -0.7606
  134SAPE   HN214434   0.371   4.965  10.307 -1.2030 -0.3472  1.1655
  134SAPE   HN314435   0.216   5.028  10.316  0.7306 -0.2306 -0.7536
  134SAPE   C1214436   0.353   5.126  10.440  0.1681 -0.2962 -0.7489
  134SAPE  H12A14437   0.361   5.053  10.523 -1.0973  0.7078  0.3110
  134SAPE  H12B14438   0.287   5.214  10.457 -0.0839 -0.5763 -0.2664
  134SAPE   C1114439   0.483   5.191  10.430 -0.5472 -0.3972 -0.1732
  134SAPE  H11A14440   0.507   5.237  10.528 -0.0051  0.4392 -0.6803
  134SAPE  H11B14441   0.480   5.270  10.352 -3.0345 -0.0523  0.1941
  134SAPE     P14442   0.695   5.049  10.494  0.3218 -0.2373  0.0542
  134SAPE   O1314443   0.779   5.172  10.515  0.4385 -0.5120  0.1764
  134SAPE   O1414444   0.646   4.986  10.617 -0.2815 -0.4230  0.4324
  134SAPE   O1214445   0.575   5.088  10.391 -0.3584 -0.2428 -0.0528
  134SAPE   O1114446   0.770   4.943  10.410 -0.6128  0.2929 -0.0955
  134SAPE    C114447   0.700   4.865  10.314  0.0177 -0.5381 -0.0999
  134SAPE    HA14448   0.761   4.772  10.308 -0.5849 -0.8781 -1.3456
  134SAPE    HB14449   0.599   4.828  10.341  0.4086 -0.8689  0.9581
  134SAPE    C214450   0.714   4.942  10.179  0.3052  0.2782  0.5496
  134SAPE    HS14451   0.630   5.015  10.171 -1.4329 -1.7530 -1.0145
  134SAPE   O2114452   0.693   4.847  10.069 -0.1645  0.5386 -0.4497
  134SAPE   C2114453   0.580   4.787  10.053 -0.0281  0.1540  0.2855
  134SAPE   O2214454   0.482   4.807  10.126 -0.3621  0.0918  0.1787
  134SAPE   C2214455   0.588   4.698   9.937  0.0784  0.5282  0.3379
  134SAPE   H2R14456   0.644   4.757   9.861  0.4509  0.3908  0.5039
  134SAPE   H2S14457   0.656   4.611   9.949 -0.3304  0.2541  0.7227
  134SAPE    C314458   0.853   5.017  10.151  0.1507 -0.2178  0.5010
  134SAPE    HX14459   0.924   4.938  10.117 -1.2468 -2.5259  2.5969
  134SAPE    HY14460   0.887   5.054  10.250 -1.0797 -0.6743  1.1242
  134SAPE   O3114461   0.833   5.123  10.053 -0.4591 -0.3350  0.2122
  134SAPE   C3114462   0.918   5.224  10.071 -0.6246  0.2699  0.4102
  134SAPE   O3214463   1.007   5.231  10.154  0.7407 -0.0849  0.5917
  134SAPE   C3214464   0.898   5.337   9.963  0.0167  0.2289  0.1475
  134SAPE   H2X14465   0.833   5.416  10.007 -0.1466 -1.0692  2.3660
  134SAPE   H2Y14466   0.835   5.291   9.884  0.6129 -1.6966  0.7435
  134SAPE   C2314467   0.444   4.668   9.880  0.4360  0.4741 -0.2098
  134SAPE   H3R14468   0.395   4.765   9.859  0.6993  0.7338  0.3423
  134SAPE   H3S14469   0.373   4.615   9.947 -0.1649  1.9816  0.3929
  134SAPE   C2414470   0.458   4.597   9.743 -0.2436  0.4064 -0.6294
  134SAPE   H4R14471   0.525   4.510   9.757 -0.8567  0.2237  1.4412
  134SAPE   H4S14472   0.503   4.673   9.675 -1.1346  2.4469  0.9609
  134SAPE   C2514473   0.321   4.559   9.691 -0.1361 -0.3215  0.3551
  134SAPE   H5R14474   0.246   4.626   9.737 -0.3434 -0.7690  0.6811
  134SAPE   C2614475   0.295   4.474   9.593 -0.9517  0.4308 -0.1175
  134SAPE   H6R14476   0.190   4.455   9.565 -0.5726 -0.6963 -0.8758
  134SAPE   C2714477   0.413   4.409   9.519  0.0442  0.0634 -0.1650
  134SAPE   H7R14478   0.381   4.315   9.469  0.7317  0.9812 -2.4760
  134SAPE   H7S14479   0.476   4.354   9.592 -0.1262  2.5061  1.9400
  134SAPE   C2814480   0.485   4.487   9.409  0.0098 -0.2724  0.1599
  134SAPE   H8R14481   0.464   4.595   9.403 -1.5599 -0.5723 -0.2954
  134SAPE   C2914482   0.571   4.439   9.321  0.6005 -0.0903 -0.2706
  134SAPE   H9R14483   0.617   4.510   9.252 -0.0503  0.3037 -0.3122
  134SAPE  C21014484   0.626   4.298   9.308  0.1664  0.1258 -0.4959
  134SAPE  H10R14485   0.548   4.225   9.277  1.6349 -1.1549 -1.3173
  134SAPE  H10S14486   0.657   4.256   9.406 -0.7180  1.8675  0.5801
  134SAPE  C21114487   0.754   4.284   9.229  0.6915 -0.0383  0.1864
  134SAPE  H11R14488   0.844   4.261   9.287 -0.3002 -0.9363  1.4280
  134SAPE  C21214489   0.767   4.306   9.095  0.3275  0.7787  0.1882
  134SAPE  H12R14490   0.864   4.293   9.046 -0.2028  0.5402 -0.8101
  134SAPE  C21314491   0.653   4.342   8.994  0.1103  0.1460  0.5229
  134SAPE  H13R14492   0.557   4.319   9.044 -0.3650 -0.1505 -0.4963
  134SAPE  H13S14493   0.659   4.275   8.905 -0.1986 -1.1003  1.4123
  134SAPE  C21414494   0.641   4.491   8.963 -0.3272 -0.0529 -0.1543
  134SAPE  H14R14495   0.736   4.546   8.969  0.3526 -1.3054  1.3398
  134SAPE  C21514496   0.534   4.553   8.920 -0.0291  0.3922  0.4144
  134SAPE  H15R14497   0.554   4.659   8.897  0.6809  0.2284  0.2525
  134SAPE  C21614498   0.393   4.492   8.904 -0.9889 -0.0849  0.3526
  134SAPE  H16R14499   0.327   4.538   8.981  1.6318 -0.5023  3.0505
  134SAPE  H16S14500   0.396   4.381   8.911 -1.9601 -0.0838  0.9552
  134SAPE  C21714501   0.342   4.525   8.760  0.1377 -0.1227  0.0085
  134SAPE  H17R14502   0.366   4.629   8.730  1.2596 -0.7051 -1.2096
  134SAPE  H17S14503   0.231   4.528   8.756  0.0056 -0.1534  2.2724
  134SAPE  C21814504   0.396   4.437   8.654  0.3141 -0.3954 -0.1287
  134SAPE  H18R14505   0.386   4.332   8.689  1.4912  0.0621  1.7717
  134SAPE  H18S14506   0.505   4.460   8.646  0.2951  1.3889  3.0820
  134SAPE  C21914507   0.325   4.462   8.526  0.5915 -0.3836 -0.0830
  134SAPE  H19R14508   0.333   4.569   8.498 -0.7965  0.0769  1.1593
  134SAPE  H19S14509   0.216   4.450   8.547  0.7746 -1.6813  0.2159
  134SAPE  C22014510   0.367   4.373   8.415 -0.0733 -0.0256 -0.5270
  134SAPE  H20R14511   0.364   4.265   8.442  1.2297 -0.2066 -1.0344
  134SAPE  H20S14512   0.467   4.406   8.380 -1.0122  2.3804 -1.1664
  134SAPE  H20T14513   0.299   4.387   8.328 -1.1855 -2.8806 -0.2132
  134SAPE   C3314514   1.021   5.408   9.908  0.3667  0.6463 -0.1816
  134SAPE   H3X14515   1.082   5.452   9.988  0.9351 -1.0243  0.3525
  134SAPE   H3Y14516   0.998   5.501   9.852  0.7656  1.2562  0.6588
  134SAPE   C3414517   1.108   5.320   9.828  0.3713 -0.0745 -0.4715
  134SAPE   H4X14518   1.124   5.230   9.890  2.0576 -0.1733 -0.9906
  134SAPE   H4Y14519   1.200   5.381   9.813  1.8744 -1.5930  1.8876
  134SAPE   C3514520   1.072   5.309   9.679 -0.0977  0.8632 -0.3065
  134SAPE   H5X14521   1.007   5.394   9.650 -1.6492 -0.5518 -1.1829
  134SAPE   H5Y14522   1.002   5.223   9.669 -0.8767  1.4190  0.2545
  134SAPE   C3614523   1.192   5.279   9.585 -0.1959  0.1153  0.2036
  134SAPE   H6X14524   1.235   5.178   9.604  2.2195  1.4640  2.5959
  134SAPE   H6Y14525   1.268   5.359   9.597 -0.2655  0.3407 -0.7800
  134SAPE   C3714526   1.132   5.282   9.437 -0.3752  0.8397 -0.3178
  134SAPE   H7X14527   1.099   5.387   9.423 -0.3753  0.4726 -3.8630
  134SAPE   H7Y14528   1.054   5.204   9.423  2.4480 -1.6769 -3.8620
  134SAPE   C3814529   1.240   5.253   9.338  0.1574 -0.0122 -0.0066
  134SAPE   H8X14530   1.283   5.152   9.353  1.5702  0.4267 -0.8542
  134SAPE   H8Y14531   1.326   5.323   9.347 -0.8882  1.2881  0.1305
  134SAPE   C3914532   1.197   5.275   9.192  0.0186 -0.1172  0.6390
  134SAPE   H9X14533   1.173   5.383   9.180  0.7628  0.1531  1.4990
  134SAPE   H9Y14534   1.104   5.215   9.175  1.3782 -1.7432 -1.6487
  134SAPE  C31014535   1.299   5.227   9.085  1.1772  0.5212 -0.2967
  134SAPE  H10X14536   1.319   5.118   9.086  0.0924  0.2877 -1.1748
  134SAPE  H10Y14537   1.398   5.274   9.102  0.6550  1.5290 -0.0013
  134SAPE  C31114538   1.245   5.258   8.937 -0.3896 -0.1051 -0.7315
  134SAPE  H11X14539   1.220   5.366   8.928  0.8009  0.4415  1.6690
  134SAPE  H11Y14540   1.152   5.203   8.910 -1.5484  2.1009 -1.4388
  134SAPE  C31214541   1.364   5.218   8.845  0.0802 -0.2025 -0.3220
  134SAPE  H12X14542   1.362   5.112   8.814 -1.2026  0.4325 -2.5885
  134SAPE  H12Y14543   1.453   5.247   8.906 -1.9157  0.1639  2.6320
  134SAPE  C31314544   1.366   5.292   8.708 -0.3201 -0.5844 -0.7287
  134SAPE  H13X14545   1.266   5.262   8.671 -1.5235 -0.2816  2.0228
  134SAPE  H13Y14546   1.439   5.254   8.634  0.7153 -1.5575  0.7386
  134SAPE  C31414547   1.377   5.447   8.712 -0.0248  0.8217  0.2504
  134SAPE  H14X14548   1.478   5.472   8.750 -0.0659 -1.7372  2.3724
  134SAPE  H14Y14549   1.299   5.491   8.777 -0.1516  1.7458 -0.5042
  134SAPE  C31514550   1.379   5.510   8.574 -0.2601  0.0137  0.2041
  134SAPE  H15X14551   1.325   5.451   8.496  3.8272  0.6304 -3.5468
  134SAPE  H15Y14552   1.485   5.492   8.545  0.3509  2.0757  1.0308
  134SAPE  C31614553   1.355   5.661   8.579 -0.1773 -0.0699  0.4391
  134SAPE  H16X14554   1.431   5.701   8.649 -0.6713  2.1931 -0.2505
  134SAPE  H16Y14555   1.251   5.678   8.612  0.2694  1.0241  1.3727
  134SAPE  C31714556   1.383   5.730   8.446 -0.1523 -0.5847  0.9878
  134SAPE  H17X14557   1.484   5.705   8.408 -0.0960  0.2498  0.5570
  134SAPE  H17Y14558   1.387   5.841   8.457 -0.1671  0.0170 -3.2250
  134SAPE  C31814559   1.287   5.701   8.335  0.2228  0.7417  0.1654
  134SAPE  H18X14560   1.303   5.754   8.239 -3.2068  0.0375 -0.9406
  134SAPE  H18Y14561   1.184   5.723   8.369  0.1758  1.6593 -0.5227
  134SAPE  H18Z14562   1.291   5.591   8.320  1.6699  0.9910 -1.5323
  135SAPE     N14563   0.336   3.441  10.665 -0.3006 -0.3221  0.3351
  135SAPE   HN114564   0.363   3.485  10.755 -1.8683  0.8699  0.2780
  135SAPE   HN214565   0.415   3.449  10.598 -0.3140 -1.2954  0.1859
  135SAPE   HN314566   0.257   3.497  10.628 -0.8459 -0.1042  1.7472
  135SAPE   C1214567   0.269   3.318  10.695 -0.5787 -0.1385 -0.4806
  135SAPE  H12A14568   0.169   3.341  10.738 -0.1652 -2.5255  1.9942
  135SAPE  H12B14569   0.314   3.273  10.786 -1.6428  0.2688  0.2724
  135SAPE   C1114570   0.255   3.226  10.575 -0.3437 -0.2826  0.5853
  135SAPE  H11A14571   0.359   3.217  10.535 -0.8201 -0.5130 -0.6389
  135SAPE  H11B14572   0.192   3.270  10.496 -0.9848 -3.2391 -0.7100
  135SAPE     P14573   0.054   3.054  10.601 -0.0626  0.2979  0.1423
  135SAPE   O1314574   0.034   2.932  10.684  0.2879 -0.1334 -0.0560
  135SAPE   O1414575  -0.023   3.174  10.634  0.2158 -0.1437 -0.5588
  135SAPE   O1214576   0.206   3.098  10.614 -0.2998  0.0665  0.0981
  135SAPE   O1114577   0.022   3.025  10.445  0.1191  0.3284  0.3044
  135SAPE    C114578   0.107   2.944  10.367  0.2892 -0.0291  0.1020
  135SAPE    HA14579   0.204   2.998  10.359 -0.1161  0.7601  0.4464
  135SAPE    HB14580   0.128   2.852  10.427  1.1639  0.5191  0.6610
  135SAPE    C214581   0.038   2.914  10.231 -0.0057  0.8005 -0.3845
  135SAPE    HS14582   0.102   2.833  10.190 -0.4455  0.1548  0.1869
  135SAPE   O2114583   0.037   3.030  10.141 -0.1180  0.1515 -0.1975
  135SAPE   C2114584   0.160   3.063  10.095  0.4109 -0.2983  0.1558
  135SAPE   O2214585   0.259   3.000  10.116 -0.6320  0.1011 -0.1632
  135SAPE   C2214586   0.154   3.185  10.004 -1.0509 -0.1185  0.0275
  135SAPE   H2R14587   0.073   3.245  10.051 -0.6317  0.5734 -0.1242
  135SAPE   H2S14588   0.255   3.229  10.014 -0.8775 -0.2255 -1.1580
  135SAPE    C314589  -0.109   2.855  10.249  0.3157  0.2906  0.4701
  135SAPE    HX14590  -0.168   2.921  10.317  0.2056  1.0892 -0.3851
  135SAPE    HY14591  -0.106   2.757  10.301  0.8143 -0.1218 -0.3256
  135SAPE   O3114592  -0.182   2.845  10.125 -0.1212 -0.0928  0.4949
  135SAPE   C3114593  -0.310   2.817  10.147  0.6048 -0.6546  0.2657
  135SAPE   O3214594  -0.358   2.790  10.257  0.3802  0.0128  0.8729
  135SAPE   C3214595  -0.380   2.782  10.013 -0.3554  0.0169 -0.2491
  135SAPE   H2X14596  -0.363   2.675   9.987 -0.3292  0.0417 -0.3322
  135SAPE   H2Y14597  -0.325   2.846   9.940 -0.2075 -0.5396 -0.6290
  135SAPE   C2314598   0.104   3.152   9.861  0.1238 -0.0247  0.2985
  135SAPE   H3R14599   0.077   3.252   9.821  0.4366  1.1727  2.8624
  135SAPE   H3S14600   0.006   3.100   9.862 -2.3491  4.2471  1.2079
  135SAPE   C2414601   0.200   3.097   9.758  0.0118 -0.4206 -0.7551
  135SAPE   H4R14602   0.241   2.999   9.793  1.2060  0.1739 -0.4408
  135SAPE   H4S14603   0.295   3.154   9.763 -0.1611 -0.1839 -0.0901
  135SAPE   C2514604   0.131   3.097   9.628 -0.0050  0.3746  0.8203
  135SAPE   H5R14605   0.022   3.111   9.633  0.0439  0.2685  2.7727
  135SAPE   C2614606   0.190   3.084   9.509 -0.1122  0.2093 -0.3329
  135SAPE   H6R14607   0.123   3.074   9.422 -0.5233  0.8714 -0.0961
  135SAPE   C2714608   0.336   3.074   9.468 -0.0493 -0.6312  0.5454
  135SAPE   H7R14609   0.402   3.116   9.546  0.8630  2.5712 -1.7373
  135SAPE   H7S14610   0.352   3.136   9.377 -0.5005 -2.6894 -1.0120
  135SAPE   C2814611   0.368   2.933   9.420  0.7349  0.6247  0.3756
  135SAPE   H8R14612   0.397   2.861   9.497 -1.7621 -0.9686 -0.0658
  135SAPE   C2914613   0.366   2.872   9.302  0.6792 -0.3194  0.5785
  135SAPE   H9R14614   0.397   2.767   9.288 -1.6987 -0.9303 -0.7076
  135SAPE  C21014615   0.317   2.943   9.183  0.2452  0.3255  0.9166
  135SAPE  H10R14616   0.240   3.020   9.206 -0.6992 -0.2876 -0.0924
  135SAPE  H10S14617   0.268   2.863   9.124  1.7735  1.1318 -1.6332
  135SAPE  C21114618   0.425   3.008   9.091 -0.5762  0.5197 -0.5882
  135SAPE  H11R14619   0.437   3.116   9.112  0.2453  0.7612 -2.1556
  135SAPE  C21214620   0.490   2.948   8.988  0.2652 -0.2321  0.1463
  135SAPE  H12R14621   0.576   3.000   8.942  1.3935 -2.0475  0.0997
  135SAPE  C21314622   0.485   2.800   8.952  0.3503  0.2959  0.1157
  135SAPE  H13R14623   0.501   2.755   9.052  1.1976  1.4093  0.5029
  135SAPE  H13S14624   0.577   2.787   8.892 -0.9810 -1.7611 -1.6128
  135SAPE  C21414625   0.364   2.739   8.897 -0.0379  0.0548 -0.3652
  135SAPE  H14R14626   0.287   2.717   8.972 -0.0894 -1.0074 -0.7167
  135SAPE  C21514627   0.336   2.713   8.764  0.6199 -0.0038 -0.1616
  135SAPE  H15R14628   0.247   2.654   8.736  1.0168  0.0736 -1.6926
  135SAPE  C21614629   0.421   2.748   8.651  0.1202 -0.0135 -0.0096
  135SAPE  H16R14630   0.503   2.818   8.679 -0.5484  0.7473  0.0724
  135SAPE  H16S14631   0.363   2.810   8.579 -2.4811 -1.0031  1.1176
  135SAPE  C21714632   0.481   2.631   8.577 -0.8344  0.2866  0.7110
  135SAPE  H17R14633   0.561   2.684   8.521  0.9715 -2.8652  0.1085
  135SAPE  H17S14634   0.418   2.582   8.500  2.5963 -1.5292 -1.1809
  135SAPE  C21814635   0.538   2.524   8.663 -0.3981  0.1428  0.9524
  135SAPE  H18R14636   0.449   2.477   8.709  0.6355 -1.0286  1.8235
  135SAPE  H18S14637   0.607   2.562   8.741  3.2917 -2.2010 -0.8587
  135SAPE  C21914638   0.619   2.418   8.587 -0.1773 -0.2479  0.3932
  135SAPE  H19R14639   0.718   2.467   8.578 -0.6696  0.4250 -2.1252
  135SAPE  H19S14640   0.578   2.388   8.488  0.0829 -0.6382  0.4014
  135SAPE  C22014641   0.635   2.290   8.669  0.2150 -0.0666  0.3498
  135SAPE  H20R14642   0.538   2.242   8.695  0.1883  1.4260  3.5332
  135SAPE  H20S14643   0.688   2.301   8.766 -2.2253 -1.3407  1.9257
  135SAPE  H20T14644   0.701   2.216   8.618 -0.0584  1.2169 -2.0189
  135SAPE   C3314645  -0.525   2.822  10.008 -0.4633 -0.3070  0.4267
  135SAPE   H3X14646  -0.552   2.926  10.034  0.5980  0.3634 -1.0164
  135SAPE   H3Y14647  -0.580   2.760  10.083 -2.1322 -0.8422 -1.1488
  135SAPE   C3414648  -0.586   2.782   9.872 -0.1218 -0.2407 -0.7980
  135SAPE   H4X14649  -0.696   2.794   9.877  0.0979  2.6032 -1.1295
  135SAPE   H4Y14650  -0.564   2.677   9.845 -0.4280 -0.5305  0.0367
  135SAPE   C3514651  -0.534   2.873   9.758  0.1236  0.8152  0.2723
  135SAPE   H5X14652  -0.425   2.887   9.769  0.4521 -0.2259 -1.4322
  135SAPE   H5Y14653  -0.581   2.974   9.764  0.1947  0.9002 -0.5683
  135SAPE   C3614654  -0.572   2.810   9.625 -0.3683 -0.1265  0.5073
  135SAPE   H6X14655  -0.680   2.786   9.622 -0.5089  0.4815  0.7070
  135SAPE   H6Y14656  -0.494   2.731   9.619  2.6173  2.6483 -0.1758
  135SAPE   C3714657  -0.551   2.906   9.513 -0.1368 -0.1873 -0.0717
  135SAPE   H7X14658  -0.449   2.949   9.528 -1.2884  1.6299  4.0890
  135SAPE   H7Y14659  -0.622   2.990   9.530 -0.1348 -0.3065  0.5422
  135SAPE   C3814660  -0.570   2.840   9.378 -0.3873 -0.5127  0.1750
  135SAPE   H8X14661  -0.676   2.820   9.353 -0.2006 -1.1222 -0.1394
  135SAPE   H8Y14662  -0.530   2.736   9.380  0.7069 -0.1076  0.1277
  135SAPE   C3914663  -0.507   2.924   9.266 -0.2356 -0.2978  0.6489
  135SAPE   H9X14664  -0.415   2.976   9.299 -0.8838  2.2885 -1.3046
  135SAPE   H9Y14665  -0.570   3.012   9.240 -2.4283 -1.5722  1.4060
  135SAPE  C31014666  -0.465   2.851   9.136 -0.0824  0.0813 -0.9322
  135SAPE  H10X14667  -0.526   2.759   9.123 -0.3290  0.0996  0.0635
  135SAPE  H10Y14668  -0.359   2.822   9.147 -0.3904 -0.7620 -0.0652
  135SAPE  C31114669  -0.497   2.922   9.000 -0.8803  0.5039 -0.1307
  135SAPE  H11X14670  -0.594   2.965   9.030 -2.3764 -3.8410  1.9364
  135SAPE  H11Y14671  -0.513   2.846   8.921 -1.4067 -1.3703  1.7242
  135SAPE  C31214672  -0.401   3.019   8.955 -0.4295 -0.3591 -0.6677
  135SAPE  H12X14673  -0.301   2.978   8.928  0.0876 -0.3923  1.1662
  135SAPE  H12Y14674  -0.379   3.084   9.042  3.3848 -1.1369 -0.8714
  135SAPE  C31314675  -0.457   3.116   8.852  0.0381  0.7461 -0.6299
  135SAPE  H13X14676  -0.545   3.166   8.896  1.9269  0.8723  3.4885
  135SAPE  H13Y14677  -0.475   3.073   8.751  0.2745 -2.3793  0.5451
  135SAPE  C31414678  -0.363   3.232   8.811 -0.5300  0.2830 -0.6855
  135SAPE  H14X14679  -0.265   3.186   8.786 -0.6364 -0.1441 -0.3208
  135SAPE  H14Y14680  -0.348   3.292   8.903  1.9919  0.0765 -0.8982
  135SAPE  C31514681  -0.393   3.330   8.693  0.4229  0.0134  0.6325
  135SAPE  H15X14682  -0.392   3.270   8.599  0.5068 -0.1953  0.7635
  135SAPE  H15Y14683  -0.321   3.412   8.672 -0.0546 -0.1767 -2.1770
  135SAPE  C31614684  -0.526   3.395   8.715 -0.0338  0.5734 -0.6944
  135SAPE  H16X14685  -0.521   3.448   8.812 -1.4702  1.1496 -0.9096
  135SAPE  H16Y14686  -0.607   3.319   8.724  0.3512  0.2095 -0.2753
  135SAPE  C31714687  -0.561   3.510   8.609  0.4783 -0.2898  0.2990
  135SAPE  H17X14688  -0.569   3.449   8.517 -1.1270  0.0466  0.1845
  135SAPE  H17Y14689  -0.482   3.586   8.590 -2.0355  2.4392  0.0596
  135SAPE  C31814690  -0.696   3.585   8.632 -0.2131  0.2325 -0.2595
  135SAPE  H18X14691  -0.709   3.673   8.566  0.4826  1.8825  1.6647
  135SAPE  H18Y14692  -0.701   3.646   8.726  2.1868 -1.2891  0.9655
  135SAPE  H18Z14693  -0.780   3.513   8.625  1.1460 -1.4443  0.1326
  136SAPE     N14694   3.250   2.329  10.838 -0.2577  0.0598  0.2379
  136SAPE   HN114695   3.147   2.338  10.826  0.0398  0.4332 -2.7071
  136SAPE   HN214696   3.286   2.349  10.742 -0.4938 -0.6474 -0.0079
  136SAPE   HN314697   3.270   2.233  10.873 -0.1801 -0.1971 -0.4923
  136SAPE   C1214698   3.275   2.446  10.929 -0.3831  0.5667  0.3542
  136SAPE  H12A14699   3.383   2.443  10.952 -0.1926  0.4070 -0.5151
  136SAPE  H12B14700   3.215   2.431  11.021  1.5298  0.7547  1.6745
  136SAPE   C1114701   3.246   2.582  10.860 -0.5087  0.1165 -0.2684
  136SAPE  H11A14702   3.310   2.604  10.772 -0.6631  0.1401 -0.3734
  136SAPE  H11B14703   3.278   2.658  10.934  2.8649  0.4891 -1.9151
  136SAPE     P14704   3.028   2.720  10.862 -0.0759 -0.1804 -0.1542
  136SAPE   O1314705   2.948   2.695  10.984 -0.4780  0.1126 -0.1656
  136SAPE   O1414706   3.120   2.833  10.860 -0.5744 -0.6285 -0.5853
  136SAPE   O1214707   3.116   2.594  10.822  0.2315  0.3383  0.3620
  136SAPE   O1114708   2.936   2.736  10.731 -0.5034 -0.0608 -0.4371
  136SAPE    C114709   2.988   2.721  10.603  0.0156 -0.1310  0.1523
  136SAPE    HA14710   3.096   2.747  10.600 -0.5098  2.1933 -2.0546
  136SAPE    HB14711   2.981   2.614  10.572  0.8260 -0.0273 -0.4109
  136SAPE    C214712   2.914   2.811  10.504 -0.1053 -0.8976 -0.5189
  136SAPE    HS14713   2.893   2.911  10.549  2.1906  0.3878 -2.1609
  136SAPE   O2114714   2.795   2.746  10.458  0.7439  0.5933  0.5048
  136SAPE   C2114715   2.690   2.811  10.427 -0.5067 -0.5658  0.0312
  136SAPE   O2214716   2.678   2.932  10.433  0.0866  0.7294  0.1853
  136SAPE   C2214717   2.584   2.716  10.373  0.0897  0.3228  0.5299
  136SAPE   H2R14718   2.641   2.635  10.322 -0.5957 -0.0873  0.4116
  136SAPE   H2S14719   2.527   2.671  10.457  0.4671  0.3888  0.8241
  136SAPE    C314720   2.997   2.848  10.379  0.0501 -0.2261 -0.1907
  136SAPE    HX14721   3.010   2.752  10.325  0.4818 -0.2798  0.0087
  136SAPE    HY14722   3.096   2.890  10.406 -0.0213  0.7568 -1.3834
  136SAPE   O3114723   2.941   2.940  10.283  0.1907 -0.3449 -0.0829
  136SAPE   C3114724   2.918   3.067  10.307  0.1999 -0.5851  0.0642
  136SAPE   O3214725   2.931   3.125  10.416 -0.0656  0.3038  0.5948
  136SAPE   C3214726   2.893   3.138  10.179  0.8890 -0.4176 -0.6768
  136SAPE   H2X14727   2.958   3.102  10.096  2.0662  0.7423 -0.2849
  136SAPE   H2Y14728   2.900   3.246  10.203 -2.2126 -0.4587  0.7832
  136SAPE   C2314729   2.472   2.775  10.275  0.0340 -0.5525 -0.0529
  136SAPE   H3R14730   2.515   2.832  10.190  1.8149 -1.8763 -0.0972
  136SAPE   H3S14731   2.414   2.854  10.327  1.8652  2.7045 -2.5752
  136SAPE   C2414732   2.365   2.672  10.224 -0.2014 -0.3173 -0.8794
  136SAPE   H4R14733   2.312   2.635  10.314  0.7864  0.2269 -0.0493
  136SAPE   H4S14734   2.423   2.591  10.175  1.7910 -0.8386  2.0307
  136SAPE   C2514735   2.266   2.737  10.127  0.6211 -0.1472 -0.7011
  136SAPE   H5R14736   2.187   2.797  10.174  0.1018 -1.9595  0.8877
  136SAPE   C2614737   2.271   2.744   9.993  0.0244  0.5641  0.3068
  136SAPE   H6R14738   2.199   2.814   9.947 -0.5277  0.6650  1.3117
  136SAPE   C2714739   2.368   2.683   9.887  0.6425  0.5716 -1.0485
  136SAPE   H7R14740   2.473   2.705   9.913  0.7828 -0.8742 -0.2664
  136SAPE   H7S14741   2.352   2.735   9.790 -1.4224  1.2122 -0.4271
  136SAPE   C2814742   2.352   2.533   9.872 -0.4656  0.0239  0.3019
  136SAPE   H8R14743   2.303   2.479   9.954  0.3421  0.8706  1.3770
  136SAPE   C2914744   2.400   2.462   9.776 -0.3794  0.3995  0.4315
  136SAPE   H9R14745   2.389   2.353   9.782 -2.5097  0.4411 -1.3636
  136SAPE  C21014746   2.488   2.521   9.662 -0.0577 -0.3131  0.0120
  136SAPE  H10R14747   2.520   2.627   9.672  0.2347 -0.2869 -1.0874
  136SAPE  H10S14748   2.432   2.509   9.567 -1.0564 -0.0942  0.5458
  136SAPE  C21114749   2.610   2.441   9.666  0.1657  0.5236  0.2977
  136SAPE  H11R14750   2.663   2.447   9.762 -0.4237  0.3902  0.6356
  136SAPE  C21214751   2.679   2.380   9.562 -0.4776 -0.5879 -0.0855
  136SAPE  H12R14752   2.759   2.308   9.580  0.1678  0.4619  1.4812
  136SAPE  C21314753   2.619   2.392   9.421 -0.4507 -0.2399  0.7913
  136SAPE  H13R14754   2.617   2.498   9.387  1.0319  0.1027  1.6365
  136SAPE  H13S14755   2.511   2.367   9.421 -1.1323  2.1650 -1.8314
  136SAPE  C21414756   2.675   2.291   9.322  0.1952  0.2065 -0.8631
  136SAPE  H14R14757   2.707   2.198   9.369  0.8566  1.9152  2.3674
  136SAPE  C21514758   2.707   2.314   9.194 -0.1117 -0.4602  0.5766
  136SAPE  H15R14759   2.736   2.229   9.132 -2.7951 -1.3597  0.4535
  136SAPE  C21614760   2.688   2.441   9.119  0.5243 -0.0165 -0.3837
  136SAPE  H16R14761   2.791   2.474   9.095  0.3092  0.6483 -0.4049
  136SAPE  H16S14762   2.635   2.520   9.175 -1.3263 -1.2387 -0.3028
  136SAPE  C21714763   2.608   2.427   8.982  0.9491 -0.1695  0.0067
  136SAPE  H17R14764   2.601   2.533   8.947 -2.2850  0.7292  2.7589
  136SAPE  H17S14765   2.506   2.388   9.002  1.4190 -0.3959  2.2215
  136SAPE  C21814766   2.665   2.337   8.873 -0.6537  0.3768  0.3229
  136SAPE  H18R14767   2.594   2.317   8.790  0.5861  1.7908 -1.1467
  136SAPE  H18S14768   2.707   2.240   8.909  0.2588  1.2767  1.7859
  136SAPE  C21914769   2.790   2.398   8.803  0.1691 -0.6516 -0.5827
  136SAPE  H19R14770   2.869   2.437   8.870  2.0411  2.4390 -4.1416
  136SAPE  H19S14771   2.762   2.489   8.745 -1.4516 -0.9363 -0.2910
  136SAPE  C22014772   2.853   2.302   8.703 -0.5110  0.5805  0.0141
  136SAPE  H20R14773   2.964   2.307   8.703 -0.5494  2.4618  0.8852
  136SAPE  H20S14774   2.823   2.339   8.603 -0.1768 -0.9564 -0.6813
  136SAPE  H20T14775   2.808   2.202   8.722  1.2348 -0.2924 -0.1865
  136SAPE   C3314776   2.753   3.114  10.136  0.6554 -0.2334  0.7238
  136SAPE   H3X14777   2.723   3.194  10.064  0.1150 -2.5704 -1.8351
  136SAPE   H3Y14778   2.682   3.125  10.221  0.0349  1.1300  0.0749
  136SAPE   C3414779   2.737   2.984  10.048  0.7732  0.3015  0.0994
  136SAPE   H4X14780   2.627   2.965  10.048 -0.3767  5.4247 -1.0343
  136SAPE   H4Y14781   2.781   2.895  10.096 -1.5995 -2.2480 -2.1326
  136SAPE   C3514782   2.777   3.006   9.900  0.7822  0.5794  0.2580
  136SAPE   H5X14783   2.881   3.043   9.883  0.7361  0.1729 -0.9714
  136SAPE   H5Y14784   2.705   3.079   9.857  0.2665 -0.1884 -0.2088
  136SAPE   C3614785   2.760   2.879   9.812 -0.0515  0.2698 -0.9137
  136SAPE   H6X14786   2.649   2.874   9.805 -0.4084  2.2807  1.6749
  136SAPE   H6Y14787   2.810   2.798   9.869  0.4341  0.8653 -0.4839
  136SAPE   C3714788   2.822   2.879   9.675 -0.3843 -0.0502  0.4705
  136SAPE   H7X14789   2.874   2.976   9.661 -0.1962 -0.3754 -1.4600
  136SAPE   H7Y14790   2.741   2.889   9.600 -1.2876  1.7270  1.6279
  136SAPE   C3814791   2.921   2.763   9.648  0.1157  0.1000  0.6010
  136SAPE   H8X14792   2.857   2.673   9.643  1.6263 -1.0619  1.4534
  136SAPE   H8Y14793   2.992   2.746   9.732 -1.1540  0.1885  1.7216
  136SAPE   C3914794   2.997   2.780   9.521  0.0899  0.3710 -0.3348
  136SAPE   H9X14795   3.065   2.693   9.515 -1.2069 -0.8950  1.8040
  136SAPE   H9Y14796   3.060   2.871   9.531 -0.0150  0.6222 -1.7836
  136SAPE  C31014797   2.905   2.782   9.393 -0.5056  0.4978  0.2080
  136SAPE  H10X14798   2.846   2.876   9.393 -2.3195 -0.5957  0.3274
  136SAPE  H10Y14799   2.835   2.698   9.408  0.3317 -0.3827 -0.6531
  136SAPE  C31114800   2.974   2.763   9.254 -0.5464 -0.5497  0.4755
  136SAPE  H11X14801   3.024   2.664   9.244 -2.3837 -1.3472 -1.5593
  136SAPE  H11Y14802   3.049   2.844   9.242 -2.9449  1.3850 -2.8678
  136SAPE  C31214803   2.875   2.764   9.130 -0.7705  0.0776  0.4082
  136SAPE  H12X14804   2.812   2.856   9.126  0.3427  0.8768  0.9674
  136SAPE  H12Y14805   2.804   2.679   9.140 -2.1739  1.0350 -0.8641
  136SAPE  C31314806   2.951   2.747   8.990  0.0228  0.1499 -0.3458
  136SAPE  H13X14807   2.995   2.646   8.978  0.8314  0.5482 -0.8206
  136SAPE  H13Y14808   3.038   2.816   8.995  1.0748 -1.1759  0.0527
  136SAPE  C31414809   2.863   2.789   8.869 -0.1658 -0.2399 -0.9530
  136SAPE  H14X14810   2.770   2.728   8.875 -0.6134  0.5635  0.8721
  136SAPE  H14Y14811   2.904   2.765   8.768 -0.8849 -0.8422 -1.1123
  136SAPE  C31514812   2.838   2.943   8.857  0.2338 -0.3024  1.0307
  136SAPE  H15X14813   2.937   2.993   8.871 -0.1292  0.2905  1.5580
  136SAPE  H15Y14814   2.782   2.982   8.945 -1.0416  0.2889 -0.0101
  136SAPE  C31614815   2.773   2.983   8.723  0.0444  0.0363 -0.1739
  136SAPE  H16X14816   2.852   2.999   8.647 -0.5717  2.7668 -0.3432
  136SAPE  H16Y14817   2.734   3.087   8.730  0.9260  0.4383 -0.9862
  136SAPE  C31714818   2.665   2.891   8.680  0.1154  0.3318 -0.2840
  136SAPE  H17X14819   2.592   2.894   8.764  0.9256 -1.1098  0.5157
  136SAPE  H17Y14820   2.696   2.787   8.659  0.2409 -0.0404  1.5698
  136SAPE  C31814821   2.592   2.937   8.554  0.4692 -0.1796  0.2764
  136SAPE  H18X14822   2.529   2.860   8.504  0.9635  1.3841 -3.0471
  136SAPE  H18Y14823   2.666   2.964   8.475  0.4199  2.5313  1.0501
  136SAPE  H18Z14824   2.532   3.029   8.572  0.6412 -0.4090  2.3204
  137SAPE     N14825   0.910   6.415  10.838 -0.7077 -0.0644  0.8342
  137SAPE   HN114826   1.014   6.408  10.841 -0.2365  3.1802 -1.7777
  137SAPE   HN214827   0.885   6.514  10.857 -0.8310  0.2876 -1.0085
  137SAPE   HN314828   0.872   6.363  10.919 -0.2752 -0.3335  0.8670
  137SAPE   C1214829   0.852   6.383  10.702  0.0904 -0.5649 -0.3189
  137SAPE  H12A14830   0.892   6.286  10.666  0.4111 -0.7923  0.6093
  137SAPE  H12B14831   0.885   6.468  10.640  0.3871 -1.2387 -1.1047
  137SAPE   C1114832   0.697   6.390  10.709 -1.0268 -0.0410  0.8736
  137SAPE  H11A14833   0.654   6.302  10.762 -0.3825 -0.4274  0.7771
  137SAPE  H11B14834   0.659   6.382  10.605  0.8722  0.3735  0.0983
  137SAPE     P14835   0.491   6.502  10.807  0.0132 -0.2377 -0.5440
  137SAPE   O1314836   0.452   6.401  10.907 -0.2989 -0.1015 -0.0466
  137SAPE   O1414837   0.443   6.640  10.834 -0.0745  0.3791  0.3990
  137SAPE   O1214838   0.654   6.507  10.781  0.4922 -0.2365  0.4330
  137SAPE   O1114839   0.427   6.464  10.672 -0.0212 -0.1760  0.6998
  137SAPE    C114840   0.296   6.411  10.658 -0.0276 -0.1537 -0.2931
  137SAPE    HA14841   0.295   6.321  10.723  1.1167  0.4853  0.6712
  137SAPE    HB14842   0.223   6.478  10.707  0.0608  0.5567 -1.1146
  137SAPE    C214843   0.261   6.375  10.512 -0.3582 -0.1329 -0.2725
  137SAPE    HS14844   0.189   6.291  10.525  2.0128 -2.2756 -0.0301
  137SAPE   O2114845   0.374   6.333  10.431 -0.4304  0.3031 -0.3424
  137SAPE   C2114846   0.440   6.229  10.476 -0.1797  0.5660  0.5035
  137SAPE   O2214847   0.409   6.152  10.564  0.0144  0.2799  0.1869
  137SAPE   C2214848   0.552   6.193  10.373 -0.1718  0.0523 -0.0482
  137SAPE   H2R14849   0.580   6.281  10.312  0.9405  1.0946  1.8653
  137SAPE   H2S14850   0.643   6.167  10.431 -0.3836  0.9186  0.6995
  137SAPE    C314851   0.202   6.498  10.437  0.3006  0.5107  0.7669
  137SAPE    HX14852   0.283   6.572  10.420 -0.1077  0.9926  0.8896
  137SAPE    HY14853   0.125   6.533  10.510 -1.9812 -3.4124  0.5697
  137SAPE   O3114854   0.148   6.476  10.302  0.0467  0.4494  0.2989
  137SAPE   C3114855   0.018   6.486  10.288  0.2103 -0.1849  0.1699
  137SAPE   O3214856  -0.070   6.507  10.367 -0.6343 -1.1114  0.3659
  137SAPE   C3214857  -0.002   6.475  10.131 -0.4135 -0.6257 -0.2106
  137SAPE   H2X14858   0.002   6.583  10.105  1.2944 -0.2021  1.5694
  137SAPE   H2Y14859  -0.105   6.439  10.110  0.0203 -1.0474 -1.7965
  137SAPE   C2314860   0.508   6.074  10.287  0.6575  0.5468  0.6385
  137SAPE   H3R14861   0.484   5.981  10.342 -0.4053 -0.5383 -1.5641
  137SAPE   H3S14862   0.599   6.045  10.230  1.6601  3.5885  0.4545
  137SAPE   C2414863   0.381   6.113  10.193  0.0625  0.6732 -0.2203
  137SAPE   H4R14864   0.291   6.132  10.255  0.8599 -1.4253  1.7487
  137SAPE   H4S14865   0.359   6.024  10.129  1.0583  1.4549 -1.7154
  137SAPE   C2514866   0.414   6.228  10.101  1.0332  0.0716  0.0815
  137SAPE   H5R14867   0.379   6.327  10.134  0.1443  1.3719 -4.1762
  137SAPE   C2614868   0.472   6.211   9.981  0.5972  0.4694 -0.5161
  137SAPE   H6R14869   0.500   6.292   9.913 -3.0211  0.6728 -1.9263
  137SAPE   C2714870   0.516   6.077   9.920  0.0311  0.1847 -0.1722
  137SAPE   H7R14871   0.546   6.006  10.000  0.6282 -1.0731 -1.4660
  137SAPE   H7S14872   0.599   6.086   9.847  0.2527  0.0674  0.0632
  137SAPE   C2814873   0.393   6.033   9.839 -0.6014  1.3588 -0.0226
  137SAPE   H8R14874   0.307   6.023   9.907 -0.3647  2.0956  0.4030
  137SAPE   C2914875   0.380   5.985   9.713  0.5756 -0.3303  0.5827
  137SAPE   H9R14876   0.276   5.969   9.682  0.7004 -0.8238  0.4165
  137SAPE  C21014877   0.486   5.981   9.605  0.1100 -0.0334  0.4834
  137SAPE  H10R14878   0.501   5.882   9.559 -0.7701 -0.5247  1.2292
  137SAPE  H10S14879   0.581   6.020   9.649  0.9135  1.1761 -2.1186
  137SAPE  C21114880   0.448   6.076   9.495 -0.4044  0.3656  0.0216
  137SAPE  H11R14881   0.431   6.180   9.528 -1.1337  0.5367 -0.8448
  137SAPE  C21214882   0.463   6.059   9.363 -0.1689  0.1772  0.5010
  137SAPE  H12R14883   0.440   6.142   9.295  0.2243  0.9562  1.3088
  137SAPE  C21314884   0.524   5.932   9.298  0.0721 -0.0638 -0.0188
  137SAPE  H13R14885   0.448   5.853   9.317 -0.3945  0.8361  2.2046
  137SAPE  H13S14886   0.618   5.901   9.349  0.5885 -0.2026 -1.0275
  137SAPE  C21414887   0.534   5.953   9.155 -0.5877  0.3719  0.0584
  137SAPE  H14R14888   0.627   5.997   9.116 -0.2123 -0.9220 -0.5645
  137SAPE  C21514889   0.440   5.920   9.070  0.4165 -0.3326  0.4883
  137SAPE  H15R14890   0.464   5.942   8.965  0.2163  2.7258  1.0035
  137SAPE  C21614891   0.310   5.852   9.091  0.5200 -0.3415 -0.4546
  137SAPE  H16R14892   0.253   5.914   9.163 -0.6162  1.3875 -2.6730
  137SAPE  H16S14893   0.330   5.763   9.155 -1.1280 -0.4071 -0.0028
  137SAPE  C21714894   0.230   5.824   8.960 -0.5318 -0.3833  0.6047
  137SAPE  H17R14895   0.273   5.728   8.924 -0.0421 -1.2667  3.3163
  137SAPE  H17S14896   0.243   5.907   8.887  0.0025  0.1889  1.3292
  137SAPE  C21814897   0.083   5.793   8.974 -0.2248  0.0518  0.4047
  137SAPE  H18R14898   0.020   5.867   9.029 -1.7842  1.3404 -2.8404
  137SAPE  H18S14899   0.085   5.702   9.036  1.5113 -0.7676 -0.7846
  137SAPE  C21914900   0.024   5.759   8.838  0.5371 -0.7768 -0.3714
  137SAPE  H19R14901   0.074   5.667   8.799 -0.3115 -1.3346 -0.1733
  137SAPE  H19S14902   0.050   5.837   8.764 -2.3268  1.0887  0.4638
  137SAPE  C22014903  -0.126   5.759   8.838  0.5540  0.0783 -0.1943
  137SAPE  H20R14904  -0.168   5.855   8.873 -2.0796 -1.6025  1.6832
  137SAPE  H20S14905  -0.172   5.687   8.908  1.5457  0.2404  0.6415
  137SAPE  H20T14906  -0.156   5.738   8.733  0.4704 -0.3486 -0.0881
  137SAPE   C3314907   0.101   6.394  10.049  0.6338 -0.5402  0.6608
  137SAPE   H3X14908   0.098   6.290  10.089 -1.1816 -1.0564 -0.6551
  137SAPE   H3Y14909   0.203   6.430  10.072 -0.5151  1.2545  3.5972
  137SAPE   C3414910   0.055   6.375   9.898 -0.1437  0.0380 -0.1755
  137SAPE   H4X14911   0.049   6.474   9.847  1.0259 -0.4857 -1.4033
  137SAPE   H4Y14912  -0.043   6.323   9.887  0.2654 -0.7242 -0.2801
  137SAPE   C3514913   0.148   6.290   9.809 -0.4871  0.4610  0.0594
  137SAPE   H5X14914   0.142   6.182   9.835  0.5948  0.5053  0.5565
  137SAPE   H5Y14915   0.252   6.324   9.830  0.4241 -0.6406 -2.2974
  137SAPE   C3614916   0.128   6.306   9.654 -0.3729 -0.3382  0.2490
  137SAPE   H6X14917   0.216   6.257   9.608  0.5472 -0.1410  1.7163
  137SAPE   H6Y14918   0.140   6.412   9.622  0.3406 -0.4892  0.0063
  137SAPE   C3714919  -0.012   6.249   9.610  0.2778  0.1024 -0.4404
  137SAPE   H7X14920  -0.090   6.289   9.679  0.1642 -0.8912  0.0133
  137SAPE   H7Y14921  -0.016   6.141   9.636 -0.7162  0.1895 -0.1634
  137SAPE   C3814922  -0.042   6.271   9.467 -0.3411 -0.3949 -0.1211
  137SAPE   H8X14923  -0.028   6.378   9.440 -2.1636  0.2603  1.3114
  137SAPE   H8Y14924  -0.151   6.253   9.450  0.2489 -2.6874 -1.8911
  137SAPE   C3914925   0.036   6.175   9.383 -0.1385 -0.7517 -0.6201
  137SAPE   H9X14926   0.020   6.067   9.403  0.6476 -0.4291  2.3433
  137SAPE   H9Y14927   0.140   6.197   9.416 -0.6479  0.4174  0.2903
  137SAPE  C31014928   0.018   6.220   9.228  0.1913  0.5107 -0.0213
  137SAPE  H10X14929   0.035   6.330   9.226  1.2035  0.3574 -0.1005
  137SAPE  H10Y14930  -0.088   6.199   9.203  0.2282  0.8115 -0.4284
  137SAPE  C31114931   0.109   6.137   9.137  0.0158  0.0303  0.2777
  137SAPE  H11X14932   0.096   6.031   9.167 -2.4166 -0.0652 -0.8591
  137SAPE  H11Y14933   0.206   6.177   9.173 -0.2042  2.1016 -1.2248
  137SAPE  C31214934   0.076   6.165   8.990 -0.1108  0.1762  0.3327
  137SAPE  H12X14935  -0.026   6.127   8.970  0.0037  0.5049 -0.9339
  137SAPE  H12Y14936   0.155   6.116   8.929  1.4626 -1.2038  3.2453
  137SAPE  C31314937   0.083   6.317   8.966 -0.3386 -0.6524 -0.1164
  137SAPE  H13X14938   0.185   6.355   8.986 -1.0680  1.2305  0.2311
  137SAPE  H13Y14939   0.020   6.381   9.032  0.9473  0.2637  0.2642
  137SAPE  C31414940   0.035   6.368   8.832  0.1117  0.3159  0.7910
  137SAPE  H14X14941  -0.075   6.364   8.818 -0.1829  2.8739  1.7805
  137SAPE  H14Y14942   0.078   6.320   8.742  1.1409  1.7174  0.4989
  137SAPE  C31514943   0.076   6.519   8.817  0.4629 -0.3183 -0.2454
  137SAPE  H15X14944   0.185   6.532   8.831  0.4246  1.7496 -1.4192
  137SAPE  H15Y14945   0.022   6.582   8.891  2.0881  0.5277  0.2694
  137SAPE  C31614946   0.062   6.577   8.673  0.3125 -1.0506  0.7381
  137SAPE  H16X14947  -0.035   6.545   8.629  0.2594  0.0495  0.0174
  137SAPE  H16Y14948   0.138   6.532   8.606 -0.4641 -2.2205  0.5993
  137SAPE  C31714949   0.093   6.725   8.665  0.1110 -0.8058 -0.2148
  137SAPE  H17X14950   0.169   6.758   8.739 -0.9659 -0.1115  0.6171
  137SAPE  H17Y14951   0.008   6.788   8.698  0.8506  1.2797 -2.0718
  137SAPE  C31814952   0.137   6.792   8.534 -0.7841  0.8435  0.8709
  137SAPE  H18X14953   0.045   6.798   8.471  0.8242  1.7867 -1.5062
  137SAPE  H18Y14954   0.224   6.747   8.482 -1.6120  0.9332 -0.6509
  137SAPE  H18Z14955   0.175   6.894   8.555 -2.8865  2.2335 -1.4810
  138SAPE     N14956   6.209   0.939  10.675 -0.2287  1.0543 -0.4770
  138SAPE   HN114957   6.172   0.843  10.691  1.2319  0.5949  0.3503
  138SAPE   HN214958   6.299   0.953  10.726 -0.9565 -0.5938  1.3977
  138SAPE   HN314959   6.151   1.014  10.718  0.7581  0.8233  1.3760
  138SAPE   C1214960   6.221   0.966  10.524 -0.8434 -0.0868 -0.2852
  138SAPE  H12A14961   6.327   0.986  10.498 -0.9743 -2.4014 -2.9687
  138SAPE  H12B14962   6.152   1.050  10.498 -1.2231  0.0251  1.0152
  138SAPE   C1114963   6.181   0.840  10.450  0.2159 -0.5334  0.3210
  138SAPE  H11A14964   6.251   0.758  10.478  0.1795 -0.9908 -0.8761
  138SAPE  H11B14965   6.190   0.858  10.341  0.5076 -1.2224  0.2272
  138SAPE     P14966   5.916   0.872  10.461  0.0661  0.3205 -0.2085
  138SAPE   O1314967   5.806   0.773  10.439  0.4264  0.7223 -0.5709
  138SAPE   O1414968   5.895   0.976  10.563 -0.1489  0.2295  0.9880
  138SAPE   O1214969   6.049   0.797  10.493  0.1212  0.2139  0.3517
  138SAPE   O1114970   5.953   0.941  10.328 -0.2417  0.4281 -0.5687
  138SAPE    C114971   5.945   0.887  10.194  0.4047  0.2119 -0.0450
  138SAPE    HA14972   6.041   0.902  10.140 -1.3566  3.8196 -2.5247
  138SAPE    HB14973   5.919   0.779  10.204 -2.2564  0.7970 -0.0387
  138SAPE    C214974   5.847   0.963  10.096 -0.1313  0.2468  0.7835
  138SAPE    HS14975   5.884   1.068  10.091  0.6037 -0.0623 -0.9538
  138SAPE   O2114976   5.709   0.956  10.144  0.0762 -0.3105 -0.3080
  138SAPE   C2114977   5.662   1.059  10.207  0.7958 -0.2215 -0.3366
  138SAPE   O2214978   5.712   1.169  10.218  0.6121  0.3851 -0.2588
  138SAPE   C2214979   5.534   1.019  10.271  0.4707  0.2422  0.1555
  138SAPE   H2R14980   5.562   0.946  10.349  0.7853 -1.7994 -1.7604
  138SAPE   H2S14981   5.484   1.111  10.309 -1.5493 -0.3380 -0.9354
  138SAPE    C314982   5.853   0.911   9.952 -0.1191  0.3100  0.1347
  138SAPE    HX14983   5.952   0.889   9.906  0.3761 -0.2069  1.4044
  138SAPE    HY14984   5.820   0.998   9.891 -0.3058  2.3187  2.9375
  138SAPE   O3114985   5.761   0.800   9.948  0.2339 -0.4034 -0.0518
  138SAPE   C3114986   5.766   0.727   9.830 -0.9972 -0.1535  0.2864
  138SAPE   O3214987   5.856   0.744   9.748  0.2382 -0.5631 -0.1031
  138SAPE   C3214988   5.649   0.637   9.815  0.5737  0.0542  0.1407
  138SAPE   H2X14989   5.634   0.586   9.912  1.9649 -1.5878 -0.4697
  138SAPE   H2Y14990   5.688   0.556   9.750  0.1627  0.4001 -0.5484
  138SAPE   C2314991   5.433   0.944  10.177  0.1134  0.5255 -0.6217
  138SAPE   H3R14992   5.378   0.869  10.236 -0.7957  1.4027 -0.3337
  138SAPE   H3S14993   5.473   0.883  10.093 -1.8718 -0.2941 -1.0116
  138SAPE   C2414994   5.324   1.036  10.132  0.9222  0.2258 -0.0239
  138SAPE   H4R14995   5.280   1.099  10.212  0.0124  1.3476 -1.3623
  138SAPE   H4S14996   5.241   0.963  10.116 -0.9232  2.0593  0.8079
  138SAPE   C2514997   5.344   1.120  10.012 -0.3537 -0.1921  0.5483
  138SAPE   H5R14998   5.431   1.187  10.015 -0.7138  0.5265 -2.0366
  138SAPE   C2614999   5.275   1.130   9.896 -0.1712 -0.0272  0.1000
  138SAPE   H6R15000   5.310   1.200   9.818 -0.6572  0.1378  0.0259
  138SAPE   C2715001   5.153   1.045   9.859  0.5093 -0.0533 -0.2964
  138SAPE   H7R15002   5.117   1.002   9.955 -0.2796 -0.9227 -0.9661
  138SAPE   H7S15003   5.181   0.957   9.796  2.3339 -0.3798  0.8919
  138SAPE   C2815004   5.043   1.135   9.809  0.2084  0.6810  0.3434
  138SAPE   H8R15005   4.984   1.182   9.889  0.2776  1.7101 -0.1936
  138SAPE   C2915006   5.028   1.163   9.678 -0.2168 -0.1250  0.0539
  138SAPE   H9R15007   4.932   1.206   9.643 -0.2797 -0.1857  0.1511
  138SAPE  C21015008   5.113   1.110   9.565 -0.3426  0.2105 -0.2270
  138SAPE  H10R15009   5.125   0.999   9.573 -1.6409  0.0928  0.3222
  138SAPE  H10S15010   5.214   1.155   9.573 -0.6316  0.6675  1.0615
  138SAPE  C21115011   5.056   1.140   9.427  0.4130  0.2769  0.1673
  138SAPE  H11R15012   5.027   1.054   9.366  2.0884  0.9653 -1.7079
  138SAPE  C21215013   5.024   1.261   9.373  0.1730 -0.3188 -1.1650
  138SAPE  H12R15014   4.990   1.274   9.269  1.0349  0.7476 -1.3274
  138SAPE  C21315015   5.037   1.390   9.441  0.9934  0.1250  0.2334
  138SAPE  H13R15016   5.135   1.412   9.488  0.2383  2.1177  0.9899
  138SAPE  H13S15017   4.978   1.376   9.534 -1.3234 -3.7114 -1.5672
  138SAPE  C21415018   4.992   1.507   9.358 -0.4827 -0.0826 -0.1679
  138SAPE  H14R15019   4.901   1.559   9.391 -0.3189  1.0342 -1.4110
  138SAPE  C21515020   5.047   1.548   9.241 -0.1999  0.2518 -0.6718
  138SAPE  H15R15021   5.002   1.632   9.186 -0.3838 -0.9965 -2.5066
  138SAPE  C21615022   5.167   1.493   9.174 -0.2739 -0.1881 -0.9716
  138SAPE  H16R15023   5.146   1.428   9.086  0.1163 -2.1026  0.2948
  138SAPE  H16S15024   5.222   1.436   9.252 -1.6157  0.4826  0.5271
  138SAPE  C21715025   5.267   1.601   9.127 -0.3665  0.3032 -0.0861
  138SAPE  H17R15026   5.313   1.659   9.210 -1.2607  0.3173  0.4073
  138SAPE  H17S15027   5.211   1.676   9.069 -0.5985 -0.3749 -0.7504
  138SAPE  C21815028   5.372   1.530   9.039 -0.2845  0.3272  0.3284
  138SAPE  H18R15029   5.310   1.508   8.950 -1.1289  5.5586 -0.6473
  138SAPE  H18S15030   5.408   1.436   9.086 -1.3580 -0.7414 -0.9013
  138SAPE  C21915031   5.487   1.622   9.003 -0.2119  0.6715 -0.2578
  138SAPE  H19R15032   5.567   1.569   8.947 -0.1108  2.2984 -1.7191
  138SAPE  H19S15033   5.530   1.655   9.100  0.9783 -0.7182 -0.2821
  138SAPE  C22015034   5.458   1.745   8.923  0.0337  0.8832 -0.5968
  138SAPE  H20R15035   5.555   1.774   8.877  1.5296  0.5964  2.1813
  138SAPE  H20S15036   5.414   1.827   8.983 -0.3779 -0.2133  0.6451
  138SAPE  H20T15037   5.377   1.714   8.854 -1.6963 -0.0518  1.7036
  138SAPE   C3315038   5.522   0.714   9.763  0.3681 -0.4423 -0.4897
  138SAPE   H3X15039   5.502   0.818   9.795  0.6691  0.5668 -3.2345
  138SAPE   H3Y15040   5.430   0.659   9.792  0.0682  0.0983 -0.4013
  138SAPE   C3415041   5.531   0.739   9.613  0.3518 -0.1435 -0.0118
  138SAPE   H4X15042   5.539   0.640   9.565  0.2265 -0.0266 -0.2764
  138SAPE   H4Y15043   5.618   0.808   9.609  0.2292  0.1336  1.3736
  138SAPE   C3515044   5.406   0.797   9.559  0.3194 -0.6225  0.0383
  138SAPE   H5X15045   5.394   0.898   9.604 -0.5650 -0.7097  0.0294
  138SAPE   H5Y15046   5.321   0.733   9.591  1.3818 -1.9014  0.3998
  138SAPE   C3615047   5.400   0.801   9.404 -0.1274 -0.5509 -0.4731
  138SAPE   H6X15048   5.409   0.702   9.355 -0.3366 -0.3148 -1.0068
  138SAPE   H6Y15049   5.495   0.853   9.377 -1.0567  2.1907  1.0646
  138SAPE   C3715050   5.282   0.883   9.343  0.4734  0.5046 -0.3754
  138SAPE   H7X15051   5.270   0.987   9.381 -3.4898 -0.0752  0.4026
  138SAPE   H7Y15052   5.189   0.825   9.358  1.7495 -2.1175 -1.8662
  138SAPE   C3815053   5.308   0.910   9.185 -0.2234 -0.1399 -0.5179
  138SAPE   H8X15054   5.276   0.820   9.130 -1.3631  0.1735 -0.3954
  138SAPE   H8Y15055   5.419   0.924   9.178 -0.2588  0.4053 -0.1290
  138SAPE   C3915056   5.214   1.020   9.132  0.2185  0.2635 -0.0918
  138SAPE   H9X15057   5.217   1.113   9.193 -0.1759  1.5624 -1.9559
  138SAPE   H9Y15058   5.113   0.975   9.131  1.5307 -3.0879 -3.4697
  138SAPE  C31015059   5.250   1.051   8.986  0.4388  0.1334  0.4376
  138SAPE  H10X15060   5.236   0.964   8.919  2.7628  0.1725 -0.1555
  138SAPE  H10Y15061   5.358   1.076   8.977  0.4680 -0.1456  0.0063
  138SAPE  C31115062   5.159   1.162   8.920 -0.5400  0.5473  0.1397
  138SAPE  H11X15063   5.174   1.259   8.973  1.0413  1.4011 -1.7559
  138SAPE  H11Y15064   5.053   1.132   8.934 -0.7101  0.6987 -0.7559
  138SAPE  C31215065   5.200   1.185   8.774  0.3894  0.2243 -0.0512
  138SAPE  H12X15066   5.171   1.101   8.708  1.1614  0.9113 -1.3205
  138SAPE  H12Y15067   5.310   1.198   8.763  0.8445 -2.5787  0.4769
  138SAPE  C31315068   5.140   1.318   8.715 -0.0200 -0.4428 -0.6110
  138SAPE  H13X15069   5.146   1.311   8.605 -0.3251  0.5708 -0.7028
  138SAPE  H13Y15070   5.201   1.398   8.762 -1.4451 -0.6562  1.7792
  138SAPE  C31415071   4.987   1.336   8.744  0.2571 -0.1437 -0.5793
  138SAPE  H14X15072   4.967   1.382   8.843 -0.2483 -1.6896  0.0618
  138SAPE  H14Y15073   4.936   1.237   8.743  4.0192 -2.3284 -2.8130
  138SAPE  C31515074   4.920   1.422   8.626  0.6192 -0.0087 -1.0855
  138SAPE  H15X15075   4.903   1.344   8.549  0.1907 -1.3254  0.2959
  138SAPE  H15Y15076   4.989   1.503   8.592  0.5283 -0.0840 -1.4505
  138SAPE  C31615077   4.776   1.468   8.657  0.8428 -0.5081  0.1846
  138SAPE  H16X15078   4.796   1.556   8.722 -0.5194 -0.1910  0.2222
  138SAPE  H16Y15079   4.720   1.392   8.717 -0.3794 -0.9541 -1.4548
  138SAPE  C31715080   4.701   1.495   8.527 -0.6377 -0.1986  0.2088
  138SAPE  H17X15081   4.713   1.405   8.464  1.8310 -0.7382  1.3329
  138SAPE  H17Y15082   4.750   1.573   8.465 -0.2117 -0.3915  0.2986
  138SAPE  C31815083   4.557   1.532   8.549 -0.1645  0.3427  0.2606
  138SAPE  H18X15084   4.553   1.628   8.606 -0.5003  0.9151 -0.7114
  138SAPE  H18Y15085   4.503   1.451   8.604 -0.3035 -0.3423 -0.8643
  138SAPE  H18Z15086   4.504   1.549   8.453 -2.4623  1.8358  1.6979
  139SAPE     N15087   5.317   5.405  10.815  0.2355  0.2469  0.0902
  139SAPE   HN115088   5.220   5.440  10.802  0.4109  0.6402 -0.1868
  139SAPE   HN215089   5.342   5.416  10.915 -0.2497 -0.8447  0.3555
  139SAPE   HN315090   5.372   5.470  10.755 -0.1800 -1.8622 -2.8205
  139SAPE   C1215091   5.331   5.262  10.771 -0.2631  0.5446 -0.0374
  139SAPE  H12A15092   5.286   5.197  10.848  3.0576  0.5712  2.1118
  139SAPE  H12B15093   5.440   5.242  10.764 -0.1242  1.0285  0.6998
  139SAPE   C1115094   5.279   5.240  10.627  0.7625 -0.9790  0.5608
  139SAPE  H11A15095   5.317   5.142  10.593 -2.3093 -1.9420 -0.4717
  139SAPE  H11B15096   5.314   5.327  10.567  0.5970 -1.0242  0.3974
  139SAPE     P15097   5.045   5.126  10.589  0.1058  0.0669 -0.3082
  139SAPE   O1315098   5.126   5.004  10.615  0.4350 -0.1134  0.0708
  139SAPE   O1415099   4.917   5.141  10.658  0.1231 -0.2087  0.2806
  139SAPE   O1215100   5.129   5.246  10.636  0.2354  0.4999 -0.1040
  139SAPE   O1115101   5.010   5.141  10.432  0.0535  0.3643  0.5529
  139SAPE    C115102   5.028   5.270  10.368  0.3660 -0.0003 -0.0199
  139SAPE    HA15103   4.962   5.347  10.414  0.5890  0.7874 -0.9705
  139SAPE    HB15104   5.134   5.303  10.375  0.6390 -1.0012  0.8765
  139SAPE    C215105   5.014   5.269  10.210  0.0970  0.7779 -0.2655
  139SAPE    HS15106   4.907   5.289  10.185 -0.5449  1.5911  2.7004
  139SAPE   O2115107   5.060   5.142  10.163 -0.0319 -0.0676  0.3049
  139SAPE   C2115108   4.968   5.047  10.150 -0.1794  0.0780 -0.4821
  139SAPE   O2215109   4.851   5.060  10.175  0.0215 -0.3881  0.0376
  139SAPE   C2215110   5.033   4.919  10.080 -0.5072  0.0885  0.7813
  139SAPE   H2R15111   5.100   4.945   9.995 -1.1807  1.7647  0.7183
  139SAPE   H2S15112   5.090   4.883  10.168  0.8349  2.0053  0.7695
  139SAPE    C315113   5.102   5.384  10.139  0.3817 -0.3539 -0.0027
  139SAPE    HX15114   5.205   5.350  10.163  0.0666 -0.6669  0.9400
  139SAPE    HY15115   5.070   5.469  10.202  0.1413 -1.3289  1.2428
  139SAPE   O3115116   5.082   5.407   9.996 -0.2601 -0.1863 -0.2713
  139SAPE   C3115117   5.113   5.518   9.944  1.1777 -1.0739  0.5563
  139SAPE   O3215118   5.119   5.623  10.004 -0.3903 -0.6799  1.1379
  139SAPE   C3215119   5.144   5.510   9.794 -0.2816  0.3415  0.1597
  139SAPE   H2X15120   5.060   5.448   9.756  0.8839 -0.4321 -1.2628
  139SAPE   H2Y15121   5.235   5.446   9.790 -0.3304  0.1161  1.9748
  139SAPE   C2315122   4.922   4.815  10.043  0.2946 -0.2072  0.1045
  139SAPE   H3R15123   4.864   4.850   9.954  0.5350  0.7934  0.3295
  139SAPE   H3S15124   4.848   4.808  10.125 -1.6516 -2.0900 -1.6814
  139SAPE   C2415125   4.974   4.674  10.014  0.0933  0.4346  0.8387
  139SAPE   H4R15126   4.896   4.599  10.038  0.5416 -0.2153  0.2787
  139SAPE   H4S15127   5.051   4.654  10.092  1.9529 -0.9414 -1.2378
  139SAPE   C2515128   5.042   4.670   9.881  0.2951  0.4514 -0.6498
  139SAPE   H5R15129   5.144   4.710   9.884  0.5573  0.2304 -3.5904
  139SAPE   C2615130   4.976   4.639   9.766 -0.7910  0.3320  0.3748
  139SAPE   H6R15131   5.028   4.646   9.670  0.3490  1.4878  1.0459
  139SAPE   C2715132   4.836   4.588   9.736  0.2162 -0.0432 -0.3226
  139SAPE   H7R15133   4.804   4.628   9.637  0.7424 -2.0842 -1.3764
  139SAPE   H7S15134   4.758   4.632   9.802  0.3456  0.5369 -0.5452
  139SAPE   C2815135   4.828   4.438   9.748 -0.3107  0.2575 -0.6061
  139SAPE   H8R15136   4.859   4.397   9.845  0.6861  1.4843 -0.3745
  139SAPE   C2915137   4.778   4.348   9.660 -0.0840 -0.0837 -0.1487
  139SAPE   H9R15138   4.779   4.241   9.684  0.9011  0.2002  1.1511
  139SAPE  C21015139   4.722   4.382   9.525 -0.7421 -0.5492  0.1354
  139SAPE  H10R15140   4.705   4.491   9.512 -2.3545 -0.7379  0.5173
  139SAPE  H10S15141   4.626   4.328   9.516 -1.5871  0.9910 -0.5670
  139SAPE  C21115142   4.816   4.322   9.425 -0.3933  0.0992 -0.5749
  139SAPE  H11R15143   4.812   4.213   9.418  2.6740 -0.1133 -0.1425
  139SAPE  C21215144   4.913   4.372   9.350 -0.2900 -0.0767 -0.0959
  139SAPE  H12R15145   4.959   4.303   9.278  0.8329  0.8771 -0.3172
  139SAPE  C21315146   4.946   4.515   9.345  0.3436 -0.4362  0.1146
  139SAPE  H13R15147   4.988   4.548   9.442 -0.7835 -1.1454  0.8688
  139SAPE  H13S15148   4.852   4.574   9.340 -1.0300 -2.5991 -0.9379
  139SAPE  C21415149   5.049   4.563   9.248  0.2496  0.3899  0.5586
  139SAPE  H14R15150   5.041   4.491   9.164 -1.6885 -1.0445  1.8802
  139SAPE  C21515151   5.132   4.669   9.246 -0.1972 -0.3441  0.5992
  139SAPE  H15R15152   5.212   4.682   9.172  1.5674 -4.8105  1.3605
  139SAPE  C21615153   5.127   4.765   9.363 -0.1223  0.4206  0.7398
  139SAPE  H16R15154   5.226   4.816   9.361  0.9020 -1.5024 -0.2271
  139SAPE  H16S15155   5.126   4.707   9.458 -2.4380  0.2864  0.6797
  139SAPE  C21715156   5.022   4.876   9.374  0.1576  0.9078 -0.0661
  139SAPE  H17R15157   4.922   4.839   9.406 -0.1622  1.2487 -0.6531
  139SAPE  H17S15158   5.005   4.928   9.277  4.4184 -0.4520 -1.7655
  139SAPE  C21815159   5.069   4.975   9.490 -0.0320  0.3135 -0.2999
  139SAPE  H18R15160   5.155   5.042   9.467  0.0919  1.6624  3.4011
  139SAPE  H18S15161   5.074   4.927   9.590  1.0354  1.0461  0.0184
  139SAPE  C21915162   4.962   5.086   9.504  0.3407 -0.0232 -0.9878
  139SAPE  H19R15163   4.862   5.037   9.510  0.0352  0.4751 -1.7661
  139SAPE  H19S15164   4.959   5.143   9.408  1.0707  0.3020 -0.8204
  139SAPE  C22015165   4.998   5.182   9.615  0.5063  0.0207 -0.5060
  139SAPE  H20R15166   5.090   5.237   9.583 -1.3120  2.0430 -2.6347
  139SAPE  H20S15167   5.012   5.135   9.714  0.4614 -2.3385 -1.5600
  139SAPE  H20T15168   4.928   5.268   9.624 -0.1835 -0.7655  2.3603
  139SAPE   C3315169   5.151   5.646   9.715 -0.1946 -0.0719  0.1836
  139SAPE   H3X15170   5.235   5.711   9.747 -0.4088  1.9418 -2.9057
  139SAPE   H3Y15171   5.059   5.708   9.725 -0.1996  0.0647 -0.6117
  139SAPE   C3415172   5.172   5.609   9.571  0.0451  0.8619 -0.0031
  139SAPE   H4X15173   5.107   5.524   9.537 -0.9239  1.7493 -0.4309
  139SAPE   H4Y15174   5.275   5.569   9.563 -0.0161  0.6676  0.1703
  139SAPE   C3515175   5.162   5.738   9.483 -0.8674 -0.0519  0.2964
  139SAPE   H5X15176   5.233   5.820   9.509 -0.1529 -0.0325 -1.5456
  139SAPE   H5Y15177   5.064   5.789   9.494  0.6060  2.7067  1.6723
  139SAPE   C3615178   5.178   5.711   9.338  0.2370  0.2584 -0.4398
  139SAPE   H6X15179   5.287   5.695   9.319  0.5496  0.5764  0.9524
  139SAPE   H6Y15180   5.138   5.804   9.294 -2.0809 -0.3865  0.1981
  139SAPE   C3715181   5.094   5.593   9.277  0.3969 -0.5101  0.6035
  139SAPE   H7X15182   4.987   5.613   9.296  0.2096 -2.7110  2.2105
  139SAPE   H7Y15183   5.105   5.488   9.311  0.1909 -0.3388  1.2091
  139SAPE   C3815184   5.136   5.598   9.123  0.0091  0.1123 -0.5119
  139SAPE   H8X15185   5.238   5.555   9.119  0.0172 -0.0008  0.5014
  139SAPE   H8Y15186   5.138   5.701   9.083 -0.6589 -0.2742 -1.5915
  139SAPE   C3915187   5.036   5.527   9.028 -0.2015 -0.4046  0.2388
  139SAPE   H9X15188   4.933   5.565   9.042 -0.9104 -2.0604 -0.2113
  139SAPE   H9Y15189   5.045   5.417   9.041 -0.1182 -0.2892  1.2059
  139SAPE  C31015190   5.079   5.572   8.884  0.2642  0.5531  0.5930
  139SAPE  H10X15191   5.084   5.681   8.865  0.6232  0.5522  0.6728
  139SAPE  H10Y15192   5.003   5.538   8.811  1.1683  0.9554 -0.5679
  139SAPE  C31115193   5.208   5.511   8.833 -0.1776  0.5515  0.0519
  139SAPE  H11X15194   5.200   5.402   8.814 -0.2471  0.4013  0.9258
  139SAPE  H11Y15195   5.286   5.531   8.909  0.6416 -0.0066 -0.6245
  139SAPE  C31215196   5.272   5.585   8.720 -0.7215 -0.1332  0.2409
  139SAPE  H12X15197   5.378   5.555   8.718 -1.2637 -2.4345  1.9303
  139SAPE  H12Y15198   5.275   5.693   8.748  1.9616 -0.1433  0.2056
  139SAPE  C31315199   5.197   5.575   8.586  0.1011  0.2354  0.5563
  139SAPE  H13X15200   5.088   5.597   8.590  0.0812  0.7292 -1.5046
  139SAPE  H13Y15201   5.193   5.467   8.559 -2.7639  0.8166 -1.9925
  139SAPE  C31415202   5.254   5.666   8.479 -0.3477  0.4583 -0.0733
  139SAPE  H14X15203   5.253   5.766   8.528  0.9465  0.2562  0.3736
  139SAPE  H14Y15204   5.185   5.662   8.391 -0.5613 -2.0066  0.1377
  139SAPE  C31515205   5.402   5.647   8.439  0.4390  0.8636 -0.1895
  139SAPE  H15X15206   5.412   5.549   8.388  3.0097  0.4496  0.9526
  139SAPE  H15Y15207   5.472   5.623   8.521  4.0485  0.0939 -3.2242
  139SAPE  C31615208   5.457   5.757   8.354 -0.3146  0.0585 -0.0068
  139SAPE  H16X15209   5.389   5.770   8.267 -2.8086  1.1899  1.9570
  139SAPE  H16Y15210   5.441   5.855   8.404 -1.4841  0.1636 -0.5577
  139SAPE  C31715211   5.610   5.742   8.317  0.3110  0.5531  0.0617
  139SAPE  H17X15212   5.608   5.778   8.212 -2.5612 -1.6721 -0.7462
  139SAPE  H17Y15213   5.629   5.633   8.326 -0.9492  0.4052  1.1332
  139SAPE  C31815214   5.697   5.819   8.416  0.2338  0.3344 -0.2013
  139SAPE  H18X15215   5.805   5.811   8.389  0.2614 -1.0795  0.2681
  139SAPE  H18Y15216   5.681   5.770   8.514  0.4911  0.4307 -0.1089
  139SAPE  H18Z15217   5.674   5.928   8.423 -3.7676 -0.4410  1.7955
  140SAPE     N15218   5.328   2.211  10.989  0.1489  0.1948  0.3333
  140SAPE   HN115219   5.294   2.291  10.932  2.8338  2.7874  2.0713
  140SAPE   HN215220   5.251   2.163  11.040  0.9901 -0.3441  1.1319
  140SAPE   HN315221   5.401   2.237  11.058  1.5203  1.1976 -1.4098
  140SAPE   C1215222   5.400   2.116  10.894  0.3311  0.1278 -1.0860
  140SAPE  H12A15223   5.483   2.175  10.850  1.4825  0.2786  1.1302
  140SAPE  H12B15224   5.324   2.082  10.821 -1.6336  0.2100  0.8181
  140SAPE   C1115225   5.462   1.995  10.980  0.2464 -0.3594 -0.3530
  140SAPE  H11A15226   5.373   1.930  10.989 -1.3713  1.8501  0.3958
  140SAPE  H11B15227   5.497   2.029  11.080 -1.2690  0.5326 -0.0949
  140SAPE     P15228   5.711   1.939  10.906 -0.2062 -0.6604 -0.0847
  140SAPE   O1315229   5.746   2.084  10.915  0.6372  0.3359 -0.2306
  140SAPE   O1415230   5.763   1.850  11.012  0.2049  0.1097 -0.3788
  140SAPE   O1215231   5.556   1.931  10.897 -0.4147  0.2300  0.6780
  140SAPE   O1115232   5.752   1.878  10.766  0.7184  0.3135  0.2873
  140SAPE    C115233   5.743   1.963  10.652 -0.6053  0.6904  0.2874
  140SAPE    HA15234   5.748   2.073  10.669  0.4795  0.8979 -1.1375
  140SAPE    HB15235   5.820   1.926  10.581 -0.8334  1.4236 -0.3593
  140SAPE    C215236   5.614   1.943  10.575 -0.0646  1.0871  0.0442
  140SAPE    HS15237   5.539   1.949  10.657  2.0974 -2.5140  2.6204
  140SAPE   O2115238   5.611   1.819  10.513 -0.3224 -0.0131 -0.2354
  140SAPE   C2115239   5.499   1.769  10.481  0.3185  0.2950 -0.2797
  140SAPE   O2215240   5.385   1.819  10.493 -0.0275 -0.0203 -0.1242
  140SAPE   C2215241   5.537   1.637  10.427  0.2449  0.2015  0.1567
  140SAPE   H2R15242   5.627   1.600  10.480  0.1878  0.8548  0.7258
  140SAPE   H2S15243   5.455   1.565  10.447  0.6335 -0.4536 -0.5506
  140SAPE    C315244   5.599   2.056  10.467 -0.3512 -0.3184  0.7410
  140SAPE    HX15245   5.619   2.154  10.515  3.2649 -1.6452  2.2623
  140SAPE    HY15246   5.496   2.053  10.425  1.2157 -1.1666 -3.6126
  140SAPE   O3115247   5.694   2.051  10.360 -0.7404  0.4830 -0.2188
  140SAPE   C3115248   5.654   2.010  10.239  0.2349 -0.7364 -0.9756
  140SAPE   O3215249   5.537   1.996  10.206 -0.0498 -0.4325 -0.8291
  140SAPE   C3215250   5.772   1.996  10.142 -0.2892 -0.5507  0.7395
  140SAPE   H2X15251   5.808   1.891  10.153 -2.1496 -1.1991  0.8857
  140SAPE   H2Y15252   5.855   2.068  10.159 -0.8992  0.8497 -1.6806
  140SAPE   C2315253   5.572   1.636  10.280 -0.3713  0.1512  0.2074
  140SAPE   H3R15254   5.613   1.534  10.263 -1.3545 -0.1286 -0.6546
  140SAPE   H3S15255   5.658   1.706  10.273 -0.9236  0.9788  1.4398
  140SAPE   C2415256   5.455   1.658  10.178 -0.2400  0.5073 -0.7663
  140SAPE   H4R15257   5.394   1.748  10.199  0.6864  1.1936 -0.9729
  140SAPE   H4S15258   5.388   1.570  10.184 -1.3448  1.3375 -0.6877
  140SAPE   C2515259   5.541   1.680  10.053 -0.1299 -0.0337  0.0635
  140SAPE   H5R15260   5.622   1.754  10.057  0.6798 -0.7807 -1.4686
  140SAPE   C2615261   5.507   1.632   9.931  0.2481  0.1613  0.6212
  140SAPE   H6R15262   5.573   1.651   9.846 -1.7433  1.7134 -0.7004
  140SAPE   C2715263   5.387   1.538   9.903 -0.2449 -0.5022 -0.0110
  140SAPE   H7R15264   5.319   1.558   9.990 -0.1331  0.7135 -0.1937
  140SAPE   H7S15265   5.411   1.429   9.898 -0.8678 -0.5936 -1.7985
  140SAPE   C2815266   5.299   1.584   9.781 -0.3187  1.0168 -0.1034
  140SAPE   H8R15267   5.201   1.629   9.798 -0.2190  1.3102 -0.2947
  140SAPE   C2915268   5.344   1.552   9.657 -0.2614  0.1218 -0.3246
  140SAPE   H9R15269   5.289   1.585   9.568  0.4001 -0.2026 -0.8676
  140SAPE  C21015270   5.473   1.478   9.625  0.1842  0.1512  0.1244
  140SAPE  H10R15271   5.520   1.424   9.710  0.7750 -1.0102 -0.9010
  140SAPE  H10S15272   5.545   1.553   9.586 -0.1897 -0.5100 -1.9787
  140SAPE  C21115273   5.446   1.375   9.512  0.1811  0.1978  0.1304
  140SAPE  H11R15274   5.352   1.378   9.455  1.1355  0.8505 -1.4839
  140SAPE  C21215275   5.523   1.278   9.465  0.1019  0.2691 -0.0465
  140SAPE  H12R15276   5.481   1.194   9.408  1.4755  0.4281 -1.3482
  140SAPE  C21315277   5.666   1.256   9.510 -0.5716 -0.1903 -0.2832
  140SAPE  H13R15278   5.706   1.341   9.569  0.8397  1.3385 -3.2238
  140SAPE  H13S15279   5.731   1.262   9.419  0.7335 -4.6435  0.0996
  140SAPE  C21415280   5.684   1.124   9.580  0.3700  0.2876  0.2648
  140SAPE  H14R15281   5.611   1.105   9.660 -0.1023  0.4982 -0.1133
  140SAPE  C21515282   5.786   1.032   9.561 -0.0657 -0.1165  0.1316
  140SAPE  H15R15283   5.774   0.933   9.607 -2.1414  0.7809  1.6965
  140SAPE  C21615284   5.897   1.046   9.457  0.0659  0.4822 -0.2263
  140SAPE  H16R15285   5.973   0.969   9.484 -1.6991 -2.2220 -2.4768
  140SAPE  H16S15286   5.938   1.148   9.446 -3.4213  2.1107  0.7182
  140SAPE  C21715287   5.854   1.001   9.314  0.0812 -0.6568 -0.3333
  140SAPE  H17R15288   5.930   1.034   9.239 -0.0655  1.9596  0.5700
  140SAPE  H17S15289   5.773   1.071   9.287  1.7488  2.4683  2.0148
  140SAPE  C21815290   5.822   0.852   9.288  0.3120 -0.6084 -0.2449
  140SAPE  H18R15291   5.756   0.813   9.368  0.1971 -0.4840 -0.2783
  140SAPE  H18S15292   5.920   0.800   9.295  0.7418  0.1349 -0.6085
  140SAPE  C21915293   5.754   0.834   9.149 -0.2354  0.9258  0.7810
  140SAPE  H19R15294   5.656   0.887   9.151 -1.3817 -1.1097  0.7111
  140SAPE  H19S15295   5.738   0.728   9.123  1.1011  1.4093 -2.5287
  140SAPE  C22015296   5.832   0.899   9.030 -0.2993  0.1515 -0.3034
  140SAPE  H20R15297   5.762   0.915   8.945 -0.1451  0.3850 -0.3869
  140SAPE  H20S15298   5.918   0.832   9.007  0.7685  1.0172  1.0116
  140SAPE  H20T15299   5.867   1.003   9.051  2.3033 -0.7177 -0.0201
  140SAPE   C3315300   5.737   2.015   9.999  0.5709  0.9235 -0.3339
  140SAPE   H3X15301   5.690   2.115   9.987 -1.2244  0.1836  0.2627
  140SAPE   H3Y15302   5.659   1.940   9.973  0.3754  0.0846  2.4509
  140SAPE   C3415303   5.844   1.971   9.899  0.1273 -0.0408 -0.2673
  140SAPE   H4X15304   5.880   1.869   9.923  0.8908  0.5711  1.3521
  140SAPE   H4Y15305   5.929   2.038   9.925 -0.5065  0.2547  1.1232
  140SAPE   C3515306   5.824   1.996   9.749  0.4048  0.2844 -0.6548
  140SAPE   H5X15307   5.909   1.952   9.693 -0.3956 -1.3884 -0.6203
  140SAPE   H5Y15308   5.823   2.105   9.730  0.0586  0.3653 -0.2000
  140SAPE   C3615309   5.706   1.909   9.698 -0.6212 -0.4406 -0.8071
  140SAPE   H6X15310   5.610   1.938   9.746 -0.9157  0.7138 -2.0383
  140SAPE   H6Y15311   5.738   1.809   9.736  2.3686  0.8626  0.4667
  140SAPE   C3715312   5.687   1.913   9.545 -0.2767  0.5915 -0.6554
  140SAPE   H7X15313   5.593   1.861   9.516  0.7714 -2.6876  1.3226
  140SAPE   H7Y15314   5.776   1.858   9.508  0.9259  0.6376  1.9193
  140SAPE   C3815315   5.676   2.054   9.486  0.0200  0.1333 -0.0576
  140SAPE   H8X15316   5.758   2.111   9.537  1.2179  0.1478 -1.9084
  140SAPE   H8Y15317   5.582   2.101   9.520  0.3762  1.7965 -1.2356
  140SAPE   C3915318   5.685   2.048   9.329 -0.0195 -0.3963  0.3072
  140SAPE   H9X15319   5.677   2.156   9.309  1.0500  0.2693  2.9768
  140SAPE   H9Y15320   5.592   2.013   9.279  0.0486  1.6570 -1.3709
  140SAPE  C31015321   5.814   2.015   9.248  0.0528  0.0507 -0.4407
  140SAPE  H10X15322   5.841   1.907   9.252 -0.7776 -0.1292  1.4728
  140SAPE  H10Y15323   5.896   2.074   9.293  0.4496  0.4116 -1.6028
  140SAPE  C31115324   5.807   2.078   9.107  0.1723  0.6217  0.8290
  140SAPE  H11X15325   5.779   2.186   9.108  1.3069  1.0204 -1.7887
  140SAPE  H11Y15326   5.729   2.017   9.056 -0.1376  1.3865  0.3549
  140SAPE  C31215327   5.941   2.056   9.034 -0.3003  0.1246  0.2256
  140SAPE  H12X15328   5.972   1.949   9.034  2.6296  0.8835  1.3898
  140SAPE  H12Y15329   6.019   2.110   9.092  0.5418  2.0699 -2.5498
  140SAPE  C31315330   5.943   2.106   8.890 -0.3392 -0.3851 -0.1875
  140SAPE  H13X15331   5.936   2.216   8.896 -0.3739 -0.4255  0.5842
  140SAPE  H13Y15332   5.854   2.070   8.832 -0.4003  1.8210 -1.5736
  140SAPE  C31415333   6.068   2.090   8.802  0.5240  0.1970 -0.0648
  140SAPE  H14X15334   6.086   1.983   8.775  2.1932  0.4249  0.0144
  140SAPE  H14Y15335   6.156   2.104   8.869  1.1018  0.9990 -0.9661
  140SAPE  C31515336   6.072   2.193   8.688 -0.2873  0.1146 -1.1604
  140SAPE  H15X15337   6.118   2.284   8.733 -2.7436  1.0167 -0.3329
  140SAPE  H15Y15338   5.970   2.212   8.649 -1.2839 -0.6974  0.9402
  140SAPE  C31615339   6.155   2.137   8.562  0.3894 -0.2212 -0.4279
  140SAPE  H16X15340   6.104   2.048   8.520  2.0585 -1.5353  0.2241
  140SAPE  H16Y15341   6.253   2.102   8.601  1.2965 -0.6543 -2.9046
  140SAPE  C31715342   6.182   2.232   8.436  0.3012 -0.3537 -0.1240
  140SAPE  H17X15343   6.241   2.319   8.472 -0.7007 -0.9512  3.3503
  140SAPE  H17Y15344   6.077   2.256   8.408 -0.1659 -1.5089  0.5507
  140SAPE  C31815345   6.259   2.162   8.319 -0.0626 -0.3290 -0.3351
  140SAPE  H18X15346   6.282   2.242   8.245  3.0357 -0.8898 -0.1376
  140SAPE  H18Y15347   6.207   2.073   8.280  0.9053 -1.0998  0.0789
  140SAPE  H18Z15348   6.355   2.128   8.363  0.6248 -0.4309 -1.8409
  141SAPE     N15349   1.018   1.487  11.051 -0.4465 -0.1974  0.4915
  141SAPE   HN115350   1.057   1.477  11.147  0.1276  0.5592  0.3533
  141SAPE   HN215351   0.935   1.548  11.063  1.0360  2.0123  0.2184
  141SAPE   HN315352   0.990   1.397  11.006  1.7716 -0.1015 -1.2965
  141SAPE   C1215353   1.101   1.576  10.964  0.2537 -0.1930  0.3815
  141SAPE  H12A15354   1.074   1.551  10.859  0.7677 -0.9816  0.4229
  141SAPE  H12B15355   1.206   1.546  10.984 -0.7627 -4.9987 -0.2982
  141SAPE   C1115356   1.079   1.725  11.004  0.1316 -0.4418 -0.6402
  141SAPE  H11A15357   1.133   1.779  10.923 -0.0791 -0.2286 -0.6390
  141SAPE  H11B15358   1.118   1.749  11.105  2.3327 -0.3317 -1.4603
  141SAPE     P15359   0.870   1.883  10.975 -0.0081 -0.3268  0.0067
  141SAPE   O1315360   0.749   1.878  11.059 -0.7367  0.1627 -0.5958
  141SAPE   O1415361   0.977   1.987  10.991 -0.0270 -0.5297 -0.7369
  141SAPE   O1215362   0.935   1.742  10.990 -0.4376 -0.3768  0.4014
  141SAPE   O1115363   0.823   1.890  10.829 -0.0046  0.5392  0.5586
  141SAPE    C115364   0.893   1.813  10.727 -0.3003  0.3840  0.1732
  141SAPE    HA15365   0.937   1.717  10.764  1.5921 -1.1822 -5.2654
  141SAPE    HB15366   0.821   1.785  10.648 -1.3695  0.6866  1.0104
  141SAPE    C215367   1.009   1.897  10.668  0.1586 -0.3360  0.1309
  141SAPE    HS15368   1.060   1.946  10.754 -0.5455 -0.5153  0.6663
  141SAPE   O2115369   0.950   1.988  10.574 -0.1281 -0.4290 -0.1185
  141SAPE   C2115370   1.030   2.077  10.533 -0.8745  0.5393  0.3840
  141SAPE   O2215371   1.150   2.086  10.564 -0.5497 -0.6314 -0.0536
  141SAPE   C2215372   0.958   2.170  10.438  0.2708 -0.0860 -0.2560
  141SAPE   H2R15373   0.863   2.193  10.490 -0.9115  2.1905 -3.1443
  141SAPE   H2S15374   1.018   2.261  10.419  0.2654  0.2640  1.3045
  141SAPE    C315375   1.117   1.794  10.599  0.2540 -0.1681 -0.1262
  141SAPE    HX15376   1.143   1.719  10.676  0.5674  0.4972  0.4285
  141SAPE    HY15377   1.207   1.847  10.560 -0.2013  0.1707 -0.7486
  141SAPE   O3115378   1.046   1.727  10.494 -0.4643 -0.1992  0.4442
  141SAPE   C3115379   1.077   1.761  10.366 -0.9651  0.5158 -0.0785
  141SAPE   O3215380   1.179   1.819  10.330  0.3383 -0.0169  0.0673
  141SAPE   C3215381   0.973   1.700  10.272  0.1249  0.4277  0.7894
  141SAPE   H2X15382   0.875   1.752  10.280  1.0775  2.1618  1.7766
  141SAPE   H2Y15383   0.975   1.590  10.290 -1.1419  0.1352 -0.6391
  141SAPE   C2315384   0.934   2.096  10.304  0.2894  0.4568  0.4887
  141SAPE   H3R15385   0.905   1.989  10.312 -1.8359  0.9444  0.0590
  141SAPE   H3S15386   1.021   2.103  10.236 -0.7041  0.5706 -0.8295
  141SAPE   C2415387   0.815   2.163  10.227 -0.2128  0.2583 -0.3744
  141SAPE   H4R15388   0.729   2.170  10.298 -1.5078 -0.0918 -1.8445
  141SAPE   H4S15389   0.767   2.108  10.144  0.2580  0.0462 -0.5080
  141SAPE   C2515390   0.862   2.294  10.182 -0.3094  0.1011  0.1792
  141SAPE   H5R15391   0.845   2.378  10.252 -1.5160 -0.5442  0.6975
  141SAPE   C2615392   0.927   2.325  10.069 -0.0612  0.0847  0.2295
  141SAPE   H6R15393   0.945   2.432  10.051  0.9415  0.0602  0.9805
  141SAPE   C2715394   0.983   2.234   9.960  0.4062 -0.6942 -0.2713
  141SAPE   H7R15395   0.945   2.129   9.963  0.0164 -0.5396  0.4674
  141SAPE   H7S15396   1.093   2.216   9.956  0.0894 -2.7016 -2.1811
  141SAPE   C2815397   0.947   2.298   9.826 -0.0051 -0.3762  0.2942
  141SAPE   H8R15398   0.972   2.405   9.820 -0.2378 -0.2764  1.0375
  141SAPE   C2915399   0.896   2.249   9.716  0.1510 -0.6003 -0.0751
  141SAPE   H9R15400   0.875   2.317   9.633 -0.8603 -0.0351  0.6208
  141SAPE  C21015401   0.844   2.106   9.702  0.2027 -0.0530  0.1642
  141SAPE  H10R15402   0.860   2.038   9.789  0.5194 -2.0784 -1.4135
  141SAPE  H10S15403   0.914   2.063   9.627  0.4989  0.9778 -0.1627
  141SAPE  C21115404   0.705   2.097   9.658  0.1338 -0.4554  0.5308
  141SAPE  H11R15405   0.642   2.117   9.746  0.8274  0.0934  0.9148
  141SAPE  C21215406   0.651   2.079   9.536 -0.3247  0.5001 -0.8604
  141SAPE  H12R15407   0.542   2.087   9.528 -0.9218  0.7169  4.0582
  141SAPE  C21315408   0.718   2.054   9.404 -0.6110 -0.1257  0.1567
  141SAPE  H13R15409   0.720   1.943   9.396 -0.0247 -0.1705  0.7878
  141SAPE  H13S15410   0.824   2.088   9.406 -1.0874  1.6799 -1.5705
  141SAPE  C21415411   0.648   2.115   9.285  0.3565  0.3447 -0.9351
  141SAPE  H14R15412   0.686   2.214   9.254  0.6907  0.4165 -0.3100
  141SAPE  C21515413   0.539   2.071   9.221  0.5780 -0.0878 -0.1358
  141SAPE  H15R15414   0.501   2.132   9.138 -0.7527  2.5874  2.2603
  141SAPE  C21615415   0.471   1.939   9.260  0.3362  0.1754  0.3298
  141SAPE  H16R15416   0.454   1.939   9.369  1.2691 -1.2430  0.5047
  141SAPE  H16S15417   0.533   1.849   9.242  2.4069  1.6643 -0.3964
  141SAPE  C21715418   0.333   1.916   9.188 -0.5413  0.0298  0.7645
  141SAPE  H17R15419   0.319   1.806   9.185  0.2463 -0.0780  0.9122
  141SAPE  H17S15420   0.340   1.949   9.082  3.7720 -0.3352  0.7738
  141SAPE  C21815421   0.213   1.967   9.256  0.1251 -0.3923 -0.4429
  141SAPE  H18R15422   0.240   2.066   9.299 -0.1321 -0.8348  0.7761
  141SAPE  H18S15423   0.208   1.914   9.353  0.3280  0.5179  0.0809
  141SAPE  C21915424   0.083   1.967   9.190  0.1170 -0.2073  0.3158
  141SAPE  H19R15425   0.049   1.862   9.191 -0.5507  0.0032  0.0056
  141SAPE  H19S15426   0.086   2.008   9.087  0.8842 -1.5846 -0.2323
  141SAPE  C22015427  -0.014   2.055   9.273  0.4050  0.3229  0.4329
  141SAPE  H20R15428   0.027   2.158   9.271  1.1916  0.0081 -0.9562
  141SAPE  H20S15429  -0.029   2.030   9.380 -1.3599 -0.7162 -0.0171
  141SAPE  H20T15430  -0.115   2.053   9.227  0.8750 -1.0186 -0.6442
  141SAPE   C3315431   1.012   1.727  10.125 -0.5803  0.4016  0.4719
  141SAPE   H3X15432   1.098   1.660  10.106 -0.3091  0.0151  2.7342
  141SAPE   H3Y15433   1.037   1.835  10.112 -2.3008  0.8886  0.8774
  141SAPE   C3415434   0.904   1.688  10.022 -0.1615 -0.5769  0.2445
  141SAPE   H4X15435   0.814   1.745  10.054  0.2987  0.0261  0.4724
  141SAPE   H4Y15436   0.871   1.582  10.029  0.6797 -0.9307 -0.8337
  141SAPE   C3515437   0.951   1.728   9.881  0.0100 -0.7235 -0.3038
  141SAPE   H5X15438   1.043   1.667   9.868 -0.2163 -1.4150  1.0485
  141SAPE   H5Y15439   0.969   1.836   9.867  0.5695 -0.7793 -0.0238
  141SAPE   C3615440   0.847   1.680   9.770 -0.2128 -0.9971 -0.3303
  141SAPE   H6X15441   0.754   1.739   9.781 -1.6003 -3.2963  1.2021
  141SAPE   H6Y15442   0.834   1.570   9.773 -1.2753 -0.9654 -2.3361
  141SAPE   C3715443   0.905   1.710   9.632  0.0673 -0.2949 -0.4437
  141SAPE   H7X15444   1.009   1.672   9.620  1.0736  1.7708  1.0891
  141SAPE   H7Y15445   0.914   1.820   9.619 -0.0999 -0.0944  0.9491
  141SAPE   C3815446   0.815   1.651   9.524  0.4388  0.3318 -0.3529
  141SAPE   H8X15447   0.717   1.702   9.522 -0.9365 -2.1639 -0.0884
  141SAPE   H8Y15448   0.796   1.542   9.532 -2.8717  0.9419  1.9813
  141SAPE   C3915449   0.866   1.682   9.384  0.2261 -0.1970  0.1669
  141SAPE   H9X15450   0.976   1.673   9.389  0.1412 -0.8827  4.1825
  141SAPE   H9Y15451   0.844   1.785   9.350 -0.1906 -0.1775  0.4803
  141SAPE  C31015452   0.820   1.570   9.283  0.3635 -0.7257  0.2332
  141SAPE  H10X15453   0.709   1.565   9.289  0.3016 -0.3446 -0.5384
  141SAPE  H10Y15454   0.869   1.486   9.337  3.2643  1.1078  0.6713
  141SAPE  C31115455   0.879   1.573   9.137  0.1938  0.0651 -0.3327
  141SAPE  H11X15456   0.871   1.470   9.094 -0.1531 -0.0283 -0.0472
  141SAPE  H11Y15457   0.987   1.595   9.151  0.1686 -1.0811  2.2527
  141SAPE  C31215458   0.813   1.673   9.049  0.6929  0.6260 -0.2845
  141SAPE  H12X15459   0.791   1.761   9.113  1.6300 -0.3702  1.4969
  141SAPE  H12Y15460   0.715   1.638   9.012  0.6018 -1.1815  1.5021
  141SAPE  C31315461   0.907   1.718   8.932 -0.3071 -0.8534  0.2866
  141SAPE  H13X15462   1.010   1.742   8.967  0.0653 -2.4729  0.3550
  141SAPE  H13Y15463   0.891   1.809   8.870  5.6237  1.0320  0.8720
  141SAPE  C31415464   0.918   1.602   8.822  0.1516 -0.0399  0.0798
  141SAPE  H14X15465   0.826   1.565   8.772 -0.3377  1.1026  0.1134
  141SAPE  H14Y15466   0.949   1.505   8.866 -3.1360 -0.3871  1.9834
  141SAPE  C31515467   1.012   1.646   8.706 -0.2578 -0.5611  0.3782
  141SAPE  H15X15468   0.943   1.694   8.634  1.1143 -0.2790 -0.7718
  141SAPE  H15Y15469   1.044   1.549   8.661 -1.3430 -0.8462  0.1861
  141SAPE  C31615470   1.133   1.734   8.739 -0.2034  0.5848  0.4225
  141SAPE  H16X15471   1.198   1.674   8.806  0.7198 -0.8355 -1.6334
  141SAPE  H16Y15472   1.089   1.831   8.772 -0.4176  1.2131 -1.5690
  141SAPE  C31715473   1.211   1.761   8.610  0.5242 -0.6719  0.2672
  141SAPE  H17X15474   1.139   1.811   8.543 -1.7073  0.7541  3.4382
  141SAPE  H17Y15475   1.257   1.672   8.565  4.7690  1.0147  0.8048
  141SAPE  C31815476   1.327   1.860   8.618  0.2737  0.2339 -0.9203
  141SAPE  H18X15477   1.366   1.875   8.515  1.6991 -1.7652 -0.7460
  141SAPE  H18Y15478   1.415   1.822   8.674 -0.1682 -0.0594 -0.4224
  141SAPE  H18Z15479   1.292   1.955   8.662  1.1185 -0.2151  0.8148
  142SAPE     N15480   1.962   2.015  11.262  0.1968 -0.0220  0.1352
  142SAPE   HN115481   1.861   2.039  11.263 -0.1539 -1.3104 -0.7904
  142SAPE   HN215482   1.972   1.916  11.293  1.4542 -0.1313 -0.5805
  142SAPE   HN315483   1.989   2.084  11.335  0.3466  0.2810 -0.2051
  142SAPE   C1215484   2.024   2.044  11.128 -0.8074 -0.3293  0.4816
  142SAPE  H12A15485   2.134   2.031  11.140 -0.6476  1.3124  1.0532
  142SAPE  H12B15486   2.000   2.149  11.102 -0.3987  0.0833  1.7097
  142SAPE   C1115487   1.972   1.953  11.010 -0.5333 -0.4057 -0.2330
  142SAPE  H11A15488   2.014   1.999  10.918 -1.9769  0.9879 -0.2433
  142SAPE  H11B15489   1.863   1.961  10.989 -0.1994 -1.1781 -2.5616
  142SAPE     P15490   2.141   1.750  10.978 -0.0239 -0.0166  0.3943
  142SAPE   O1315491   2.256   1.846  10.981 -0.4262 -0.5389 -0.0595
  142SAPE   O1415492   2.158   1.626  11.052  0.6824 -0.1630  0.3148
  142SAPE   O1215493   2.005   1.812  11.032 -0.1001  0.4287 -0.5378
  142SAPE   O1115494   2.108   1.698  10.834  0.3245  0.0920  0.1192
  142SAPE    C115495   2.050   1.786  10.733  0.0172 -0.1979  0.3140
  142SAPE    HA15496   1.945   1.812  10.757 -0.2314 -1.0796  0.1882
  142SAPE    HB15497   2.102   1.884  10.744  0.3830 -0.1924 -1.2120
  142SAPE    C215498   2.071   1.747  10.584  0.3253  0.3295 -0.1167
  142SAPE    HS15499   1.987   1.678  10.559 -0.2155  1.1476 -0.5849
  142SAPE   O2115500   2.199   1.681  10.578  0.2071  0.2612  0.0027
  142SAPE   C2115501   2.200   1.588  10.478  0.1836 -0.2542  0.2550
  142SAPE   O2215502   2.106   1.562  10.412  0.5561 -0.5253  0.6414
  142SAPE   C2215503   2.344   1.536  10.452  0.4662  0.2520  0.3351
  142SAPE   H2R15504   2.403   1.630  10.458 -1.7141  1.7841 -0.7167
  142SAPE   H2S15505   2.368   1.467  10.535 -1.2378  0.9643  1.4910
  142SAPE    C315506   2.061   1.870  10.487  0.8205 -0.1978 -0.7095
  142SAPE    HX15507   2.140   1.940  10.521  0.9272 -1.0905  1.0242
  142SAPE    HY15508   1.968   1.926  10.509  0.1338 -1.9875  1.3042
  142SAPE   O3115509   2.059   1.834  10.351 -0.6769  0.0090 -0.1801
  142SAPE   C3115510   1.938   1.813  10.295  0.7429  0.0299  0.3335
  142SAPE   O3215511   1.833   1.815  10.351  0.2110  0.4402 -0.4514
  142SAPE   C3215512   1.949   1.806  10.144  0.7139 -0.2697 -0.1573
  142SAPE   H2X15513   2.023   1.725  10.124  1.1402  0.0924 -0.0520
  142SAPE   H2Y15514   1.992   1.905  10.119 -0.8668  1.1903  2.4033
  142SAPE   C2315515   2.354   1.456  10.315  0.6864 -0.0711 -1.1645
  142SAPE   H3R15516   2.320   1.514  10.226  2.1862  0.5941 -1.3490
  142SAPE   H3S15517   2.287   1.368  10.319  2.5246 -1.5844 -1.6748
  142SAPE   C2415518   2.493   1.407  10.275 -0.1056  0.6846 -0.0030
  142SAPE   H4R15519   2.531   1.332  10.348 -3.1195  0.0273  1.0383
  142SAPE   H4S15520   2.556   1.498  10.278  0.3694  0.3319  1.4094
  142SAPE   C2515521   2.492   1.343  10.140 -0.7102  0.0037  0.0530
  142SAPE   H5R15522   2.394   1.298  10.117  0.6112 -2.9478 -0.2793
  142SAPE   C2615523   2.592   1.339  10.048  0.1950 -0.2233  0.2416
  142SAPE   H6R15524   2.575   1.287   9.953 -0.3387 -0.9813  0.7459
  142SAPE   C2715525   2.731   1.398  10.049 -0.0885  0.5566 -0.6250
  142SAPE   H7R15526   2.802   1.317  10.020  1.8169  1.4650  1.2505
  142SAPE   H7S15527   2.754   1.435  10.151 -0.2493  0.3421 -0.5104
  142SAPE   C2815528   2.731   1.533   9.971  0.8299 -0.1823 -0.1332
  142SAPE   H8R15529   2.678   1.605  10.034 -1.5217 -3.1335  1.5411
  142SAPE   C2915530   2.788   1.550   9.849  0.2941 -0.2502  0.3790
  142SAPE   H9R15531   2.779   1.653   9.813  0.7955  0.1525  1.3901
  142SAPE  C21015532   2.851   1.445   9.756 -0.0062  0.1239  0.2445
  142SAPE  H10R15533   2.846   1.473   9.649  2.0928 -0.4332 -0.0472
  142SAPE  H10S15534   2.807   1.345   9.776 -0.1763  0.5709  2.3008
  142SAPE  C21115535   2.998   1.427   9.794  0.0020 -0.6905  0.0313
  142SAPE  H11R15536   3.015   1.390   9.897  3.6781  0.0349 -0.1770
  142SAPE  C21215537   3.103   1.453   9.725  0.5882 -0.0591 -0.5564
  142SAPE  H12R15538   3.199   1.434   9.775  0.5697  0.3735 -0.3509
  142SAPE  C21315539   3.110   1.506   9.583 -0.4092  0.4874 -0.7138
  142SAPE  H13R15540   3.148   1.609   9.601 -1.2075  0.3269  2.6228
  142SAPE  H13S15541   3.016   1.503   9.524 -1.0780 -0.9837  0.3650
  142SAPE  C21415542   3.226   1.433   9.529  0.2142 -0.2769  0.4808
  142SAPE  H14R15543   3.302   1.396   9.600  1.6489  2.4050  0.4600
  142SAPE  C21515544   3.253   1.412   9.393  0.6018 -0.0914 -0.3950
  142SAPE  H15R15545   3.347   1.360   9.368  0.6581 -0.2854  0.1970
  142SAPE  C21615546   3.180   1.460   9.267  0.0759  0.7854 -0.4666
  142SAPE  H16R15547   3.089   1.517   9.297 -1.3130 -1.9231  0.7808
  142SAPE  H16S15548   3.140   1.378   9.204  1.5229  0.7962 -1.4327
  142SAPE  C21715549   3.273   1.542   9.177 -0.0142 -1.0132 -0.4285
  142SAPE  H17R15550   3.318   1.466   9.110  0.6195  0.1172 -1.3161
  142SAPE  H17S15551   3.349   1.601   9.233 -1.0159 -2.0188  2.1955
  142SAPE  C21815552   3.200   1.652   9.094  0.0724 -0.7713 -0.3949
  142SAPE  H18R15553   3.109   1.602   9.053 -0.9645  1.2871 -0.7449
  142SAPE  H18S15554   3.259   1.677   9.003 -0.6599 -1.7268 -1.1672
  142SAPE  C21915555   3.169   1.772   9.186  0.1308 -0.2643  0.3782
  142SAPE  H19R15556   3.122   1.745   9.283  0.2709 -0.7854  0.3025
  142SAPE  H19S15557   3.087   1.829   9.137  0.9206  1.1244  0.6237
  142SAPE  C22015558   3.279   1.869   9.209  0.3602  0.4985  0.3338
  142SAPE  H20R15559   3.350   1.818   9.278 -0.3721  1.5451  1.9149
  142SAPE  H20S15560   3.240   1.957   9.264 -1.0420 -1.4856  2.7373
  142SAPE  H20T15561   3.325   1.898   9.112  1.1080  1.9634  1.0971
  142SAPE   C3315562   1.813   1.781  10.065  0.8088  0.2668  0.5341
  142SAPE   H3X15563   1.737   1.841  10.121  1.1823  0.4276  0.8739
  142SAPE   H3Y15564   1.781   1.675  10.067  2.6965 -0.3457 -0.0105
  142SAPE   C3415565   1.799   1.818   9.923  0.4024 -0.0456  0.2107
  142SAPE   H4X15566   1.829   1.924   9.911  2.6393 -0.7767 -1.1271
  142SAPE   H4Y15567   1.694   1.810   9.885  0.5512 -1.6841  0.0656
  142SAPE   C3515568   1.887   1.741   9.823  0.0572 -0.0789  0.3751
  142SAPE   H5X15569   1.875   1.630   9.820 -1.3280  0.0713 -1.2917
  142SAPE   H5Y15570   1.994   1.757   9.845  0.3669  0.7913 -1.5770
  142SAPE   C3615571   1.875   1.788   9.679  0.2955  0.0155  0.6425
  142SAPE   H6X15572   1.914   1.892   9.679  1.0222 -0.2340 -0.5091
  142SAPE   H6Y15573   1.768   1.789   9.650  0.6726 -1.1205 -0.8982
  142SAPE   C3715574   1.951   1.694   9.581  0.6669  0.1326 -0.3227
  142SAPE   H7X15575   1.920   1.588   9.589 -0.7681  0.6284  1.3156
  142SAPE   H7Y15576   2.060   1.699   9.601  0.8293 -2.4089 -0.1986
  142SAPE   C3815577   1.913   1.721   9.436 -0.5222  0.3440 -0.6212
  142SAPE   H8X15578   1.899   1.829   9.414 -1.3275  0.4104  0.1407
  142SAPE   H8Y15579   1.820   1.669   9.403 -0.5102 -0.9533  1.2296
  142SAPE   C3915580   2.020   1.664   9.339 -0.3432  0.2611 -0.2163
  142SAPE   H9X15581   2.023   1.556   9.363 -0.7256  0.4278  0.6341
  142SAPE   H9Y15582   2.119   1.702   9.373  1.0754 -1.2249 -2.4079
  142SAPE  C31015583   1.987   1.699   9.198  0.5545 -0.0488  0.0952
  142SAPE  H10X15584   2.079   1.676   9.139 -0.0070 -0.0465 -0.7966
  142SAPE  H10Y15585   1.965   1.807   9.185 -0.8756 -0.3608 -0.2530
  142SAPE  C31115586   1.867   1.626   9.128  0.4232 -0.4029  0.3158
  142SAPE  H11X15587   1.779   1.668   9.179 -0.4360  0.0344 -1.4376
  142SAPE  H11Y15588   1.877   1.516   9.136  2.1254 -0.1833  1.7543
  142SAPE  C31215589   1.875   1.663   8.978 -0.9962 -0.2162 -0.1465
  142SAPE  H12X15590   1.940   1.583   8.935  1.2357  0.9167  0.9257
  142SAPE  H12Y15591   1.921   1.764   8.972  0.2182 -0.7786 -0.7800
  142SAPE  C31315592   1.743   1.660   8.899  0.1453  0.3533 -0.0689
  142SAPE  H13X15593   1.774   1.678   8.794  2.2823 -0.6069  0.3316
  142SAPE  H13Y15594   1.670   1.734   8.937 -0.6942  1.2026 -3.0619
  142SAPE  C31415595   1.684   1.519   8.898 -0.2085 -1.0820 -0.5916
  142SAPE  H14X15596   1.666   1.483   9.002  3.6462 -1.3929  0.1076
  142SAPE  H14Y15597   1.770   1.457   8.866 -0.3593 -2.2596  1.0991
  142SAPE  C31515598   1.564   1.507   8.805  0.1507 -0.3481 -0.3216
  142SAPE  H15X15599   1.613   1.500   8.706  3.2756 -0.7221  1.1517
  142SAPE  H15Y15600   1.496   1.595   8.805  0.4379 -0.1187 -0.8410
  142SAPE  C31615601   1.483   1.385   8.838 -0.7952  0.0862  0.3296
  142SAPE  H16X15602   1.447   1.394   8.942 -1.6739 -0.4843  0.0851
  142SAPE  H16Y15603   1.548   1.294   8.835  1.7296  1.7870 -0.2973
  142SAPE  C31715604   1.358   1.380   8.743 -0.8976 -0.4961  0.2946
  142SAPE  H17X15605   1.280   1.451   8.779 -2.7397 -1.1978 -2.0255
  142SAPE  H17Y15606   1.315   1.281   8.770 -1.1649 -0.7641 -1.0324
  142SAPE  C31815607   1.360   1.393   8.588 -0.0796 -0.0741 -0.7405
  142SAPE  H18X15608   1.393   1.303   8.532 -0.6234 -0.2972 -0.7015
  142SAPE  H18Y15609   1.409   1.487   8.554  2.2427 -1.3320 -1.1178
  142SAPE  H18Z15610   1.253   1.394   8.561 -0.1422 -2.8230 -0.8530
  143SAPE     N15611   2.968   1.824  10.810 -0.3490  0.0785 -0.2797
  143SAPE   HN115612   2.880   1.778  10.844  0.9907 -0.6984  2.4174
  143SAPE   HN215613   2.995   1.909  10.862 -0.6422  0.4982 -0.8012
  143SAPE   HN315614   2.950   1.856  10.713  1.7095 -0.7940 -0.9908
  143SAPE   C1215615   3.092   1.734  10.799  0.0553  0.3462  0.5640
  143SAPE  H12A15616   3.060   1.639  10.752  1.0736  0.1759  0.2077
  143SAPE  H12B15617   3.107   1.705  10.905 -2.6406 -1.2768  0.6005
  143SAPE   C1115618   3.205   1.815  10.737 -0.2432  0.2796 -0.1070
  143SAPE  H11A15619   3.161   1.831  10.636  0.1780 -1.9829 -0.6979
  143SAPE  H11B15620   3.297   1.753  10.734 -0.3476 -0.2584  3.5089
  143SAPE     P15621   3.320   1.954  10.922 -0.0882  0.6026  0.0125
  143SAPE   O1315622   3.314   2.093  10.966 -0.1140 -0.2986  0.3452
  143SAPE   O1415623   3.282   1.857  11.021 -0.3214  0.7321  0.0368
  143SAPE   O1215624   3.226   1.941  10.802 -0.0522  0.1640  0.2715
  143SAPE   O1115625   3.464   1.925  10.868 -0.0238 -0.2479 -0.5694
  143SAPE    C115626   3.526   2.027  10.778 -0.1067  0.4691 -0.5746
  143SAPE    HA15627   3.514   2.130  10.819  0.5072  1.0650 -1.8511
  143SAPE    HB15628   3.635   2.011  10.772  0.2923  2.8887 -1.0144
  143SAPE    C215629   3.476   2.032  10.629  0.7717  0.4072  0.0515
  143SAPE    HS15630   3.366   2.045  10.637  0.8297  1.3950 -0.4685
  143SAPE   O2115631   3.517   1.912  10.564  0.0811  0.3087  0.0151
  143SAPE   C2115632   3.451   1.885  10.444 -0.6759 -0.0829 -0.1519
  143SAPE   O2215633   3.356   1.949  10.406 -0.3256  0.0265 -0.0216
  143SAPE   C2215634   3.514   1.771  10.365 -0.4273 -0.5962  0.7509
  143SAPE   H2R15635   3.442   1.687  10.370  0.0935 -1.0418  0.8702
  143SAPE   H2S15636   3.524   1.800  10.258 -1.8645 -1.4792  0.3445
  143SAPE    C315637   3.535   2.156  10.560 -0.3102  1.0078  0.2136
  143SAPE    HX15638   3.643   2.132  10.548 -0.4386  1.2676 -1.9019
  143SAPE    HY15639   3.527   2.237  10.635  0.4361  0.7459  0.5829
  143SAPE   O3115640   3.471   2.196  10.437 -0.3441  0.1654  0.8418
  143SAPE   C3115641   3.365   2.281  10.457  0.3172  0.6764  0.2009
  143SAPE   O3215642   3.312   2.307  10.563  0.3352 -0.3081  0.2124
  143SAPE   C3215643   3.308   2.313  10.324 -0.4292  0.0022 -0.3635
  143SAPE   H2X15644   3.198   2.295  10.326 -0.7228  1.6968  0.3919
  143SAPE   H2Y15645   3.362   2.249  10.251  0.9626  0.6631  0.0660
  143SAPE   C2315646   3.662   1.737  10.400  0.0570  0.8185 -0.7161
  143SAPE   H3R15647   3.663   1.706  10.506 -1.5790 -0.0566 -0.9282
  143SAPE   H3S15648   3.715   1.834  10.386  1.2321  0.3568  0.3753
  143SAPE   C2415649   3.732   1.634  10.306  0.0609 -0.5377 -0.7289
  143SAPE   H4R15650   3.842   1.638  10.320 -0.1038 -3.2583  2.6337
  143SAPE   H4S15651   3.726   1.669  10.201 -0.3540 -0.6571 -0.7461
  143SAPE   C2515652   3.697   1.485  10.321 -0.8340  0.2632  0.0448
  143SAPE   H5R15653   3.730   1.442  10.417  1.0193  0.2390 -0.5813
  143SAPE   C2615654   3.619   1.411  10.233 -0.2955  0.3997  0.0975
  143SAPE   H6R15655   3.586   1.310  10.261 -0.7951  0.7604  0.8497
  143SAPE   C2715656   3.549   1.463  10.111 -0.5383  0.3780 -0.3833
  143SAPE   H7R15657   3.527   1.572  10.113 -0.4294  0.4026 -0.5462
  143SAPE   H7S15658   3.449   1.414  10.105 -0.4954  0.2484 -0.0702
  143SAPE   C2815659   3.638   1.419   9.997  0.0787 -0.8735  0.3225
  143SAPE   H8R15660   3.718   1.490   9.973 -1.6652  0.8707 -0.6066
  143SAPE   C2915661   3.640   1.303   9.932 -0.3888 -0.6231 -0.2437
  143SAPE   H9R15662   3.719   1.288   9.857 -0.1941 -1.3219  0.0931
  143SAPE  C21015663   3.544   1.188   9.959 -0.2086 -0.2468  0.0237
  143SAPE  H10R15664   3.491   1.161   9.865 -1.0083  1.8835 -0.1955
  143SAPE  H10S15665   3.464   1.220  10.031 -1.4515 -1.4528 -0.7758
  143SAPE  C21115666   3.613   1.066  10.005  0.2873 -1.0592 -0.4740
  143SAPE  H11R15667   3.628   1.063  10.114 -0.9244 -3.4462 -0.2933
  143SAPE  C21215668   3.673   0.968   9.934  0.3505  0.5191  0.0340
  143SAPE  H12R15669   3.712   0.879   9.984  0.3716  1.7727  2.3561
  143SAPE  C21315670   3.687   0.961   9.781 -0.0413  0.9286  0.6948
  143SAPE  H13R15671   3.768   0.894   9.745 -1.0278  0.1999 -0.2461
  143SAPE  H13S15672   3.690   1.064   9.738 -4.3264  0.7860 -0.4527
  143SAPE  C21415673   3.563   0.890   9.709 -0.8173 -0.5506  0.1004
  143SAPE  H14R15674   3.513   0.806   9.758  0.1410 -0.9612  0.4029
  143SAPE  C21515675   3.532   0.915   9.585  0.4368  0.1216  0.6164
  143SAPE  H15R15676   3.444   0.861   9.548  1.3336 -0.7631 -0.2924
  143SAPE  C21615677   3.593   1.006   9.485 -0.1655  0.6116  0.6546
  143SAPE  H16R15678   3.671   0.962   9.419  1.8153  1.3572  2.3565
  143SAPE  H16S15679   3.653   1.081   9.542  2.3095 -0.8558  0.1427
  143SAPE  C21715680   3.495   1.080   9.404  0.1451 -0.0229  0.3315
  143SAPE  H17R15681   3.426   1.145   9.461 -1.8113 -0.4402 -1.4242
  143SAPE  H17S15682   3.429   1.005   9.353  0.7291 -0.1494 -0.2496
  143SAPE  C21815683   3.560   1.166   9.299  0.0021  0.8896  0.0504
  143SAPE  H18R15684   3.658   1.129   9.264 -0.4499 -0.4676  0.1146
  143SAPE  H18S15685   3.585   1.263   9.346 -0.9625  1.0264  0.3052
  143SAPE  C21915686   3.466   1.202   9.183 -0.0076 -0.1845 -0.4289
  143SAPE  H19R15687   3.500   1.298   9.139  0.9261 -0.3177 -0.0211
  143SAPE  H19S15688   3.364   1.215   9.223  0.0168 -1.0360 -0.0534
  143SAPE  C22015689   3.458   1.098   9.072 -0.1414 -0.7951 -0.0912
  143SAPE  H20R15690   3.471   0.996   9.115 -0.5573 -0.9216 -0.2563
  143SAPE  H20S15691   3.539   1.114   8.998 -1.8887  0.8395 -1.7767
  143SAPE  H20T15692   3.370   1.107   9.004 -0.6282 -3.4169  0.0598
  143SAPE   C3315693   3.330   2.461  10.286  0.4741 -0.5862  0.2814
  143SAPE   H3X15694   3.433   2.473  10.247  0.6700 -0.0323  0.9569
  143SAPE   H3Y15695   3.325   2.526  10.376 -2.0685  0.5586 -0.5716
  143SAPE   C3415696   3.222   2.518  10.190 -0.4916 -1.2157  0.3395
  143SAPE   H4X15697   3.245   2.485  10.086  0.4104 -0.9003  0.4314
  143SAPE   H4Y15698   3.230   2.628  10.179 -0.5670 -1.1502  0.9170
  143SAPE   C3515699   3.076   2.491  10.219  1.1278 -0.0741  0.3385
  143SAPE   H5X15700   3.038   2.508  10.322 -0.4692 -0.2074 -0.1959
  143SAPE   H5Y15701   3.063   2.383  10.199 -1.3516  0.2104  0.0481
  143SAPE   C3615702   2.977   2.563  10.120  0.6936 -0.6506  0.1743
  143SAPE   H6X15703   3.005   2.557  10.013 -0.6811  0.5538 -0.2894
  143SAPE   H6Y15704   2.984   2.672  10.142 -0.7195 -0.3276 -0.8146
  143SAPE   C3715705   2.827   2.518  10.142 -0.4936 -0.7028  0.9345
  143SAPE   H7X15706   2.752   2.597  10.122  2.2342  2.1331  1.1541
  143SAPE   H7Y15707   2.810   2.497  10.250  0.1971 -0.1927  1.1501
  143SAPE   C3815708   2.795   2.388  10.077  0.6133  0.2432 -0.0716
  143SAPE   H8X15709   2.877   2.314  10.085  0.6628  0.1413 -1.2823
  143SAPE   H8Y15710   2.780   2.412   9.970  1.2239 -3.2962 -1.0882
  143SAPE   C3915711   2.670   2.309  10.125  0.0364 -0.3229  0.3079
  143SAPE   H9X15712   2.601   2.381  10.176 -1.6966 -1.6681 -0.0558
  143SAPE   H9Y15713   2.694   2.231  10.200 -0.8466 -0.1834  0.7430
  143SAPE  C31015714   2.592   2.239  10.012  0.9219  0.5051 -0.6102
  143SAPE  H10X15715   2.567   2.319   9.939 -1.0032  0.0831 -0.4713
  143SAPE  H10Y15716   2.491   2.211  10.050  0.5962  1.8444 -0.4323
  143SAPE  C31115717   2.664   2.123   9.942  0.5459  0.5640  0.7740
  143SAPE  H11X15718   2.651   2.027   9.996 -0.8734  0.6751  0.6667
  143SAPE  H11Y15719   2.770   2.153   9.926  0.9336 -0.9534  0.3035
  143SAPE  C31215720   2.613   2.083   9.802  0.6941  0.3260 -0.5213
  143SAPE  H12X15721   2.610   2.172   9.736 -2.7611  0.4153 -0.4575
  143SAPE  H12Y15722   2.504   2.061   9.809  0.6644  0.6429  0.1137
  143SAPE  C31315723   2.684   1.961   9.748  0.4593  0.3170  0.5597
  143SAPE  H13X15724   2.695   1.879   9.822  1.2889  0.6351  0.7888
  143SAPE  H13Y15725   2.788   1.994   9.726  0.1695  1.4359  0.8038
  143SAPE  C31415726   2.612   1.907   9.617  0.0532  0.8416 -0.1550
  143SAPE  H14X15727   2.620   1.973   9.528  0.8301 -0.4315 -1.0730
  143SAPE  H14Y15728   2.505   1.893   9.642  0.0026 -0.4953 -0.9949
  143SAPE  C31515729   2.655   1.771   9.565 -0.2893  0.5711  0.2088
  143SAPE  H15X15730   2.586   1.751   9.480  0.8620  0.6842 -0.7783
  143SAPE  H15Y15731   2.632   1.697   9.645 -1.2593 -0.1212 -0.6772
  143SAPE  C31615732   2.799   1.755   9.523 -0.0335  0.6282  0.2856
  143SAPE  H16X15733   2.813   1.645   9.514  0.4535  0.5554  1.7301
  143SAPE  H16Y15734   2.862   1.785   9.610  0.8040  1.8973 -0.7236
  143SAPE  C31715735   2.835   1.840   9.391  0.3860  0.4564 -0.6623
  143SAPE  H17X15736   2.738   1.856   9.338 -0.0539  1.2610  0.3447
  143SAPE  H17Y15737   2.899   1.776   9.327  1.6768 -0.5836  1.5604
  143SAPE  C31815738   2.902   1.976   9.412 -0.4286  0.4894 -0.2937
  143SAPE  H18X15739   3.001   1.969   9.463 -0.0774  0.0686 -1.0175
  143SAPE  H18Y15740   2.839   2.044   9.472  2.0743  1.2799  1.6251
  143SAPE  H18Z15741   2.915   2.032   9.317 -0.8218 -0.2648 -0.8012
  144SAPE     N15742   5.924   6.017  10.859  0.4842  0.9083  0.4877
  144SAPE   HN115743   5.839   5.977  10.905  0.2055  1.1460  0.1861
  144SAPE   HN215744   6.002   6.004  10.927  1.2754  0.0097 -0.5621
  144SAPE   HN315745   5.903   6.115  10.831  0.9043  0.8828  0.0830
  144SAPE   C1215746   5.949   5.942  10.731 -0.2075  0.4538 -0.2139
  144SAPE  H12A15747   5.867   5.976  10.663 -1.7906 -1.1710  0.7790
  144SAPE  H12B15748   5.951   5.832  10.750  0.8877  0.3064 -1.0947
  144SAPE   C1115749   6.080   5.966  10.669  0.2777  0.1109 -0.8416
  144SAPE  H11A15750   6.095   6.075  10.652 -2.8609  0.7365 -0.1402
  144SAPE  H11B15751   6.085   5.924  10.566 -1.2863  3.2399 -2.3574
  144SAPE     P15752   6.316   5.987  10.777  0.6312 -0.1014 -0.0680
  144SAPE   O1315753   6.277   6.118  10.841 -0.3763 -0.2166 -0.0230
  144SAPE   O1415754   6.403   5.903  10.865 -0.0198 -0.1032  0.2836
  144SAPE   O1215755   6.184   5.904  10.743 -0.7790  0.0038  0.1519
  144SAPE   O1115756   6.399   6.007  10.645  0.4970  0.1158  0.0797
  144SAPE    C115757   6.407   6.129  10.581  0.3387 -0.4212  0.3233
  144SAPE    HA15758   6.305   6.166  10.559  0.1039 -1.7370 -0.9322
  144SAPE    HB15759   6.466   6.200  10.643 -1.2814  1.3211 -0.0467
  144SAPE    C215760   6.479   6.116  10.443  0.6383  0.3336 -0.3105
  144SAPE    HS15761   6.455   6.200  10.374  2.7910  1.6624  0.4312
  144SAPE   O2115762   6.444   5.986  10.385 -0.6845 -0.2782 -0.3120
  144SAPE   C2115763   6.323   5.965  10.357  0.4494  0.4065  0.0874
  144SAPE   O2215764   6.230   6.042  10.353  0.3357 -0.0407 -0.5066
  144SAPE   C2215765   6.313   5.817  10.314 -0.8371  0.8598 -0.5420
  144SAPE   H2R15766   6.413   5.792  10.273  0.4057  1.9627  1.6603
  144SAPE   H2S15767   6.301   5.757  10.407  3.2331  0.8142  0.1032
  144SAPE    C315768   6.630   6.127  10.468 -0.3191  0.2451 -0.6321
  144SAPE    HX15769   6.663   6.057  10.547  0.0767 -0.0759 -1.0737
  144SAPE    HY15770   6.651   6.228  10.510  0.3632  0.5325 -1.6228
  144SAPE   O3115771   6.708   6.112  10.346  0.3954 -0.7375 -0.5563
  144SAPE   C3115772   6.731   5.990  10.305  0.3922  0.0845  1.1384
  144SAPE   O3215773   6.692   5.886  10.349 -0.1920 -0.1365 -0.0281
  144SAPE   C3215774   6.825   5.994  10.187 -0.2438  0.0034 -0.2368
  144SAPE   H2X15775   6.901   5.914  10.202 -0.3287 -0.2014 -0.8870
  144SAPE   H2Y15776   6.883   6.086  10.208 -1.5905  0.2584  2.9527
  144SAPE   C2315777   6.190   5.776  10.228 -0.4386 -0.6230  0.6175
  144SAPE   H3R15778   6.097   5.803  10.283  0.3380  1.4233  1.0367
  144SAPE   H3S15779   6.192   5.669  10.200 -0.9946 -0.6849  0.8005
  144SAPE   C2415780   6.167   5.858  10.100 -0.3507 -0.0938  0.1174
  144SAPE   H4R15781   6.171   5.968  10.112  0.4655 -0.0219 -0.7333
  144SAPE   H4S15782   6.063   5.833  10.069  0.1614  1.0042 -2.7810
  144SAPE   C2515783   6.251   5.810   9.995  0.5697 -0.5277  1.2567
  144SAPE   H5R15784   6.325   5.733  10.020  3.1154  0.7579 -1.6416
  144SAPE   C2615785   6.249   5.841   9.862  0.2035 -0.0645  0.2382
  144SAPE   H6R15786   6.335   5.810   9.800 -0.6572 -2.8455  0.3093
  144SAPE   C2715787   6.154   5.934   9.796  0.0587  0.4322 -0.2841
  144SAPE   H7R15788   6.104   5.990   9.878  1.5562 -1.1879  1.8365
  144SAPE   H7S15789   6.067   5.886   9.746 -1.7143  1.7793  1.3515
  144SAPE   C2815790   6.218   6.030   9.695  0.4454  0.2773 -0.7729
  144SAPE   H8R15791   6.276   6.100   9.755  1.7055 -1.2157 -0.1887
  144SAPE   C2915792   6.207   6.041   9.560 -0.2149 -0.1579 -0.2643
  144SAPE   H9R15793   6.266   6.121   9.514 -1.9777 -0.1413 -2.7157
  144SAPE  C21015794   6.112   5.970   9.466 -0.0471  0.4370 -0.0334
  144SAPE  H10R15795   6.089   5.869   9.507  0.1448  0.9794  1.4694
  144SAPE  H10S15796   6.162   5.956   9.368 -0.8427 -1.1095 -0.2567
  144SAPE  C21115797   5.983   6.052   9.455  0.2005  1.2036  0.3097
  144SAPE  H11R15798   5.911   6.050   9.539  1.4965  0.8573  1.4387
  144SAPE  C21215799   5.956   6.138   9.354  0.5001  0.2453 -0.0902
  144SAPE  H12R15800   5.869   6.205   9.365  0.8336  0.5402  0.8962
  144SAPE  C21315801   6.050   6.159   9.235 -0.3893  0.1604 -0.6162
  144SAPE  H13R15802   6.146   6.103   9.241 -1.6723 -2.1112  0.0547
  144SAPE  H13S15803   6.084   6.264   9.236  1.4223 -0.3750 -1.3243
  144SAPE  C21415804   5.981   6.125   9.104 -0.7475  0.3924 -0.2682
  144SAPE  H14R15805   6.006   6.024   9.069 -0.2944  0.4064  0.0037
  144SAPE  C21515806   5.907   6.213   9.035 -0.4775 -0.3952  0.2281
  144SAPE  H15R15807   5.869   6.185   8.936  1.3981  0.6895 -0.8719
  144SAPE  C21615808   5.882   6.354   9.069  0.3758 -0.6215 -0.3302
  144SAPE  H16R15809   5.953   6.407   9.001  1.4721 -0.8128  0.6229
  144SAPE  H16S15810   5.917   6.382   9.171 -1.1667  0.6166 -0.1151
  144SAPE  C21715811   5.740   6.408   9.055  0.0459  1.0043  0.6316
  144SAPE  H17R15812   5.741   6.519   9.067 -0.8026  0.8707  2.1971
  144SAPE  H17S15813   5.672   6.373   9.136 -0.5929  0.9212  0.0687
  144SAPE  C21815814   5.669   6.360   8.919  0.6890 -0.3500  0.0028
  144SAPE  H18R15815   5.678   6.250   8.906 -3.2959 -0.6665 -1.2778
  144SAPE  H18S15816   5.737   6.396   8.839  0.6718 -1.4956 -0.5452
  144SAPE  C21915817   5.523   6.396   8.897  0.4135 -0.5247  0.4863
  144SAPE  H19R15818   5.502   6.500   8.929 -0.5951 -0.2507 -0.9739
  144SAPE  H19S15819   5.451   6.331   8.952  1.8020 -0.2569  2.7796
  144SAPE  C22015820   5.491   6.393   8.750  0.8724  0.2700 -0.1658
  144SAPE  H20R15821   5.522   6.293   8.714  1.9626  0.9017 -1.0102
  144SAPE  H20S15822   5.554   6.474   8.708  1.9530 -0.8580 -0.7838
  144SAPE  H20T15823   5.381   6.406   8.736  0.5737 -1.0587  0.6787
  144SAPE   C3315824   6.751   6.001  10.046  0.6535 -0.2743 -0.5921
  144SAPE   H3X15825   6.838   6.016   9.978  1.6740 -2.5630  0.1030
  144SAPE   H3Y15826   6.667   6.073  10.036 -0.6340 -1.9574 -2.6767
  144SAPE   C3415827   6.683   5.866  10.011  0.1051 -0.6528  1.5431
  144SAPE   H4X15828   6.599   5.838  10.078 -1.9448  0.3532 -0.4580
  144SAPE   H4Y15829   6.757   5.786  10.031  1.2277  0.4225  1.8170
  144SAPE   C3515830   6.620   5.879   9.867  0.1979 -0.1469 -0.1457
  144SAPE   H5X15831   6.702   5.923   9.807 -0.2434 -0.3542 -0.9148
  144SAPE   H5Y15832   6.527   5.941   9.869 -0.1124 -0.6166  0.0558
  144SAPE   C3615833   6.596   5.739   9.816 -0.0588  0.1482  0.8312
  144SAPE   H6X15834   6.506   5.706   9.872  0.5745  0.6917  2.2347
  144SAPE   H6Y15835   6.675   5.666   9.845  0.3730 -0.2820 -1.2804
  144SAPE   C3715836   6.563   5.728   9.670 -0.0756 -0.0389  0.1975
  144SAPE   H7X15837   6.489   5.798   9.625 -2.8356 -2.0013  1.4232
  144SAPE   H7Y15838   6.517   5.629   9.655 -1.8140  0.9161 -1.1212
  144SAPE   C3815839   6.691   5.730   9.589 -0.6579  0.1301 -0.2717
  144SAPE   H8X15840   6.782   5.708   9.648  0.3331 -0.1459 -1.8484
  144SAPE   H8Y15841   6.717   5.827   9.543 -0.4921 -0.5913 -1.7809
  144SAPE   C3915842   6.672   5.638   9.465  0.2023 -0.3248 -0.0689
  144SAPE   H9X15843   6.653   5.534   9.498  1.1427 -0.9032 -1.2634
  144SAPE   H9Y15844   6.756   5.635   9.392  1.8530 -1.6055  1.8001
  144SAPE  C31015845   6.563   5.689   9.359  0.2909  0.1176 -0.2125
  144SAPE  H10X15846   6.461   5.679   9.402  0.5848  0.2392  0.5378
  144SAPE  H10Y15847   6.572   5.621   9.272  1.7014  0.4018 -0.3088
  144SAPE  C31115848   6.593   5.832   9.313 -0.2217 -0.5558 -0.2870
  144SAPE  H11X15849   6.687   5.833   9.255  0.2901  1.1812  0.5094
  144SAPE  H11Y15850   6.586   5.908   9.394  2.1330  0.4114 -0.9294
  144SAPE  C31215851   6.509   5.885   9.202 -0.0123 -0.4937  0.2209
  144SAPE  H12X15852   6.402   5.888   9.232  0.1632  0.1008  0.8137
  144SAPE  H12Y15853   6.509   5.796   9.135  0.8156 -1.2034  1.1353
  144SAPE  C31315854   6.543   6.009   9.123  1.3285 -0.2847  0.1532
  144SAPE  H13X15855   6.644   6.010   9.078  1.6116  0.6113  0.7590
  144SAPE  H13Y15856   6.531   6.101   9.185  2.5853  0.0690 -0.1030
  144SAPE  C31415857   6.436   6.029   9.008 -0.4680  0.2950  0.1233
  144SAPE  H14X15858   6.349   6.086   9.048  0.6765  2.1155  0.1457
  144SAPE  H14Y15859   6.417   5.930   8.963  0.5877  0.2466 -0.2413
  144SAPE  C31515860   6.493   6.108   8.893 -0.5871 -1.0489  0.0002
  144SAPE  H15X15861   6.586   6.070   8.844 -0.2410 -0.2341  0.0068
  144SAPE  H15Y15862   6.522   6.204   8.942  0.6596 -1.4976  0.1910
  144SAPE  C31615863   6.389   6.124   8.781 -0.1690 -0.4939 -0.1659
  144SAPE  H16X15864   6.287   6.143   8.820  1.7739  4.3967  3.5700
  144SAPE  H16Y15865   6.384   6.035   8.714  1.8414 -1.8809  1.4201
  144SAPE  C31715866   6.423   6.249   8.699  0.4491 -0.5754 -0.0634
  144SAPE  H17X15867   6.524   6.242   8.655  0.6928  1.9440 -0.0510
  144SAPE  H17Y15868   6.410   6.341   8.760 -2.6864 -0.4697 -0.6916
  144SAPE  C31815869   6.329   6.284   8.579  0.1949 -0.1437  0.2670
  144SAPE  H18X15870   6.318   6.189   8.522 -0.7162  0.9331 -1.4216
  144SAPE  H18Y15871   6.363   6.367   8.514 -1.0582  1.8110  1.9982
  144SAPE  H18Z15872   6.231   6.314   8.621  1.4540  2.1015  1.7759
  145SAPE     N15873   3.411   6.309  10.967  0.4060  0.5711 -0.0161
  145SAPE   HN115874   3.356   6.391  10.934 -0.7695  0.2778  1.1635
  145SAPE   HN215875   3.356   6.221  10.962  2.0719 -0.6835  2.0597
  145SAPE   HN315876   3.456   6.325  11.060 -0.2109 -1.3220  0.6467
  145SAPE   C1215877   3.529   6.281  10.882 -0.4089  0.5321  0.4853
  145SAPE  H12A15878   3.491   6.228  10.792  1.0696  2.0721 -1.1197
  145SAPE  H12B15879   3.601   6.207  10.921 -0.3640  0.3603  0.0843
  145SAPE   C1115880   3.611   6.405  10.847 -0.6836 -0.2589  0.1287
  145SAPE  H11A15881   3.553   6.480  10.789 -1.1794 -0.4980  0.3111
  145SAPE  H11B15882   3.698   6.380  10.782 -0.2660  0.0266  0.5662
  145SAPE     P15883   3.733   6.423  11.085  0.2806 -0.1941  0.0723
  145SAPE   O1315884   3.765   6.536  11.173 -0.3547  0.0074 -0.6387
  145SAPE   O1415885   3.645   6.320  11.144 -0.2220  0.1655 -0.1731
  145SAPE   O1215886   3.662   6.485  10.957 -0.4923 -0.3838 -0.9088
  145SAPE   O1115887   3.867   6.363  11.029  0.1269  0.2649 -0.4954
  145SAPE    C115888   3.980   6.447  11.004  0.6269  0.1695  0.3901
  145SAPE    HA15889   4.022   6.491  11.096  1.7984  1.7874 -0.8630
  145SAPE    HB15890   4.058   6.392  10.948 -0.5721 -0.7381 -0.4438
  145SAPE    C215891   3.958   6.575  10.916 -0.3719  0.0363 -0.0341
  145SAPE    HS15892   3.880   6.640  10.963 -1.2460 -0.5886 -0.5865
  145SAPE   O2115893   3.911   6.535  10.784 -0.1034  0.2454  0.3098
  145SAPE   C2115894   3.848   6.625  10.710  0.7370  0.2019  0.6107
  145SAPE   O2215895   3.835   6.743  10.748  0.2128 -0.4579  0.1974
  145SAPE   C2215896   3.789   6.560  10.584 -0.1722 -0.4202 -0.0543
  145SAPE   H2R15897   3.864   6.581  10.505  0.6644 -0.5550  0.6940
  145SAPE   H2S15898   3.784   6.450  10.599 -1.5831 -0.3838 -0.0653
  145SAPE    C315899   4.092   6.655  10.897  0.4321 -0.5118  0.0830
  145SAPE    HX15900   4.118   6.704  10.994 -0.0346 -1.8446  0.9040
  145SAPE    HY15901   4.079   6.730  10.816  0.3144  1.7896  2.0999
  145SAPE   O3115902   4.191   6.556  10.863  0.0535 -0.3146 -0.0238
  145SAPE   C3115903   4.231   6.548  10.736 -0.0799  0.2141 -0.7505
  145SAPE   O3215904   4.174   6.605  10.641 -0.7796  0.7232 -0.5850
  145SAPE   C3215905   4.331   6.434  10.724 -0.2598  0.1496  0.6289
  145SAPE   H2X15906   4.323   6.374  10.817  0.8689  0.0645  0.6830
  145SAPE   H2Y15907   4.431   6.483  10.726  0.8655 -1.7851 -2.0108
  145SAPE   C2315908   3.645   6.624  10.551 -0.0241  0.1596 -0.0010
  145SAPE   H3R15909   3.661   6.734  10.550  2.3957 -0.1396  0.0098
  145SAPE   H3S15910   3.573   6.605  10.633 -0.3864  2.3897  0.2585
  145SAPE   C2415911   3.577   6.580  10.423  0.7269 -0.2375 -0.5743
  145SAPE   H4R15912   3.637   6.612  10.335  1.5266  2.5487  0.8543
  145SAPE   H4S15913   3.483   6.636  10.407 -0.0318 -1.1293  0.5979
  145SAPE   C2515914   3.534   6.436  10.438  0.1205 -0.5314 -0.9061
  145SAPE   H5R15915   3.482   6.414  10.532  1.9270 -0.4990  0.1332
  145SAPE   C2615916   3.541   6.339  10.352 -0.3147  0.5369  0.6361
  145SAPE   H6R15917   3.516   6.238  10.389  1.1149  0.2177  0.7993
  145SAPE   C2715918   3.595   6.357  10.212 -0.2907 -0.1491  1.0640
  145SAPE   H7R15919   3.673   6.278  10.200 -1.2442 -0.7114 -2.2747
  145SAPE   H7S15920   3.639   6.458  10.203 -0.1898 -0.2259  0.6873
  145SAPE   C2815921   3.503   6.333  10.096  0.6952  0.7102 -0.4197
  145SAPE   H8R15922   3.398   6.358  10.120 -0.0270 -0.2568 -2.3179
  145SAPE   C2915923   3.539   6.293   9.973 -0.2140 -0.2563 -0.1094
  145SAPE   H9R15924   3.456   6.271   9.904 -0.8528  1.1470  0.1802
  145SAPE  C21015925   3.677   6.268   9.918 -1.0997 -0.4973  0.6340
  145SAPE  H10R15926   3.759   6.271   9.993  0.1247  1.0368 -0.6846
  145SAPE  H10S15927   3.710   6.347   9.847  0.6683 -0.5196  1.3853
  145SAPE  C21115928   3.671   6.133   9.845 -0.1317 -0.5681  0.0693
  145SAPE  H11R15929   3.645   6.043   9.902  0.8203 -0.1836  1.1434
  145SAPE  C21215930   3.691   6.112   9.709 -0.2269 -0.6351 -0.1420
  145SAPE  H12R15931   3.695   6.009   9.670  0.1304 -0.8303  0.4116
  145SAPE  C21315932   3.713   6.213   9.603  0.0470 -0.3539  0.5042
  145SAPE  H13R15933   3.816   6.188   9.570 -0.4790 -0.8808 -0.8168
  145SAPE  H13S15934   3.724   6.315   9.643  0.9931 -0.4691  0.5780
  145SAPE  C21415935   3.615   6.214   9.491 -0.4552 -0.7033  0.6414
  145SAPE  H14R15936   3.520   6.270   9.504 -0.3272  0.2349 -1.8749
  145SAPE  C21515937   3.630   6.154   9.369 -0.5741 -0.1629 -0.5506
  145SAPE  H15R15938   3.543   6.144   9.302 -0.9342  1.5838 -0.4061
  145SAPE  C21615939   3.749   6.068   9.336  0.2816  0.5525 -0.0273
  145SAPE  H16R15940   3.722   5.964   9.365  0.2637  1.3684  3.3540
  145SAPE  H16S15941   3.844   6.093   9.389  0.2807 -1.8531  1.2483
  145SAPE  C21715942   3.784   6.063   9.191  0.9333  0.0403 -0.0813
  145SAPE  H17R15943   3.848   6.149   9.162  1.9411 -0.2052  1.2962
  145SAPE  H17S15944   3.686   6.068   9.139 -0.0255 -0.4433  1.5956
  145SAPE  C21815945   3.867   5.929   9.155  0.5634 -0.7386 -0.0391
  145SAPE  H18R15946   3.871   5.915   9.044 -2.4811  0.1483 -0.3458
  145SAPE  H18S15947   3.812   5.847   9.207  1.3474 -1.8798 -0.9316
  145SAPE  C21915948   3.999   5.922   9.218 -0.2150  1.0670  0.0359
  145SAPE  H19R15949   3.997   5.900   9.327  2.0522  2.1347  0.3660
  145SAPE  H19S15950   4.042   6.024   9.206  0.4456  0.4356 -4.5831
  145SAPE  C22015951   4.089   5.821   9.150  0.1034 -0.2206 -0.8259
  145SAPE  H20R15952   4.063   5.719   9.184  1.3850  0.4081  2.5043
  145SAPE  H20S15953   4.192   5.839   9.188  0.6643 -1.3318 -1.7695
  145SAPE  H20T15954   4.097   5.825   9.039  0.4923  0.8594 -0.7762
  145SAPE   C3315955   4.324   6.354  10.595 -0.3269 -0.0243 -0.5043
  145SAPE   H3X15956   4.412   6.287  10.592 -0.5431 -0.3233 -0.2168
  145SAPE   H3Y15957   4.334   6.416  10.503  0.4884 -0.0141 -0.4099
  145SAPE   C3415958   4.198   6.270  10.586  0.0105  0.4792 -0.0617
  145SAPE   H4X15959   4.112   6.340  10.593  1.2023  2.1170 -0.9763
  145SAPE   H4Y15960   4.193   6.202  10.673  0.3728 -0.3071 -0.6376
  145SAPE   C3515961   4.179   6.198  10.452  0.1837  0.6887  0.0202
  145SAPE   H5X15962   4.106   6.117  10.475  1.2997 -0.5813 -0.7289
  145SAPE   H5Y15963   4.277   6.149  10.436  0.7596  0.9696  2.3354
  145SAPE   C3615964   4.119   6.289  10.341  0.1008  0.5799  0.3033
  145SAPE   H6X15965   4.175   6.383  10.326  1.0007 -0.1139 -0.9320
  145SAPE   H6Y15966   4.017   6.325  10.367  0.2093 -0.0502  1.7033
  145SAPE   C3715967   4.117   6.215  10.202 -0.2821  0.0104 -0.7404
  145SAPE   H7X15968   4.034   6.142  10.210 -0.2370  0.1565  1.5965
  145SAPE   H7Y15969   4.208   6.153  10.185 -0.9893 -1.3550  0.3295
  145SAPE   C3815970   4.085   6.317  10.095 -0.7557  0.0942 -0.8284
  145SAPE   H8X15971   4.163   6.394  10.076 -0.1025 -0.5737 -0.9194
  145SAPE   H8Y15972   3.991   6.370  10.121  0.6760  2.4050 -0.0542
  145SAPE   C3915973   4.069   6.245   9.970  0.4129 -0.6517 -0.3466
  145SAPE   H9X15974   3.965   6.261   9.935 -0.3375 -0.0515  1.9593
  145SAPE   H9Y15975   4.076   6.135   9.981 -0.9131 -0.6402  0.8708
  145SAPE  C31015976   4.153   6.304   9.860 -0.3268 -0.5401  0.5899
  145SAPE  H10X15977   4.259   6.279   9.879 -0.1383 -0.1132  0.1198
  145SAPE  H10Y15978   4.142   6.414   9.867  2.2994 -0.2292  0.6385
  145SAPE  C31115979   4.098   6.262   9.724  0.5198 -0.1242 -0.9661
  145SAPE  H11X15980   4.005   6.320   9.704 -0.1045 -0.4317  0.8241
  145SAPE  H11Y15981   4.075   6.154   9.712  3.7475 -1.0386  0.0792
  145SAPE  C31215982   4.216   6.290   9.622 -0.1239 -0.7812  0.3869
  145SAPE  H12X15983   4.302   6.222   9.641  0.3555  0.2375  1.9949
  145SAPE  H12Y15984   4.250   6.395   9.630  1.2625 -0.8330 -3.1542
  145SAPE  C31315985   4.155   6.269   9.485  0.3269 -0.3677  0.8023
  145SAPE  H13X15986   4.060   6.327   9.480  2.0815  2.8456  1.8329
  145SAPE  H13Y15987   4.121   6.164   9.474  1.4546 -0.6222 -0.5495
  145SAPE  C31415988   4.248   6.301   9.366 -0.2312 -0.7390  0.0678
  145SAPE  H14X15989   4.275   6.408   9.356  1.5773 -1.3215 -2.0577
  145SAPE  H14Y15990   4.197   6.274   9.270 -0.8654 -0.5219  0.3387
  145SAPE  C31515991   4.384   6.238   9.376  0.4118  0.5062  0.2754
  145SAPE  H15X15992   4.381   6.144   9.435 -2.6823 -0.2315 -0.8254
  145SAPE  H15Y15993   4.448   6.304   9.437  1.3383  1.8275 -2.0329
  145SAPE  C31615994   4.446   6.195   9.239 -0.5641 -0.2548  0.1963
  145SAPE  H16X15995   4.552   6.168   9.260 -0.4379 -0.7565 -1.0015
  145SAPE  H16Y15996   4.460   6.285   9.175  2.6743 -0.0228  1.0589
  145SAPE  C31715997   4.366   6.086   9.160  0.3703  1.2817  0.1619
  145SAPE  H17X15998   4.263   6.120   9.135 -0.8119 -0.0226  2.7806
  145SAPE  H17Y15999   4.361   6.001   9.232 -1.3253  1.1053 -0.1193
  145SAPE  C31816000   4.421   6.039   9.026 -0.7324 -0.7246  0.0960
  145SAPE  H18X16001   4.532   6.027   9.033 -0.3550  2.3586  0.8381
  145SAPE  H18Y16002   4.392   6.113   8.948 -2.9468  1.1206  2.4958
  145SAPE  H18Z16003   4.386   5.938   8.998  0.9587 -1.4757  0.5775
  146SAPE     N16004   1.288   0.073  10.670 -0.4444 -0.2901 -0.1064
  146SAPE   HN116005   1.374   0.100  10.619  1.1742  1.8190  3.3609
  146SAPE   HN216006   1.243   0.159  10.706  0.0425  0.8906 -2.2017
  146SAPE   HN316007   1.324   0.016  10.750  2.0907  0.9989 -0.2475
  146SAPE   C1216008   1.213  -0.014  10.587  0.1070  0.4327 -0.0312
  146SAPE  H12A16009   1.276  -0.095  10.544  3.4424  1.6893  2.0534
  146SAPE  H12B16010   1.172   0.048  10.505 -1.8650  3.1475  2.7905
  146SAPE   C1116011   1.106  -0.085  10.673  0.2051  0.1700 -0.3737
  146SAPE  H11A16012   1.159  -0.156  10.740  0.1430 -1.4763 -1.9810
  146SAPE  H11B16013   1.044  -0.146  10.603  0.5083 -1.8722  1.0573
  146SAPE     P16014   0.897  -0.024  10.797 -0.1617  0.1767  0.0579
  146SAPE   O1316015   0.907  -0.158  10.859 -0.3599 -0.3195 -0.0586
  146SAPE   O1416016   0.860   0.086  10.892 -0.4796  0.2734  0.1315
  146SAPE   O1216017   1.034   0.013  10.746  0.1429  0.3526  0.5244
  146SAPE   O1116018   0.809  -0.021  10.664 -0.0023 -0.5284 -0.3376
  146SAPE    C116019   0.836   0.074  10.557 -0.5137  0.6903  0.0120
  146SAPE    HA16020   0.783   0.171  10.570 -1.0772  0.7008 -1.9926
  146SAPE    HB16021   0.945   0.091  10.540 -0.7681  1.5743 -0.8776
  146SAPE    C216022   0.779   0.012  10.427 -0.7458 -0.1595 -0.4123
  146SAPE    HS16023   0.794   0.092  10.352  1.1202  0.4374  0.5543
  146SAPE   O2116024   0.648  -0.043  10.430 -0.0614  0.5555 -0.2878
  146SAPE   C2116025   0.551   0.045  10.420  0.5356  0.5239 -0.1974
  146SAPE   O2216026   0.567   0.164  10.423 -0.2426  0.1889 -0.2252
  146SAPE   C2216027   0.421  -0.028  10.389  0.1428 -0.1923  0.5740
  146SAPE   H2R16028   0.449  -0.134  10.406  1.1819  0.1544  1.0913
  146SAPE   H2S16029   0.350   0.013  10.464 -0.7011 -1.5354  0.5559
  146SAPE    C316030   0.876  -0.096  10.377 -0.4107 -0.0502 -0.5806
  146SAPE    HX16031   0.823  -0.142  10.291  2.7943 -2.0080 -1.6856
  146SAPE    HY16032   0.889  -0.171  10.457  1.5759 -1.4829 -2.1616
  146SAPE   O3116033   1.004  -0.044  10.345 -0.2563 -0.0488 -0.1013
  146SAPE   C3116034   1.063  -0.103  10.244 -0.1040 -0.0630  0.6500
  146SAPE   O3216035   1.024  -0.204  10.193  0.2908  0.0857  0.2721
  146SAPE   C3216036   1.197  -0.042  10.238 -0.4631  0.2690 -0.2604
  146SAPE   H2X16037   1.259  -0.059  10.328  0.9031  1.0737 -1.0053
  146SAPE   H2Y16038   1.195   0.069  10.226  0.1181  0.1361 -1.8271
  146SAPE   C2316039   0.366   0.007  10.245 -0.4731 -0.3513  1.0949
  146SAPE   H3R16040   0.454   0.042  10.186 -0.1489 -0.5627  1.4434
  146SAPE   H3S16041   0.296   0.093  10.239  0.6934  0.5586 -3.9933
  146SAPE   C2416042   0.318  -0.115  10.162  0.3537  0.0805  0.1642
  146SAPE   H4R16043   0.281  -0.085  10.061 -0.1719  0.3110  0.4172
  146SAPE   H4S16044   0.226  -0.152  10.213  0.4604 -3.6566 -2.0233
  146SAPE   C2516045   0.420  -0.220  10.153 -0.4872  0.5465  0.2043
  146SAPE   H5R16046   0.449  -0.275  10.244  2.8385  0.6680 -0.6613
  146SAPE   C2616047   0.499  -0.264  10.048 -0.2093 -0.1703 -0.2712
  146SAPE   H6R16048   0.567  -0.349  10.065 -0.4475 -0.5354 -1.0704
  146SAPE   C2716049   0.511  -0.213   9.905  0.5757 -0.3543 -0.2838
  146SAPE   H7R16050   0.572  -0.279   9.840 -0.7373  0.6792 -2.6943
  146SAPE   H7S16051   0.571  -0.121   9.921 -0.6699  0.0187  3.1119
  146SAPE   C2816052   0.385  -0.192   9.825 -0.6189  0.2086  0.2349
  146SAPE   H8R16053   0.291  -0.199   9.881 -0.5737 -2.8190  0.0713
  146SAPE   C2916054   0.373  -0.179   9.693 -0.0028  0.0873 -0.1017
  146SAPE   H9R16055   0.274  -0.154   9.652  1.4524  3.5668 -1.9049
  146SAPE  C21016056   0.484  -0.191   9.591 -0.1284  0.6837 -0.7009
  146SAPE  H10R16057   0.580  -0.149   9.629  0.0921 -0.1638 -0.2964
  146SAPE  H10S16058   0.465  -0.128   9.502  0.2888  1.1725 -0.4492
  146SAPE  C21116059   0.515  -0.336   9.552  0.4177  0.4806  0.1971
  146SAPE  H11R16060   0.517  -0.414   9.631  0.7249 -0.3842 -0.6419
  146SAPE  C21216061   0.537  -0.378   9.429 -0.7673  0.2213  0.1433
  146SAPE  H12R16062   0.544  -0.486   9.411 -1.2496  0.3995 -1.2738
  146SAPE  C21316063   0.547  -0.297   9.304 -0.0712  0.0630  0.8922
  146SAPE  H13R16064   0.626  -0.338   9.238 -1.2755  1.1671 -1.3769
  146SAPE  H13S16065   0.587  -0.194   9.317  1.4279 -0.0677 -1.8954
  146SAPE  C21416066   0.415  -0.296   9.227 -0.2388  0.1974  0.0592
  146SAPE  H14R16067   0.353  -0.212   9.263  2.4584  2.5850 -0.4309
  146SAPE  C21516068   0.384  -0.376   9.125  0.8316  0.6128  0.2429
  146SAPE  H15R16069   0.291  -0.347   9.072 -0.0948 -1.4676  0.6413
  146SAPE  C21616070   0.459  -0.494   9.061  0.7044  0.0487 -0.0920
  146SAPE  H16R16071   0.389  -0.570   9.020  1.7261 -0.2759 -1.3113
  146SAPE  H16S16072   0.523  -0.539   9.141  2.8906  1.1715 -1.1039
  146SAPE  C21716073   0.552  -0.454   8.947  0.5905  0.1455 -0.5571
  146SAPE  H17R16074   0.618  -0.375   8.988  1.5283 -0.5233 -0.7287
  146SAPE  H17S16075   0.500  -0.405   8.862 -2.3237  2.2654  2.2292
  146SAPE  C21816076   0.626  -0.584   8.895 -0.1468 -0.1192 -0.2555
  146SAPE  H18R16077   0.653  -0.643   8.985 -0.3670 -0.7339 -0.5820
  146SAPE  H18S16078   0.716  -0.563   8.832  1.2999  1.2334  2.1276
  146SAPE  C21916079   0.535  -0.658   8.791 -0.3073 -0.7156  0.4580
  146SAPE  H19R16080   0.519  -0.584   8.709  0.4661 -0.7556  0.2654
  146SAPE  H19S16081   0.431  -0.663   8.831  0.2078  0.4999  2.0741
  146SAPE  C22016082   0.597  -0.780   8.729 -0.4967  0.5246 -0.0081
  146SAPE  H20R16083   0.612  -0.859   8.805  1.8289 -0.2196 -1.1313
  146SAPE  H20S16084   0.691  -0.753   8.676 -1.1003  0.8266 -0.9653
  146SAPE  H20T16085   0.532  -0.811   8.644  1.3024  0.9636 -1.6192
  146SAPE   C3316086   1.281  -0.105  10.124 -0.4920 -0.1633 -0.5442
  146SAPE   H3X16087   1.289  -0.216  10.133 -1.4039 -0.1368  0.9614
  146SAPE   H3Y16088   1.386  -0.068  10.128 -0.7646  0.6234 -0.6494
  146SAPE   C3416089   1.250  -0.065   9.981  0.1116 -0.2739 -0.3786
  146SAPE   H4X16090   1.237   0.045   9.975  2.2052  0.1782  1.8966
  146SAPE   H4Y16091   1.151  -0.112   9.962  0.7333 -1.4550 -0.7841
  146SAPE   C3516092   1.339  -0.128   9.871  0.4407  0.8128  1.1087
  146SAPE   H5X16093   1.345  -0.237   9.892  1.6544  0.6624  0.0879
  146SAPE   H5Y16094   1.436  -0.078   9.893  1.0829 -0.7941  2.0873
  146SAPE   C3616095   1.302  -0.091   9.722  0.3764 -0.2273 -0.4716
  146SAPE   H6X16096   1.290   0.019   9.722  0.2408 -0.2393 -0.0740
  146SAPE   H6Y16097   1.199  -0.122   9.695 -0.6662  0.1559  2.6346
  146SAPE   C3716098   1.408  -0.124   9.615  0.2517 -0.6100  0.2330
  146SAPE   H7X16099   1.408  -0.233   9.594  0.0169 -1.0563  2.3404
  146SAPE   H7Y16100   1.505  -0.095   9.662 -0.3119 -0.9149  1.6283
  146SAPE   C3816101   1.387  -0.042   9.488  0.9347  0.6335 -0.0415
  146SAPE   H8X16102   1.410   0.065   9.512 -0.2379  0.4137  2.3729
  146SAPE   H8Y16103   1.282  -0.057   9.455  0.5910  0.1181  1.2182
  146SAPE   C3916104   1.478  -0.071   9.364 -0.0598 -0.3317 -0.1444
  146SAPE   H9X16105   1.435  -0.162   9.318  2.1694 -2.8312  2.3363
  146SAPE   H9Y16106   1.579  -0.107   9.394 -0.5022 -1.3511  0.1858
  146SAPE  C31016107   1.484   0.039   9.261  0.1957 -0.5192  0.1637
  146SAPE  H10X16108   1.549   0.123   9.293 -0.3591  0.5678 -1.4644
  146SAPE  H10Y16109   1.380   0.076   9.246 -0.5151 -2.2980  0.4916
  146SAPE  C31116110   1.543  -0.022   9.132 -0.1760 -0.3427 -0.3618
  146SAPE  H11X16111   1.459  -0.060   9.069 -1.7050  0.3965  1.1369
  146SAPE  H11Y16112   1.600  -0.115   9.150  0.7936  0.5497  1.4190
  146SAPE  C31216113   1.631   0.081   9.061 -0.6083 -0.2628  0.4090
  146SAPE  H12X16114   1.692   0.138   9.134 -1.0345 -0.1040  0.6455
  146SAPE  H12Y16115   1.570   0.171   9.041  2.9941  2.4945  0.8304
  146SAPE  C31316116   1.702   0.038   8.932  0.2834  0.3931 -0.1247
  146SAPE  H13X16117   1.623  -0.006   8.867  0.8657 -1.0820  0.1217
  146SAPE  H13Y16118   1.781  -0.037   8.954  0.2407 -0.2650 -2.0181
  146SAPE  C31416119   1.776   0.142   8.846 -0.3861  0.2751  0.3153
  146SAPE  H14X16120   1.811   0.080   8.760  0.4581  2.1538 -0.7489
  146SAPE  H14Y16121   1.868   0.180   8.895  0.9962 -0.5644 -1.5325
  146SAPE  C31516122   1.682   0.249   8.799  0.2673  0.1631  0.6081
  146SAPE  H15X16123   1.735   0.320   8.733  0.7993 -0.5127  0.2976
  146SAPE  H15Y16124   1.647   0.309   8.886 -0.0335  2.1471 -0.8233
  146SAPE  C31616125   1.545   0.212   8.724 -0.7384 -0.5167  0.3732
  146SAPE  H16X16126   1.484   0.131   8.770 -0.6140 -0.6740  0.2598
  146SAPE  H16Y16127   1.573   0.182   8.621 -4.1528 -0.5213 -0.6836
  146SAPE  C31716128   1.441   0.333   8.717 -0.2046  0.6342  0.3637
  146SAPE  H17X16129   1.478   0.426   8.669  1.8154 -0.2989  0.0163
  146SAPE  H17Y16130   1.408   0.360   8.820 -3.3975  1.8590 -0.8381
  146SAPE  C31816131   1.303   0.307   8.649 -1.1041  0.3807 -0.3189
  146SAPE  H18X16132   1.250   0.225   8.702 -0.1320  0.9216  1.5689
  146SAPE  H18Y16133   1.322   0.277   8.544  1.3217 -1.1004  0.4611
  146SAPE  H18Z16134   1.241   0.399   8.653 -1.5296  0.1130 -0.6968
  147SAPE     N16135   5.489   4.163   6.110  0.2650 -0.3196  0.1864
  147SAPE   HN116136   5.585   4.178   6.072  0.4662  1.0225  1.1494
  147SAPE   HN216137   5.464   4.063   6.120 -0.9161  0.0184  0.7104
  147SAPE   HN316138   5.422   4.207   6.043  2.4577  1.8816 -0.7202
  147SAPE   C1216139   5.475   4.229   6.246  0.2061 -0.1179 -0.3654
  147SAPE  H12A16140   5.472   4.340   6.239  0.0805  0.0505  1.7717
  147SAPE  H12B16141   5.559   4.207   6.316 -0.3262  2.5699  1.2793
  147SAPE   C1116142   5.345   4.177   6.311 -0.6239 -0.1419  0.3633
  147SAPE  H11A16143   5.333   4.225   6.410 -0.8166 -0.4907  0.5111
  147SAPE  H11B16144   5.369   4.070   6.328 -0.1262 -0.2246 -0.7799
  147SAPE     P16145   5.117   4.066   6.234  0.2197 -0.3578 -0.2286
  147SAPE   O1316146   4.976   4.114   6.207 -0.1272  0.2252 -0.0369
  147SAPE   O1416147   5.166   3.953   6.156 -0.6704  0.3286  0.0534
  147SAPE   O1216148   5.225   4.185   6.231  0.3407  0.1967 -0.0126
  147SAPE   O1116149   5.123   4.018   6.390 -0.0916 -0.4074 -0.3169
  147SAPE    C116150   5.011   4.067   6.472 -0.4671  0.2885  0.7850
  147SAPE    HA16151   5.005   4.178   6.468  0.9814  0.4225  1.5694
  147SAPE    HB16152   4.922   4.018   6.429  2.0230 -1.8937 -2.3625
  147SAPE    C216153   5.015   4.035   6.620 -0.2415 -0.3254 -0.0333
  147SAPE    HS16154   4.927   4.069   6.679  0.3278 -1.5637  1.5979
  147SAPE   O2116155   5.129   4.095   6.683 -0.4616  0.1667  0.0754
  147SAPE   C2116156   5.113   4.219   6.709 -0.2025 -0.1992 -0.5182
  147SAPE   O2216157   5.018   4.292   6.685 -0.2390 -0.2120 -0.0338
  147SAPE   C2216158   5.225   4.247   6.814  0.5403 -0.0954 -0.2616
  147SAPE   H2R16159   5.219   4.160   6.884 -0.2572 -0.7555 -1.1293
  147SAPE   H2S16160   5.326   4.235   6.770  0.4102  0.8420 -0.8283
  147SAPE    C316161   5.040   3.885   6.648 -0.1958  0.3350 -0.1301
  147SAPE    HX16162   5.124   3.840   6.591  0.0253 -2.5759  2.2128
  147SAPE    HY16163   4.954   3.827   6.610 -0.7763  0.6334  0.7058
  147SAPE   O3116164   5.060   3.857   6.788 -0.0952  0.5196 -0.2671
  147SAPE   C3116165   4.948   3.840   6.857 -0.2017  0.7341 -0.4607
  147SAPE   O3216166   4.835   3.849   6.820  0.5230  0.3181 -0.1961
  147SAPE   C3216167   4.988   3.769   6.985 -0.4200  0.0078 -1.2859
  147SAPE   H2X16168   5.062   3.830   7.041  1.0167 -1.1385 -1.8583
  147SAPE   H2Y16169   5.031   3.669   6.965  0.3496  0.3217 -1.2301
  147SAPE   C2316170   5.220   4.390   6.868  0.5672 -0.0201 -0.1516
  147SAPE   H3R16171   5.176   4.392   6.970 -1.1910 -0.8862 -0.8589
  147SAPE   H3S16172   5.146   4.455   6.817  0.0936 -1.0731 -0.8452
  147SAPE   C2416173   5.361   4.447   6.881 -0.1929  0.2025  0.4583
  147SAPE   H4R16174   5.421   4.376   6.941 -0.0298  1.4142  1.7773
  147SAPE   H4S16175   5.358   4.541   6.940  2.3089  1.5529 -1.3699
  147SAPE   C2516176   5.426   4.489   6.745 -0.0262 -0.0640 -0.1787
  147SAPE   H5R16177   5.358   4.542   6.677  2.1587  0.4805 -2.0484
  147SAPE   C2616178   5.552   4.456   6.709  0.7217  0.0380  0.1482
  147SAPE   H6R16179   5.594   4.494   6.614 -0.2877 -0.7381 -0.6227
  147SAPE   C2716180   5.659   4.391   6.793  0.3535  0.3037 -0.2541
  147SAPE   H7R16181   5.671   4.283   6.771 -1.5736  0.1560 -0.7525
  147SAPE   H7S16182   5.616   4.395   6.895  0.1798  3.8440 -0.3214
  147SAPE   C2816183   5.793   4.454   6.802  0.8816  0.0341  0.4102
  147SAPE   H8R16184   5.802   4.545   6.739 -1.0762  0.7101  1.0368
  147SAPE   C2916185   5.883   4.427   6.900 -0.8873 -0.0118 -0.6021
  147SAPE   H9R16186   5.975   4.485   6.915 -0.6473 -1.0349  2.8737
  147SAPE  C21016187   5.861   4.327   7.013 -0.5622 -0.4912 -0.3450
  147SAPE  H10R16188   5.865   4.219   6.987  0.2541 -0.5133 -0.1669
  147SAPE  H10S16189   5.757   4.343   7.048 -0.2550  1.3642 -0.2188
  147SAPE  C21116190   5.959   4.354   7.129  0.2952  0.2638  0.2538
  147SAPE  H11R16191   5.914   4.394   7.221 -1.9918 -2.2267  0.3592
  147SAPE  C21216192   6.087   4.323   7.127  0.0300 -0.3824  0.6093
  147SAPE  H12R16193   6.144   4.372   7.207  0.7061  1.3241 -0.8403
  147SAPE  C21316194   6.162   4.262   7.008 -0.4014  0.3161 -0.6194
  147SAPE  H13R16195   6.094   4.223   6.929 -0.0725  0.0778 -0.7880
  147SAPE  H13S16196   6.208   4.167   7.043  1.9959  1.1244 -1.3606
  147SAPE  C21416197   6.273   4.342   6.947 -0.1809 -0.4482  0.6787
  147SAPE  H14R16198   6.233   4.376   6.851 -0.4445  0.6295  1.1552
  147SAPE  C21516199   6.399   4.360   6.989 -0.1771 -0.2539 -1.0647
  147SAPE  H15R16200   6.460   4.436   6.938 -0.5073  1.9871  1.6308
  147SAPE  C21616201   6.462   4.297   7.115  0.4209 -0.0161  0.5816
  147SAPE  H16R16202   6.564   4.261   7.094  0.2886  0.4826 -1.0946
  147SAPE  H16S16203   6.394   4.217   7.152 -2.0589  0.5498 -2.3503
  147SAPE  C21716204   6.459   4.412   7.220  0.1463  0.0747 -0.0449
  147SAPE  H17R16205   6.353   4.445   7.227 -0.3663 -0.1033 -4.1403
  147SAPE  H17S16206   6.525   4.495   7.187  2.6599 -1.9459 -0.4127
  147SAPE  C21816207   6.526   4.362   7.349  0.5208 -0.3887 -0.5217
  147SAPE  H18R16208   6.569   4.456   7.389 -0.7193 -1.4752  3.9010
  147SAPE  H18S16209   6.605   4.287   7.328 -0.6883 -2.2936  1.3349
  147SAPE  C21916210   6.433   4.297   7.451  0.3077  0.2480 -0.2322
  147SAPE  H19R16211   6.486   4.249   7.536  2.4460 -0.6658 -1.9863
  147SAPE  H19S16212   6.384   4.218   7.389  0.5300 -1.1210  1.2747
  147SAPE  C22016213   6.325   4.389   7.511 -0.2204 -0.0792 -0.1988
  147SAPE  H20R16214   6.272   4.453   7.437  1.3080  1.0763 -0.3269
  147SAPE  H20S16215   6.377   4.451   7.587 -0.5949  0.8185 -0.6584
  147SAPE  H20T16216   6.246   4.328   7.560 -1.7067  1.7180 -0.2082
  147SAPE   C3316217   4.863   3.739   7.072  0.2161 -0.2881  0.0998
  147SAPE   H3X16218   4.792   3.677   7.013 -0.9008  0.0948  1.0131
  147SAPE   H3Y16219   4.805   3.827   7.107  0.5148 -0.1158  0.1665
  147SAPE   C3416220   4.896   3.674   7.207 -0.1962 -0.6087  0.0186
  147SAPE   H4X16221   4.804   3.657   7.266  1.5549 -1.5685  2.6555
  147SAPE   H4Y16222   4.958   3.745   7.266 -3.9487  0.4639  3.0571
  147SAPE   C3516223   4.967   3.540   7.191  0.6264  0.3100  0.0930
  147SAPE   H5X16224   5.076   3.542   7.169  0.6597 -3.9780 -1.0413
  147SAPE   H5Y16225   4.914   3.483   7.112 -2.1719  1.1907  1.1941
  147SAPE   C3616226   4.947   3.451   7.318 -0.0129 -0.1448 -0.7883
  147SAPE   H6X16227   4.839   3.448   7.344  0.1774  1.8654  0.4959
  147SAPE   H6Y16228   5.006   3.487   7.405  0.2870 -1.7872 -0.2736
  147SAPE   C3716229   4.997   3.311   7.298 -0.3623  0.3975  0.3461
  147SAPE   H7X16230   4.991   3.279   7.192  1.9910 -2.7158  0.9884
  147SAPE   H7Y16231   4.935   3.242   7.359  0.9402 -0.4044  0.8157
  147SAPE   C3816232   5.140   3.293   7.349  0.6105 -0.2392 -0.1892
  147SAPE   H8X16233   5.195   3.388   7.338  0.5170 -0.3293 -1.6356
  147SAPE   H8Y16234   5.186   3.221   7.278 -2.5166 -0.3507 -2.3559
  147SAPE   C3916235   5.150   3.240   7.489  0.9071  0.3053 -0.2911
  147SAPE   H9X16236   5.256   3.231   7.521  0.4492  1.4488  1.7155
  147SAPE   H9Y16237   5.116   3.134   7.482  2.0347 -0.0708 -0.2732
  147SAPE  C31016238   5.059   3.303   7.595  0.5904  0.1247  0.1396
  147SAPE  H10X16239   4.952   3.282   7.573  0.8624 -0.1474 -0.9601
  147SAPE  H10Y16240   5.071   3.413   7.589  0.6014  0.0861 -0.5557
  147SAPE  C31116241   5.089   3.249   7.736  0.6794  0.3250 -0.0060
  147SAPE  H11X16242   5.193   3.277   7.760  0.6433  2.3456 -1.8447
  147SAPE  H11Y16243   5.064   3.140   7.735  1.3881  0.1550  0.4064
  147SAPE  C31216244   4.988   3.316   7.823  0.4689 -0.3688 -1.0060
  147SAPE  H12X16245   4.898   3.251   7.828 -0.5472  1.0581 -0.2226
  147SAPE  H12Y16246   4.955   3.415   7.786 -1.2262 -0.3579  0.4090
  147SAPE  C31316247   5.041   3.334   7.970 -0.2435  0.2771 -0.3618
  147SAPE  H13X16248   4.980   3.409   8.025  0.1372  0.5550 -0.3178
  147SAPE  H13Y16249   5.137   3.388   7.959 -0.1222  0.8067  2.5136
  147SAPE  C31416250   5.052   3.202   8.055 -0.2761 -0.2293  0.4704
  147SAPE  H14X16251   5.124   3.130   8.010  1.9482  1.7174  0.7089
  147SAPE  H14Y16252   4.954   3.154   8.075 -0.0518 -0.9663 -0.1430
  147SAPE  C31516253   5.094   3.234   8.198  0.5171 -0.6193  0.7576
  147SAPE  H15X16254   5.198   3.272   8.195 -0.2908  1.6864 -0.2731
  147SAPE  H15Y16255   5.107   3.139   8.255  0.2981 -1.6111 -0.7813
  147SAPE  C31616256   5.003   3.332   8.273 -0.2510 -0.2304 -0.1726
  147SAPE  H16X16257   4.895   3.307   8.262 -0.3196  0.6449 -1.6504
  147SAPE  H16Y16258   5.015   3.432   8.229  2.2768 -0.5639 -0.3962
  147SAPE  C31716259   5.054   3.331   8.420 -0.4216  0.8331 -0.0999
  147SAPE  H17X16260   5.131   3.410   8.436  1.5255 -0.6746 -1.5697
  147SAPE  H17Y16261   5.098   3.234   8.450  1.0736  1.1596 -1.1323
  147SAPE  C31816262   4.944   3.368   8.522 -0.4380 -0.4040 -0.2466
  147SAPE  H18X16263   4.862   3.295   8.509  1.6090 -3.0279  0.7580
  147SAPE  H18Y16264   4.917   3.476   8.523  0.8649 -0.0734  0.3498
  147SAPE  H18Z16265   4.997   3.339   8.615  0.8571  1.6778 -0.2575
  148SAPE     N16266   5.343   1.209   6.324 -0.1165 -0.0928  0.2508
  148SAPE   HN116267   5.413   1.279   6.292 -0.3927  0.8660  1.6614
  148SAPE   HN216268   5.320   1.127   6.263 -0.4754 -0.9340  1.4676
  148SAPE   HN316269   5.253   1.252   6.353 -1.1860 -1.4465 -0.9116
  148SAPE   C1216270   5.385   1.132   6.450 -0.4726 -0.2715 -0.2126
  148SAPE  H12A16271   5.483   1.086   6.430 -0.7297 -0.1990 -1.7233
  148SAPE  H12B16272   5.312   1.052   6.473 -0.9209  0.5454  1.4031
  148SAPE   C1116273   5.394   1.221   6.579 -0.2625  0.1190 -1.2626
  148SAPE  H11A16274   5.418   1.146   6.658 -1.7343 -1.2487 -2.0577
  148SAPE  H11B16275   5.293   1.259   6.603  0.7666  0.9797  2.1783
  148SAPE     P16276   5.641   1.304   6.561 -0.0280 -0.1093 -0.1578
  148SAPE   O1316277   5.687   1.277   6.424 -0.1423  0.1148  0.6698
  148SAPE   O1416278   5.705   1.415   6.633  0.3326  1.0764 -0.0110
  148SAPE   O1216279   5.489   1.326   6.559 -0.0139 -0.0622 -0.2262
  148SAPE   O1116280   5.648   1.159   6.631  0.5592 -0.0921 -0.4358
  148SAPE    C116281   5.688   1.163   6.768  0.6543 -0.1960 -0.9032
  148SAPE    HA16282   5.798   1.172   6.783  0.5987 -2.2827  1.2809
  148SAPE    HB16283   5.630   1.235   6.829 -0.9803 -1.2584 -1.1320
  148SAPE    C216284   5.655   1.024   6.831  0.5600 -0.4298  0.5157
  148SAPE    HS16285   5.552   0.996   6.803  0.9221 -0.2378 -1.1026
  148SAPE   O2116286   5.676   1.030   6.978  0.4743  0.1445  0.3862
  148SAPE   C2116287   5.574   0.998   7.049  0.5038 -0.1876  0.2991
  148SAPE   O2216288   5.458   0.982   7.008  0.7197  0.2995  0.1414
  148SAPE   C2216289   5.613   0.995   7.191  0.1429 -0.2446 -0.8390
  148SAPE   H2R16290   5.703   0.931   7.199 -0.1135 -0.5639 -0.4458
  148SAPE   H2S16291   5.651   1.099   7.205  0.3745 -0.4516  0.1832
  148SAPE    C316292   5.744   0.911   6.765  0.2412  0.2225  0.2482
  148SAPE    HX16293   5.728   0.927   6.656  2.1281  1.6260  0.1288
  148SAPE    HY16294   5.715   0.810   6.800 -0.5195  1.0924  2.2763
  148SAPE   O3116295   5.879   0.932   6.790 -0.0604  0.1359  0.3709
  148SAPE   C3116296   5.937   0.878   6.896  0.7950 -0.1608 -0.1618
  148SAPE   O3216297   5.879   0.799   6.975 -0.3042  0.4718 -0.2099
  148SAPE   C3216298   6.078   0.925   6.906 -0.3298 -0.3263  0.2139
  148SAPE   H2X16299   6.088   1.028   6.865  2.2676 -0.4415  0.4012
  148SAPE   H2Y16300   6.137   0.864   6.834 -0.5045 -0.8650  0.5157
  148SAPE   C2316301   5.498   0.952   7.277  0.5236  0.4342 -0.1797
  148SAPE   H3R16302   5.461   0.851   7.251 -0.1698 -0.0046  2.2566
  148SAPE   H3S16303   5.405   1.012   7.273  0.0281 -0.3862 -1.2759
  148SAPE   C2416304   5.532   0.942   7.429  0.2043 -0.1606  0.7309
  148SAPE   H4R16305   5.445   0.908   7.489  0.1800 -0.3814  0.5719
  148SAPE   H4S16306   5.550   1.041   7.475  1.1901 -0.2129  0.4674
  148SAPE   C2516307   5.656   0.858   7.458  0.3984 -0.1151 -0.7927
  148SAPE   H5R16308   5.748   0.876   7.400 -1.1063  2.9737 -2.4105
  148SAPE   C2616309   5.654   0.755   7.550 -1.0032 -0.7675  0.2203
  148SAPE   H6R16310   5.751   0.705   7.560 -0.4921  0.3884  1.3820
  148SAPE   C2716311   5.542   0.712   7.643 -0.5500 -0.0593  0.4150
  148SAPE   H7R16312   5.585   0.625   7.697 -0.8454  0.1020  0.9162
  148SAPE   H7S16313   5.451   0.686   7.584  0.2020 -0.4573 -0.5938
  148SAPE   C2816314   5.511   0.810   7.757 -0.2007  0.3450  0.0029
  148SAPE   H8R16315   5.423   0.873   7.745 -1.0133 -0.8031 -0.2627
  148SAPE   C2916316   5.588   0.833   7.864 -0.2166 -0.2670 -1.5714
  148SAPE   H9R16317   5.567   0.919   7.929  1.3576  0.9165 -2.5720
  148SAPE  C21016318   5.715   0.755   7.893  0.1703 -0.4029 -0.5050
  148SAPE  H10R16319   5.770   0.808   7.973 -2.3234 -1.3837  2.0349
  148SAPE  H10S16320   5.788   0.750   7.810  0.5684 -0.5047 -0.1514
  148SAPE  C21116321   5.695   0.619   7.933  0.2753  0.4388 -0.5994
  148SAPE  H11R16322   5.680   0.547   7.851 -2.1587 -0.4637  0.5385
  148SAPE  C21216323   5.718   0.569   8.059  0.1245 -0.4460  0.1934
  148SAPE  H12R16324   5.707   0.460   8.076  2.7134 -0.3136  3.7421
  148SAPE  C21316325   5.732   0.654   8.185 -0.4161  0.5176 -0.4486
  148SAPE  H13R16326   5.630   0.659   8.228  0.1261  0.9320  0.8454
  148SAPE  H13S16327   5.750   0.760   8.156  0.6175  0.9977  1.7623
  148SAPE  C21416328   5.831   0.608   8.290  0.0933  0.5011  0.2127
  148SAPE  H14R16329   5.913   0.554   8.240 -1.6086 -0.9444 -1.1561
  148SAPE  C21516330   5.811   0.617   8.425  0.0711 -0.2259 -0.5601
  148SAPE  H15R16331   5.896   0.582   8.486 -0.1791 -0.1452 -0.1581
  148SAPE  C21616332   5.699   0.695   8.497 -0.1437  0.2598  0.5313
  148SAPE  H16R16333   5.662   0.637   8.584  2.5922 -0.8703  1.0348
  148SAPE  H16S16334   5.618   0.720   8.425  1.3967 -0.7121 -1.6454
  148SAPE  C21716335   5.733   0.839   8.537  0.1518  0.1222 -0.4226
  148SAPE  H17R16336   5.731   0.906   8.448  0.2359  2.0095  0.9377
  148SAPE  H17S16337   5.839   0.834   8.569  0.8599  1.2645 -2.4210
  148SAPE  C21816338   5.646   0.903   8.640  0.0391 -0.2813 -0.4275
  148SAPE  H18R16339   5.667   0.845   8.733 -0.7405 -1.6863 -1.0888
  148SAPE  H18S16340   5.540   0.892   8.610  0.1625 -0.9038 -0.6659
  148SAPE  C21916341   5.685   1.050   8.667  0.4965  0.0338  0.3019
  148SAPE  H19R16342   5.714   1.108   8.577 -0.4925  1.1754  0.6905
  148SAPE  H19S16343   5.768   1.038   8.739  1.6456 -3.5533 -1.3910
  148SAPE  C22016344   5.583   1.136   8.745 -0.3187  0.7007  0.3182
  148SAPE  H20R16345   5.495   1.148   8.678 -0.1816 -0.8259 -0.1631
  148SAPE  H20S16346   5.625   1.236   8.770 -0.1377  0.4741  0.9369
  148SAPE  H20T16347   5.546   1.089   8.839  2.0823 -1.6011  0.2261
  148SAPE   C3316348   6.132   0.910   7.051 -0.4719 -0.2506 -0.5648
  148SAPE   H3X16349   6.240   0.934   7.052 -0.6427  0.5431 -0.5886
  148SAPE   H3Y16350   6.130   0.801   7.076  1.6842 -0.2023 -0.0064
  148SAPE   C3416351   6.059   1.008   7.147 -0.5442  0.2411  0.0853
  148SAPE   H4X16352   5.951   0.989   7.133  0.2407 -3.6170 -2.0173
  148SAPE   H4Y16353   6.080   1.110   7.107 -1.3156  1.5605  2.8084
  148SAPE   C3516354   6.090   1.007   7.296  0.3036 -0.0191 -0.3222
  148SAPE   H5X16355   6.200   1.014   7.310  0.7053 -2.7855 -1.3899
  148SAPE   H5Y16356   6.065   0.906   7.335 -1.2179 -0.4475 -2.2900
  148SAPE   C3616357   6.009   1.112   7.383  0.4741  0.2013  0.8278
  148SAPE   H6X16358   5.902   1.096   7.358  0.1302  2.4971  0.6012
  148SAPE   H6Y16359   6.027   1.219   7.362  0.3300 -0.0219 -0.5405
  148SAPE   C3716360   6.040   1.085   7.528 -0.1333 -0.3178 -0.0872
  148SAPE   H7X16361   6.145   1.107   7.557 -0.1920  1.6499 -1.1620
  148SAPE   H7Y16362   6.036   0.974   7.530  2.8686 -0.5168 -0.7291
  148SAPE   C3816363   5.947   1.155   7.626  0.0656 -0.4431 -0.2646
  148SAPE   H8X16364   5.846   1.182   7.590 -0.2646  0.8092  1.4289
  148SAPE   H8Y16365   5.997   1.247   7.665  0.7441 -1.0220  0.2665
  148SAPE   C3916366   5.925   1.064   7.747 -0.3449 -0.8306  0.0940
  148SAPE   H9X16367   6.015   1.002   7.763  1.2790  0.6717 -2.5595
  148SAPE   H9Y16368   5.847   0.993   7.713 -1.0914  0.6802 -1.5076
  148SAPE  C31016369   5.879   1.138   7.874  0.3577  0.0824 -0.3016
  148SAPE  H10X16370   5.948   1.222   7.896  1.2006 -0.1983 -1.7434
  148SAPE  H10Y16371   5.877   1.063   7.956  0.8465 -2.4877 -2.5185
  148SAPE  C31116372   5.734   1.188   7.862  0.5401  0.5598  0.1925
  148SAPE  H11X16373   5.659   1.106   7.864  1.3463 -0.1983  1.9043
  148SAPE  H11Y16374   5.742   1.241   7.765  0.2789  1.1956  0.5127
  148SAPE  C31216375   5.699   1.284   7.972 -0.4057 -0.2705 -0.3927
  148SAPE  H12X16376   5.610   1.342   7.942  0.4938  2.2594  1.4761
  148SAPE  H12Y16377   5.791   1.347   7.976  0.0332 -0.8943 -0.4502
  148SAPE  C31316378   5.673   1.229   8.111 -0.4386 -0.5290 -0.0344
  148SAPE  H13X16379   5.764   1.177   8.147 -0.1156 -0.4436 -0.7063
  148SAPE  H13Y16380   5.596   1.150   8.096 -1.6707  0.8485 -1.2475
  148SAPE  C31416381   5.624   1.341   8.204  0.8688  0.2620 -0.6993
  148SAPE  H14X16382   5.524   1.382   8.179  0.7026  1.7668  2.0644
  148SAPE  H14Y16383   5.690   1.428   8.184 -1.7537  2.9298  1.3486
  148SAPE  C31516384   5.644   1.314   8.358 -0.1257  0.5570 -0.2169
  148SAPE  H15X16385   5.740   1.258   8.370 -0.9078 -0.7700  0.0470
  148SAPE  H15Y16386   5.567   1.240   8.389  0.7003 -0.4086 -0.4202
  148SAPE  C31616387   5.635   1.418   8.467 -0.3163 -0.3607  0.1389
  148SAPE  H16X16388   5.715   1.493   8.448 -1.5877  1.2315  0.7933
  148SAPE  H16Y16389   5.647   1.384   8.572 -3.2539  3.2503  1.8998
  148SAPE  C31716390   5.493   1.475   8.482 -0.3139 -0.1827 -0.0805
  148SAPE  H17X16391   5.418   1.395   8.500 -0.2369  0.0930  1.6999
  148SAPE  H17Y16392   5.466   1.523   8.385 -0.5520 -0.3706 -0.1076
  148SAPE  C31816393   5.485   1.585   8.595 -0.7442 -0.3204  0.6329
  148SAPE  H18X16394   5.518   1.543   8.692  0.7198 -0.1950  0.2193
  148SAPE  H18Y16395   5.377   1.611   8.595 -1.4142 -2.4912 -2.9063
  148SAPE  H18Z16396   5.539   1.679   8.570 -2.7442  0.0325 -3.1520
  149SAPE     N16397   5.024   1.793   6.161 -0.3639 -0.2646  0.0825
  149SAPE   HN116398   5.102   1.731   6.134  1.3392  1.8892 -0.2389
  149SAPE   HN216399   4.932   1.758   6.127 -0.3873  0.8024 -1.0346
  149SAPE   HN316400   5.048   1.886   6.121  1.7106 -1.2613 -1.1646
  149SAPE   C1216401   5.023   1.810   6.308  0.5175  0.1940 -0.7047
  149SAPE  H12A16402   4.948   1.882   6.347  0.3293 -0.9757  1.1988
  149SAPE  H12B16403   5.126   1.839   6.339  0.3908  1.9535 -1.7546
  149SAPE   C1116404   4.974   1.675   6.383 -0.6295  0.1989  0.2222
  149SAPE  H11A16405   4.873   1.649   6.346 -1.1044  1.9684  0.1638
  149SAPE  H11B16406   4.977   1.716   6.486 -1.5461  3.3278 -0.8853
  149SAPE     P16407   5.040   1.425   6.440  0.3354 -0.0366 -0.2490
  149SAPE   O1316408   4.900   1.400   6.464 -0.0459 -0.2883 -0.4878
  149SAPE   O1416409   5.126   1.323   6.373 -0.1818 -0.3981  0.0454
  149SAPE   O1216410   5.064   1.573   6.375  0.1074  0.1555  0.0187
  149SAPE   O1116411   5.108   1.440   6.584 -0.0995 -0.7566  0.1901
  149SAPE    C116412   5.197   1.545   6.617  0.0730 -1.0172 -0.3263
  149SAPE    HA16413   5.299   1.504   6.598  0.1286 -0.1676 -2.1144
  149SAPE    HB16414   5.169   1.631   6.552 -0.9598  0.7698  2.3129
  149SAPE    C216415   5.191   1.596   6.762  0.0318 -0.5376 -0.0155
  149SAPE    HS16416   5.259   1.683   6.774  0.0895 -0.4814 -0.7058
  149SAPE   O2116417   5.221   1.493   6.852  0.0755  0.4043  0.5984
  149SAPE   C2116418   5.348   1.480   6.878 -0.8408 -0.1207 -0.8813
  149SAPE   O2216419   5.433   1.559   6.848 -0.7393 -0.5593 -0.1947
  149SAPE   C2216420   5.370   1.358   6.968 -0.2211 -0.0755  0.4539
  149SAPE   H2R16421   5.327   1.266   6.924 -0.5859  0.4646 -0.3291
  149SAPE   H2S16422   5.477   1.344   6.993  0.3185  1.2242 -0.9381
  149SAPE    C316423   5.045   1.645   6.793  0.5589  0.1931  0.4921
  149SAPE    HX16424   4.982   1.557   6.771  1.3768 -0.1464 -0.5775
  149SAPE    HY16425   5.026   1.722   6.715  0.7175  1.2767  1.5017
  149SAPE   O3116426   5.034   1.694   6.926  0.7874 -0.1599  0.1773
  149SAPE   C3116427   5.077   1.822   6.941  0.8515  0.2091  0.3274
  149SAPE   O3216428   5.119   1.896   6.856  0.1611 -0.0469 -0.0978
  149SAPE   C3216429   5.085   1.866   7.092 -0.2336  0.1665  0.0373
  149SAPE   H2X16430   4.980   1.844   7.121 -1.2705  1.1304 -2.6853
  149SAPE   H2Y16431   5.116   1.973   7.102  1.4432 -0.0829 -1.8957
  149SAPE   C2316432   5.302   1.394   7.101 -0.6873  1.1284 -0.1463
  149SAPE   H3R16433   5.193   1.409   7.090 -0.9645 -0.1752  0.5407
  149SAPE   H3S16434   5.359   1.481   7.141  0.8184  0.7735 -1.3815
  149SAPE   C2416435   5.312   1.292   7.218  0.1368 -0.4171 -0.2723
  149SAPE   H4R16436   5.285   1.191   7.181 -1.6982 -0.0522  0.0133
  149SAPE   H4S16437   5.229   1.322   7.285  1.1624 -0.6650  1.1491
  149SAPE   C2516438   5.452   1.288   7.275  1.0084  0.2706 -0.6313
  149SAPE   H5R16439   5.526   1.309   7.197 -0.1974 -1.6877 -2.4026
  149SAPE   C2616440   5.482   1.273   7.409  0.7028  0.8337 -0.6609
  149SAPE   H6R16441   5.586   1.286   7.441  1.4526 -2.5061 -1.3488
  149SAPE   C2716442   5.380   1.252   7.523 -0.5411 -0.4176 -0.5523
  149SAPE   H7R16443   5.335   1.151   7.510  0.0447 -1.1630  2.4428
  149SAPE   H7S16444   5.307   1.335   7.522  1.3495  1.4373  1.9485
  149SAPE   C2816445   5.434   1.259   7.665 -0.5020 -0.5337 -0.3165
  149SAPE   H8R16446   5.529   1.314   7.675 -0.4704 -0.5964 -0.2726
  149SAPE   C2916447   5.380   1.208   7.772 -0.7907  0.5585 -0.0786
  149SAPE   H9R16448   5.423   1.225   7.872 -3.0590 -0.7488  1.2334
  149SAPE  C21016449   5.247   1.124   7.774 -0.1910  0.0195 -0.4039
  149SAPE  H10R16450   5.266   1.034   7.712  0.2113  0.2984 -0.6920
  149SAPE  H10S16451   5.183   1.197   7.719  0.0301 -0.4698 -1.3431
  149SAPE  C21116452   5.191   1.088   7.906  0.8175  0.4217 -0.2057
  149SAPE  H11R16453   5.193   0.986   7.947 -0.7399  1.0238  1.5476
  149SAPE  C21216454   5.127   1.169   7.993 -0.6519 -0.6529  0.1176
  149SAPE  H12R16455   5.089   1.120   8.084 -1.1363  1.9345  1.3959
  149SAPE  C21316456   5.106   1.323   7.997  0.8115  0.1312  0.4608
  149SAPE  H13R16457   4.999   1.347   7.979  0.6573  1.1290  2.4625
  149SAPE  H13S16458   5.166   1.378   7.922 -0.2495  3.6740  2.0066
  149SAPE  C21416459   5.123   1.378   8.140  0.2201  0.1511 -0.0858
  149SAPE  H14R16460   5.058   1.329   8.214 -0.7518 -0.3182 -1.2177
  149SAPE  C21516461   5.204   1.472   8.180 -0.7579  0.5929  0.4236
  149SAPE  H15R16462   5.203   1.494   8.288 -0.6282 -1.7422  0.9414
  149SAPE  C21616463   5.301   1.559   8.102 -0.1184  0.5029 -0.0971
  149SAPE  H16R16464   5.355   1.502   8.024 -0.1782  0.6213 -0.2264
  149SAPE  H16S16465   5.386   1.593   8.164  2.0053 -2.6447 -1.0702
  149SAPE  C21716466   5.228   1.668   8.034 -0.0920 -0.5088 -0.0707
  149SAPE  H17R16467   5.151   1.709   8.102 -0.6103 -1.8098  0.1654
  149SAPE  H17S16468   5.169   1.624   7.950  0.8912 -3.4374  0.6406
  149SAPE  C21816469   5.308   1.782   7.965  0.2877 -0.4841  0.1188
  149SAPE  H18R16470   5.352   1.740   7.872 -0.9375 -2.1107  0.2268
  149SAPE  H18S16471   5.400   1.819   8.014 -0.6633  3.8972 -0.9371
  149SAPE  C21916472   5.218   1.897   7.922  0.4405  0.2071 -0.1994
  149SAPE  H19R16473   5.166   1.948   8.006  1.5873  1.9161 -0.4722
  149SAPE  H19S16474   5.143   1.850   7.855  0.6594  2.2404 -1.9763
  149SAPE  C22016475   5.302   2.004   7.844 -0.5467  0.2662 -0.1557
  149SAPE  H20R16476   5.362   1.959   7.762 -0.5420  1.2679 -0.7265
  149SAPE  H20S16477   5.368   2.050   7.920  0.3935 -4.5108  2.2637
  149SAPE  H20T16478   5.232   2.078   7.797  3.1372  4.4459  0.2845
  149SAPE   C3316479   5.178   1.769   7.169 -0.5538 -0.1993  0.5947
  149SAPE   H3X16480   5.285   1.791   7.148  0.6592 -5.2063  0.2778
  149SAPE   H3Y16481   5.178   1.667   7.125 -1.3032  0.1611 -0.2536
  149SAPE   C3416482   5.135   1.752   7.313 -0.2230  0.5225  0.4150
  149SAPE   H4X16483   5.034   1.706   7.316 -0.0638  0.2034  1.2459
  149SAPE   H4Y16484   5.114   1.857   7.343 -0.0188 -0.0271  2.6496
  149SAPE   C3516485   5.241   1.693   7.414 -0.3419  1.1129  0.7778
  149SAPE   H5X16486   5.326   1.764   7.418  2.8791 -2.3248 -1.0076
  149SAPE   H5Y16487   5.287   1.602   7.370  1.5978  2.1827  0.4627
  149SAPE   C3616488   5.197   1.654   7.552  0.6509 -0.5383 -0.3942
  149SAPE   H6X16489   5.186   1.745   7.615 -1.0950 -1.5019  0.7591
  149SAPE   H6Y16490   5.275   1.589   7.596 -0.1278 -0.2892  1.4171
  149SAPE   C3716491   5.066   1.564   7.554  0.1197 -0.0464  0.9168
  149SAPE   H7X16492   5.088   1.462   7.518 -1.7265 -0.4993  0.9817
  149SAPE   H7Y16493   4.990   1.623   7.498  1.2799  0.8886  0.2736
  149SAPE   C3816494   5.002   1.537   7.689  0.1449  0.0173  0.1565
  149SAPE   H8X16495   5.082   1.493   7.753  0.5171  0.3797 -0.0615
  149SAPE   H8Y16496   4.925   1.458   7.674 -0.7846  0.3084  2.8413
  149SAPE   C3916497   4.920   1.647   7.756  0.7336  0.2783  0.5957
  149SAPE   H9X16498   4.841   1.670   7.682  0.2441  3.9137  2.0689
  149SAPE   H9Y16499   4.979   1.741   7.762 -0.4632  1.1819 -1.1025
  149SAPE  C31016500   4.866   1.621   7.891 -0.9254  0.6341 -0.6734
  149SAPE  H10X16501   4.919   1.549   7.956 -1.1585  2.3655  1.5778
  149SAPE  H10Y16502   4.772   1.565   7.871  0.4655 -1.5545 -1.3954
  149SAPE  C31116503   4.850   1.751   7.969  0.0040  0.0481  0.6581
  149SAPE  H11X16504   4.803   1.821   7.896 -2.4127 -2.2593 -0.1891
  149SAPE  H11Y16505   4.947   1.787   8.010  0.1285 -0.6908  1.0288
  149SAPE  C31216506   4.748   1.733   8.080  0.5436 -0.7968  0.4920
  149SAPE  H12X16507   4.795   1.669   8.158  0.1044  0.3834  1.7768
  149SAPE  H12Y16508   4.659   1.686   8.034  0.4110 -1.0638  1.0057
  149SAPE  C31316509   4.712   1.877   8.139 -0.3469  0.1981  0.2148
  149SAPE  H13X16510   4.656   1.932   8.061  1.6521 -0.7608 -2.0488
  149SAPE  H13Y16511   4.803   1.939   8.155 -0.1098  0.7914 -2.8258
  149SAPE  C31416512   4.623   1.852   8.259 -0.4104 -0.8329 -0.1763
  149SAPE  H14X16513   4.681   1.780   8.322 -1.2911 -0.6030  0.9246
  149SAPE  H14Y16514   4.527   1.820   8.215 -1.9858  1.0569  1.7148
  149SAPE  C31516515   4.600   1.978   8.347 -0.3548  0.4297 -0.3109
  149SAPE  H15X16516   4.583   2.069   8.286  1.0193 -1.3042 -3.4748
  149SAPE  H15Y16517   4.693   1.997   8.404 -0.3802  2.4007 -0.8695
  149SAPE  C31616518   4.482   1.957   8.442 -0.5612  0.0329 -0.0036
  149SAPE  H16X16519   4.500   1.863   8.498 -4.0983 -0.7611  0.0229
  149SAPE  H16Y16520   4.396   1.950   8.373  0.1581 -1.0846 -0.8130
  149SAPE  C31716521   4.472   2.080   8.538  0.0866  0.3710  0.2172
  149SAPE  H17X16522   4.538   2.162   8.501 -1.1284  1.4132  0.3054
  149SAPE  H17Y16523   4.525   2.064   8.635  0.2896 -1.5779 -0.1626
  149SAPE  C31816524   4.322   2.124   8.561 -0.2853  0.1356  0.0390
  149SAPE  H18X16525   4.285   2.202   8.492 -3.2163  1.1952  2.5895
  149SAPE  H18Y16526   4.305   2.171   8.660 -0.9576  1.3092 -0.6140
  149SAPE  H18Z16527   4.249   2.040   8.547 -1.8532  1.4608 -0.0521
  150SAPE     N16528   3.522   1.621   6.322  0.7463 -0.3848  0.1101
  150SAPE   HN116529   3.608   1.562   6.329  1.6451  0.8094 -0.4237
  150SAPE   HN216530   3.441   1.557   6.311 -0.6196  1.3990 -0.6291
  150SAPE   HN316531   3.525   1.679   6.235 -1.3249  0.7069  0.7027
  150SAPE   C1216532   3.499   1.700   6.451 -0.4131  0.6040  1.3568
  150SAPE  H12A16533   3.581   1.774   6.457 -0.5880  0.7640  1.8024
  150SAPE  H12B16534   3.503   1.628   6.535 -0.6668 -1.6955 -0.4748
  150SAPE   C1116535   3.377   1.795   6.447 -1.0165  0.1876  0.4149
  150SAPE  H11A16536   3.389   1.870   6.528 -0.9016  1.8673 -1.0960
  150SAPE  H11B16537   3.280   1.743   6.466 -0.4165 -1.6993 -1.3235
  150SAPE     P16538   3.344   2.024   6.310 -0.1337 -0.1069  0.1249
  150SAPE   O1316539   3.465   2.081   6.249 -0.0412 -0.1835  0.4676
  150SAPE   O1416540   3.218   2.039   6.228  0.0836 -0.3490  0.8085
  150SAPE   O1216541   3.365   1.862   6.322  0.3994  0.1414  0.4294
  150SAPE   O1116542   3.323   2.077   6.466  0.4211  0.2539 -0.0616
  150SAPE    C116543   3.266   2.202   6.495  0.2485 -0.3351 -0.5228
  150SAPE    HA16544   3.349   2.274   6.511 -1.0831  0.9555  0.9981
  150SAPE    HB16545   3.188   2.228   6.421 -0.8832 -0.9065  0.4289
  150SAPE    C216546   3.186   2.211   6.634  0.2960  0.0766  0.3003
  150SAPE    HS16547   3.085   2.170   6.613  0.7629 -1.3038  0.5892
  150SAPE   O2116548   3.191   2.343   6.687 -0.7080  0.2256  0.6590
  150SAPE   C2116549   3.077   2.395   6.734 -0.3651 -0.5239 -0.0787
  150SAPE   O2216550   2.969   2.343   6.717  0.2790 -0.1474 -0.5705
  150SAPE   C2216551   3.117   2.509   6.819 -0.0956  0.0035 -0.5417
  150SAPE   H2R16552   3.184   2.479   6.902 -0.6134 -2.2242 -0.8436
  150SAPE   H2S16553   3.166   2.582   6.751  1.8541  2.3270  3.0764
  150SAPE    C316554   3.248   2.100   6.735 -0.9500  0.4002 -0.0742
  150SAPE    HX16555   3.351   2.138   6.754  0.0111 -1.6894 -0.8323
  150SAPE    HY16556   3.256   1.998   6.694  2.2247  0.2859  0.5439
  150SAPE   O3116557   3.174   2.108   6.859 -0.5532  0.4004  0.2504
  150SAPE   C3116558   3.057   2.050   6.857 -0.3940  0.1675 -0.5402
  150SAPE   O3216559   3.015   1.985   6.764  0.0599  0.1992  0.1629
  150SAPE   C3216560   2.986   2.064   6.998 -0.1089  0.2958 -0.1746
  150SAPE   H2X16561   2.885   2.018   6.996  0.1147 -0.2629  0.7492
  150SAPE   H2Y16562   2.960   2.172   7.004 -0.9740  0.1152 -0.5670
  150SAPE   C2316563   2.998   2.589   6.872  0.4936  0.0299 -0.5577
  150SAPE   H3R16564   2.915   2.608   6.800  0.4803  1.9747 -0.0933
  150SAPE   H3S16565   3.045   2.688   6.891  0.9217 -0.5655  1.8252
  150SAPE   C2416566   2.945   2.521   7.004 -0.7098  1.0068 -0.1377
  150SAPE   H4R16567   3.019   2.465   7.066 -0.6697 -0.3598 -1.3625
  150SAPE   H4S16568   2.876   2.443   6.964 -0.6683  1.2157 -0.6131
  150SAPE   C2516569   2.862   2.620   7.079  1.4646 -0.4707 -0.0679
  150SAPE   H5R16570   2.817   2.694   7.011  2.4098  1.3118  1.1643
  150SAPE   C2616571   2.841   2.631   7.209  0.0338 -0.7434 -0.0339
  150SAPE   H6R16572   2.777   2.713   7.247  0.3764 -0.4556 -0.0769
  150SAPE   C2716573   2.901   2.535   7.311  0.0423 -0.3293  0.8526
  150SAPE   H7R16574   2.928   2.443   7.254 -3.1813 -1.6028  1.1869
  150SAPE   H7S16575   2.827   2.496   7.384 -0.9725  1.6566  0.9247
  150SAPE   C2816576   3.012   2.605   7.380 -0.1351 -0.0356 -0.2755
  150SAPE   H8R16577   3.111   2.594   7.335  1.1634  2.1490  1.7936
  150SAPE   C2916578   3.003   2.649   7.508 -0.4997  0.6453 -0.4127
  150SAPE   H9R16579   3.094   2.700   7.543 -0.4974  0.6760 -0.4622
  150SAPE  C21016580   2.880   2.647   7.600 -0.1623 -0.0215 -0.6237
  150SAPE  H10R16581   2.870   2.543   7.635 -0.0464 -0.9204 -3.0547
  150SAPE  H10S16582   2.782   2.662   7.549 -1.3631  1.7645  2.0108
  150SAPE  C21116583   2.891   2.748   7.712 -0.4068 -0.0485 -0.3679
  150SAPE  H11R16584   2.849   2.846   7.686 -0.2650  0.3746  0.9212
  150SAPE  C21216585   2.930   2.721   7.834  0.1366 -0.1899 -0.1159
  150SAPE  H12R16586   2.917   2.794   7.915  0.3284 -2.1184  1.7478
  150SAPE  C21316587   2.973   2.589   7.895 -0.1183  0.0321  0.8900
  150SAPE  H13R16588   3.064   2.601   7.957  0.2809 -4.4585  1.5147
  150SAPE  H13S16589   3.005   2.515   7.819  3.0672  3.4636 -1.4603
  150SAPE  C21416590   2.851   2.521   7.968 -0.5990 -0.0882  0.3782
  150SAPE  H14R16591   2.754   2.548   7.925  0.1978  1.1116 -0.7769
  150SAPE  C21516592   2.870   2.457   8.082  0.2307  0.0883 -0.1585
  150SAPE  H15R16593   2.783   2.415   8.134  0.5229 -1.7191 -1.0529
  150SAPE  C21616594   2.999   2.446   8.160  0.5659  0.2947  0.5559
  150SAPE  H16R16595   3.086   2.443   8.092 -0.7128 -2.8246 -1.1645
  150SAPE  H16S16596   2.997   2.347   8.211 -3.7596  0.7141  1.6004
  150SAPE  C21716597   3.008   2.555   8.265 -0.3587 -0.0310 -0.1890
  150SAPE  H17R16598   2.974   2.650   8.218 -2.8350 -1.1558 -0.8635
  150SAPE  H17S16599   3.115   2.568   8.292  0.0370  0.4873 -1.8861
  150SAPE  C21816600   2.936   2.522   8.397 -0.2222 -0.4712  0.3242
  150SAPE  H18R16601   2.952   2.414   8.418  1.9448 -0.2067  0.2684
  150SAPE  H18S16602   2.829   2.543   8.376 -0.2129 -0.1509  0.5953
  150SAPE  C21916603   2.995   2.601   8.513 -0.3242 -0.0113 -0.1905
  150SAPE  H19R16604   3.093   2.553   8.535 -0.8356 -0.7059  0.6284
  150SAPE  H19S16605   2.943   2.582   8.609  1.1725  1.7346  1.0361
  150SAPE  C22016606   3.002   2.747   8.477 -0.1354 -0.2766  0.0641
  150SAPE  H20R16607   2.897   2.767   8.446 -0.1086 -1.7267 -1.0695
  150SAPE  H20S16608   3.075   2.767   8.396 -0.1225  1.4951  0.4808
  150SAPE  H20T16609   3.022   2.809   8.566 -0.2033  0.1293 -0.1979
  150SAPE   C3316610   3.065   2.005   7.116 -0.8063  0.8803  0.4167
  150SAPE   H3X16611   3.168   2.042   7.131  0.7200 -3.4162  1.8952
  150SAPE   H3Y16612   3.084   1.897   7.098 -0.0748  0.8052  1.5421
  150SAPE   C3416613   3.000   2.006   7.254 -0.2325 -0.2777 -0.3123
  150SAPE   H4X16614   3.044   1.918   7.305  0.0697 -0.4099 -0.7899
  150SAPE   H4Y16615   2.891   1.986   7.251 -0.3727  0.1878  1.0841
  150SAPE   C3516616   3.036   2.135   7.332 -0.1036 -1.0455 -0.3914
  150SAPE   H5X16617   3.009   2.228   7.280  0.0551 -1.8877 -2.0342
  150SAPE   H5Y16618   3.147   2.133   7.337 -0.0530  1.3325  1.4347
  150SAPE   C3616619   2.985   2.147   7.475  0.5456 -0.3914 -0.1711
  150SAPE   H6X16620   2.874   2.142   7.477  0.5475 -0.7354  2.1478
  150SAPE   H6Y16621   2.999   2.249   7.517  0.9770 -0.0944 -0.9991
  150SAPE   C3716622   3.037   2.044   7.574 -0.2519  0.3861 -1.0008
  150SAPE   H7X16623   3.146   2.059   7.562  0.0583 -0.1322  0.8307
  150SAPE   H7Y16624   2.998   1.946   7.539  0.8884  0.2867 -2.0639
  150SAPE   C3816625   3.002   2.084   7.716  0.7467 -0.1374 -0.0049
  150SAPE   H8X16626   2.891   2.080   7.718  0.6619  0.4372 -1.5189
  150SAPE   H8Y16627   3.016   2.192   7.740 -3.6193  0.4658  0.6268
  150SAPE   C3916628   3.060   1.993   7.821 -0.1095 -0.2870  0.6886
  150SAPE   H9X16629   3.170   1.983   7.815 -0.2239 -1.0828 -0.5391
  150SAPE   H9Y16630   3.016   1.894   7.796 -1.5871  1.0436 -2.6613
  150SAPE  C31016631   3.017   2.032   7.957 -0.1321 -0.0450  0.4343
  150SAPE  H10X16632   2.906   2.030   7.955 -0.1925  0.5335  1.7967
  150SAPE  H10Y16633   3.035   2.138   7.983 -1.4897 -0.1573  2.0266
  150SAPE  C31116634   3.062   1.932   8.072  0.0701  0.1567  0.9100
  150SAPE  H11X16635   3.144   1.970   8.136 -1.1239  0.7153  2.1580
  150SAPE  H11Y16636   3.105   1.837   8.034  1.4268  0.9077  0.4944
  150SAPE  C31216637   2.953   1.908   8.179 -0.0838  0.0554  0.0445
  150SAPE  H12X16638   2.933   2.002   8.235  1.4175 -0.0204  0.7540
  150SAPE  H12Y16639   3.011   1.850   8.254 -0.5810  0.8857  1.1040
  150SAPE  C31316640   2.825   1.833   8.136  0.2674 -0.2234  0.7422
  150SAPE  H13X16641   2.859   1.769   8.052  1.2223  0.3268  0.6875
  150SAPE  H13Y16642   2.748   1.904   8.099 -1.0813 -1.5943  0.8556
  150SAPE  C31416643   2.771   1.744   8.248 -0.2097 -0.0518 -0.3026
  150SAPE  H14X16644   2.812   1.776   8.346  1.7672 -1.0949 -0.7191
  150SAPE  H14Y16645   2.800   1.637   8.233  2.2072  0.5309 -0.1864
  150SAPE  C31516646   2.619   1.750   8.265  0.0172  0.6298 -0.4703
  150SAPE  H15X16647   2.566   1.704   8.178 -2.0023 -0.4481  1.2512
  150SAPE  H15Y16648   2.586   1.857   8.269  0.0685  0.7500 -2.1664
  150SAPE  C31616649   2.578   1.663   8.387 -0.4171 -0.9204  0.1879
  150SAPE  H16X16650   2.635   1.693   8.477 -1.7636  0.0525  0.7533
  150SAPE  H16Y16651   2.598   1.555   8.371  2.5516 -0.0890 -2.8016
  150SAPE  C31716652   2.428   1.691   8.427 -0.2848 -0.1096  0.4516
  150SAPE  H17X16653   2.389   1.792   8.399 -3.5906 -1.6420 -0.9749
  150SAPE  H17Y16654   2.419   1.697   8.538  0.1695 -0.2212  0.4945
  150SAPE  C31816655   2.335   1.593   8.363  0.3707 -0.4106  0.0687
  150SAPE  H18X16656   2.341   1.487   8.398 -0.1099 -1.1585 -1.9658
  150SAPE  H18Y16657   2.351   1.578   8.254  3.3312 -2.0970  0.6180
  150SAPE  H18Z16658   2.232   1.631   8.375  0.5241  0.0001  0.0810
  151SAPE     N16659   6.328   6.842   6.484  0.2096 -0.3605 -0.5646
  151SAPE   HN116660   6.376   6.789   6.408 -1.7562 -1.1074 -1.3629
  151SAPE   HN216661   6.400   6.877   6.550 -0.0148  0.1108 -0.5634
  151SAPE   HN316662   6.262   6.777   6.531 -0.2732  1.3869  1.3046
  151SAPE   C1216663   6.252   6.952   6.426  0.1313  0.0728 -0.5327
  151SAPE  H12A16664   6.214   7.006   6.515  0.1214  0.6743 -0.8950
  151SAPE  H12B16665   6.171   6.919   6.358 -0.1087  1.2523 -0.8394
  151SAPE   C1116666   6.345   7.038   6.353 -0.1229 -0.1443 -0.4565
  151SAPE  H11A16667   6.416   7.079   6.428 -3.2724  1.4032  1.9463
  151SAPE  H11B16668   6.283   7.123   6.318  0.7439  0.2602 -1.0417
  151SAPE     P16669   6.487   7.059   6.135 -0.1355 -0.4886 -0.1026
  151SAPE   O1316670   6.564   6.972   6.043  0.0408 -0.8830 -0.1552
  151SAPE   O1416671   6.388   7.147   6.067 -0.0343  0.1679 -0.0039
  151SAPE   O1216672   6.402   6.976   6.243  0.0931 -0.6547  0.0526
  151SAPE   O1116673   6.586   7.145   6.218 -0.4808  0.6049 -0.5857
  151SAPE    C116674   6.707   7.085   6.265  0.0925  0.5726 -0.0013
  151SAPE    HA16675   6.713   6.975   6.248 -0.8990  0.3816  0.7495
  151SAPE    HB16676   6.789   7.136   6.210 -0.2616  0.7270 -0.3884
  151SAPE    C216677   6.732   7.119   6.415 -0.1419 -0.0378 -0.8518
  151SAPE    HS16678   6.662   7.068   6.484 -3.3065  0.2598 -3.5972
  151SAPE   O2116679   6.723   7.262   6.422  0.3918 -0.2098 -0.4277
  151SAPE   C2116680   6.641   7.317   6.504 -0.3172 -0.4263  0.4642
  151SAPE   O2216681   6.554   7.254   6.562  0.0903  0.0715 -0.6322
  151SAPE   C2216682   6.667   7.465   6.507  0.5239 -0.5331  0.5015
  151SAPE   H2R16683   6.777   7.479   6.520  0.7099 -1.9676  0.6586
  151SAPE   H2S16684   6.643   7.510   6.409 -0.6817 -0.8233  0.6506
  151SAPE    C316685   6.872   7.066   6.473 -0.1554 -0.2063 -0.5304
  151SAPE    HX16686   6.931   7.074   6.379  0.7546  0.5929  0.0934
  151SAPE    HY16687   6.862   6.957   6.492 -0.1661  0.2224  2.2325
  151SAPE   O3116688   6.916   7.148   6.591  0.4244  0.2590  0.3338
  151SAPE   C3116689   6.867   7.095   6.700 -0.7796  0.1346  0.3159
  151SAPE   O3216690   6.804   6.987   6.706 -0.1300  0.0717 -0.8039
  151SAPE   C3216691   6.891   7.188   6.818 -0.3532 -0.2116  0.0406
  151SAPE   H2X16692   6.809   7.262   6.827  1.1927  1.5356  0.4323
  151SAPE   H2Y16693   6.985   7.242   6.794 -0.0621 -1.1200 -0.9413
  151SAPE   C2316694   6.591   7.524   6.624 -0.3563  0.0643 -0.7275
  151SAPE   H3R16695   6.485   7.492   6.634 -0.3990  0.8698  2.3810
  151SAPE   H3S16696   6.596   7.635   6.617  0.3665  0.3989  2.8394
  151SAPE   C2416697   6.659   7.504   6.758 -0.0255  1.1649 -0.3819
  151SAPE   H4R16698   6.645   7.396   6.778 -0.0830  0.6634 -2.8567
  151SAPE   H4S16699   6.596   7.553   6.836 -0.0437  0.4770  0.0429
  151SAPE   C2516700   6.805   7.539   6.782 -0.3674 -0.6967  0.5776
  151SAPE   H5R16701   6.878   7.524   6.701  0.6016 -1.0158  1.4873
  151SAPE   C2616702   6.855   7.574   6.904  0.2897  0.3813  0.3296
  151SAPE   H6R16703   6.958   7.611   6.911  0.1368  0.6691  1.1355
  151SAPE   C2716704   6.787   7.585   7.029  0.2214 -0.4752 -0.1271
  151SAPE   H7R16705   6.692   7.527   7.024 -0.2387  0.0336  1.6773
  151SAPE   H7S16706   6.756   7.690   7.046 -1.1466 -0.9389  0.4126
  151SAPE   C2816707   6.867   7.554   7.158  0.3513 -0.0231  0.1687
  151SAPE   H8R16708   6.971   7.522   7.139  0.3206 -1.2382  1.8782
  151SAPE   C2916709   6.803   7.560   7.281 -0.2131 -0.8184 -0.6226
  151SAPE   H9R16710   6.860   7.553   7.375 -1.6131 -0.0244  0.3193
  151SAPE  C21016711   6.657   7.602   7.297  0.7212  0.0256  0.0991
  151SAPE  H10R16712   6.603   7.519   7.347 -0.9644  1.0915  0.1159
  151SAPE  H10S16713   6.600   7.619   7.203 -1.8985  1.7643  1.8909
  151SAPE  C21116714   6.640   7.737   7.365 -0.1404 -0.1780 -0.7584
  151SAPE  H11R16715   6.673   7.829   7.314 -2.8579  0.8183 -0.9028
  151SAPE  C21216716   6.552   7.764   7.464  0.7819  0.1202 -0.3260
  151SAPE  H12R16717   6.540   7.862   7.511  0.0731 -0.6531  1.1746
  151SAPE  C21316718   6.459   7.658   7.516  0.0575 -0.6701 -0.3067
  151SAPE  H13R16719   6.495   7.554   7.503  1.1199 -1.0769  4.3682
  151SAPE  H13S16720   6.368   7.661   7.452 -1.9059 -2.1595  2.2379
  151SAPE  C21416721   6.424   7.692   7.660  0.1875 -0.7811 -0.0352
  151SAPE  H14R16722   6.316   7.698   7.682  0.2695  1.5972 -0.0322
  151SAPE  C21516723   6.506   7.697   7.768  0.1364  0.4971  1.2000
  151SAPE  H15R16724   6.470   7.735   7.865  2.6454  1.2605  1.8950
  151SAPE  C21616725   6.650   7.663   7.773 -0.2856  0.1752 -0.3615
  151SAPE  H16R16726   6.712   7.739   7.826 -1.1589  2.0278 -1.8603
  151SAPE  H16S16727   6.684   7.642   7.669 -2.2911 -1.0732 -0.8269
  151SAPE  C21716728   6.668   7.532   7.859  1.2218 -0.5696 -0.6929
  151SAPE  H17R16729   6.778   7.516   7.862  1.2222 -0.5966 -0.8096
  151SAPE  H17S16730   6.620   7.448   7.802 -0.7358  1.1863 -1.7691
  151SAPE  C21816731   6.627   7.516   8.007 -0.1282  0.0481 -0.4395
  151SAPE  H18R16732   6.518   7.502   8.023 -0.2626  0.7084 -0.7070
  151SAPE  H18S16733   6.659   7.610   8.057  2.0817 -0.0920 -1.5116
  151SAPE  C21916734   6.715   7.414   8.076 -0.5758 -0.1605 -0.1273
  151SAPE  H19R16735   6.670   7.395   8.176 -0.0185  0.3506  0.2225
  151SAPE  H19S16736   6.811   7.461   8.103  0.1417 -0.2919 -2.2388
  151SAPE  C22016737   6.742   7.281   8.003 -0.3977 -0.6962  0.0935
  151SAPE  H20R16738   6.800   7.294   7.910  0.0522 -1.0479  0.3190
  151SAPE  H20S16739   6.793   7.205   8.066  0.2903 -1.4621 -1.3377
  151SAPE  H20T16740   6.643   7.235   7.984 -0.5989 -1.1594  1.9980
  151SAPE   C3316741   6.896   7.094   6.945 -0.4225  0.1760 -0.1122
  151SAPE   H3X16742   6.977   7.021   6.926 -0.4699  0.3501 -1.0574
  151SAPE   H3Y16743   6.806   7.035   6.971 -0.2191 -0.1669 -0.1806
  151SAPE   C3416744   6.941   7.178   7.064 -0.0106 -0.6545  0.1186
  151SAPE   H4X16745   6.883   7.271   7.075  0.6330 -0.2415  0.0723
  151SAPE   H4Y16746   7.038   7.229   7.047 -0.6166  0.0049 -1.6213
  151SAPE   C3516747   6.927   7.095   7.192  0.1196 -0.3405 -0.7215
  151SAPE   H5X16748   6.989   7.005   7.171 -1.1224 -0.4182 -5.0316
  151SAPE   H5Y16749   6.820   7.069   7.199 -0.1074  0.6024 -0.5527
  151SAPE   C3616750   6.980   7.171   7.309  0.0613 -0.6084 -0.4081
  151SAPE   H6X16751   6.943   7.276   7.318  1.2988 -0.2876  1.4270
  151SAPE   H6Y16752   7.089   7.193   7.298  0.0655  1.0056  2.0151
  151SAPE   C3716753   6.951   7.098   7.439  0.1644 -0.4974 -0.6331
  151SAPE   H7X16754   7.005   7.002   7.444 -2.4439 -2.0159  0.6840
  151SAPE   H7Y16755   6.842   7.076   7.450 -0.1724  0.4292 -1.9053
  151SAPE   C3816756   6.982   7.185   7.558  0.2954 -0.7930  0.3601
  151SAPE   H8X16757   6.943   7.288   7.540  1.5166 -0.3240  0.3046
  151SAPE   H8Y16758   7.092   7.201   7.559  0.1628  0.2602 -0.1755
  151SAPE   C3916759   6.936   7.132   7.694 -0.0435 -0.2776  0.0202
  151SAPE   H9X16760   6.826   7.131   7.705 -0.2201 -4.1313 -0.7666
  151SAPE   H9Y16761   6.963   7.208   7.771 -1.3765  2.5324 -2.0792
  151SAPE  C31016762   6.984   6.997   7.730  0.5657 -0.1288 -0.0388
  151SAPE  H10X16763   7.074   6.965   7.672  0.5257 -2.0048  0.8675
  151SAPE  H10Y16764   6.918   6.912   7.703  1.6661 -2.9682  4.9620
  151SAPE  C31116765   7.010   6.949   7.876 -0.2352 -0.3646  0.0154
  151SAPE  H11X16766   7.042   6.843   7.881 -2.1672 -0.9799  0.3700
  151SAPE  H11Y16767   6.911   6.961   7.927  0.4959  2.2144  0.9934
  151SAPE  C31216768   7.113   7.047   7.956  0.2854 -0.2636 -0.0677
  151SAPE  H12X16769   7.068   7.149   7.957  0.7415 -0.0430 -1.0097
  151SAPE  H12Y16770   7.208   7.053   7.900 -0.4001 -2.1699 -1.5594
  151SAPE  C31316771   7.142   7.003   8.103 -0.3031  0.6900  0.1689
  151SAPE  H13X16772   7.230   6.935   8.098  0.1804  1.1845  1.6104
  151SAPE  H13Y16773   7.060   6.941   8.143  0.5769  0.0430  1.0212
  151SAPE  C31416774   7.180   7.114   8.201  0.6735 -0.4973  0.0111
  151SAPE  H14X16775   7.096   7.185   8.223  1.2620 -0.5398  2.8249
  151SAPE  H14Y16776   7.248   7.177   8.140 -2.0843  1.2655 -1.4669
  151SAPE  C31516777   7.232   7.073   8.332  0.4073 -0.0442 -0.0731
  151SAPE  H15X16778   7.299   6.987   8.314 -1.1684 -1.1897 -0.6508
  151SAPE  H15Y16779   7.154   7.032   8.399  0.6059  0.9626  0.8155
  151SAPE  C31616780   7.295   7.194   8.395 -0.0395  0.4391 -0.8352
  151SAPE  H16X16781   7.217   7.274   8.393 -1.7931 -1.1755 -3.3758
  151SAPE  H16Y16782   7.371   7.221   8.319  0.0905 -0.6980 -1.1326
  151SAPE  C31716783   7.360   7.171   8.528  1.2447 -0.0741  0.2236
  151SAPE  H17X16784   7.436   7.248   8.555 -0.9194  1.4531  2.4461
  151SAPE  H17Y16785   7.417   7.076   8.537  0.3194 -0.5186  1.8356
  151SAPE  C31816786   7.267   7.174   8.647 -0.4540  0.1630 -0.6591
  151SAPE  H18X16787   7.175   7.119   8.617  0.4116 -0.8649 -1.5218
  151SAPE  H18Y16788   7.237   7.276   8.678  0.7428  0.0593  0.9682
  151SAPE  H18Z16789   7.305   7.130   8.741  1.0732  0.9209 -0.8979
  152SAPE     N16790   3.332   3.210   6.075 -0.2328 -0.4026  0.6897
  152SAPE   HN116791   3.331   3.140   5.999 -1.4525 -0.0587  0.3715
  152SAPE   HN216792   3.237   3.220   6.114 -0.6919  2.0312 -0.8418
  152SAPE   HN316793   3.355   3.302   6.030  0.1832 -0.2622  1.1793
  152SAPE   C1216794   3.429   3.179   6.182  0.1180  0.4641 -0.1272
  152SAPE  H12A16795   3.415   3.259   6.258 -1.7901  1.1389 -1.1191
  152SAPE  H12B16796   3.532   3.188   6.140 -0.1051 -0.8154 -1.0128
  152SAPE   C1116797   3.408   3.042   6.247 -0.5805  0.2310  0.3483
  152SAPE  H11A16798   3.305   3.026   6.287 -1.1156  1.5580 -0.4209
  152SAPE  H11B16799   3.465   3.041   6.343 -0.9581  2.5786  0.6680
  152SAPE     P16800   3.603   2.873   6.162  0.3009 -0.1778  0.6594
  152SAPE   O1316801   3.611   2.732   6.111 -0.0784  0.0123 -0.1578
  152SAPE   O1416802   3.688   2.969   6.086  0.5999 -0.0095  0.0797
  152SAPE   O1216803   3.450   2.930   6.166 -0.1432 -0.0890  0.0936
  152SAPE   O1116804   3.644   2.873   6.314  0.2218  0.0026 -0.0829
  152SAPE    C116805   3.605   2.763   6.397  0.8615 -0.2003 -0.2834
  152SAPE    HA16806   3.512   2.711   6.365  0.5624  0.9453 -1.3556
  152SAPE    HB16807   3.679   2.680   6.397  2.0719  0.8357 -0.4288
  152SAPE    C216808   3.577   2.805   6.548  0.2432  0.1508 -0.0053
  152SAPE    HS16809   3.488   2.871   6.539 -0.3359 -0.6860 -0.6878
  152SAPE   O2116810   3.699   2.865   6.595 -0.0580  0.4308 -0.1262
  152SAPE   C2116811   3.684   2.940   6.697 -0.3430  0.1181 -0.2745
  152SAPE   O2216812   3.579   2.983   6.739 -0.5208 -0.1282  0.5190
  152SAPE   C2216813   3.820   2.966   6.764 -0.3892 -0.1338 -0.3118
  152SAPE   H2R16814   3.811   2.940   6.872 -0.2195  0.9398 -0.0248
  152SAPE   H2S16815   3.899   2.904   6.717  0.6696  0.7225  0.2701
  152SAPE    C316816   3.541   2.675   6.634 -0.4189 -0.7969 -0.3236
  152SAPE    HX16817   3.623   2.601   6.619  0.9027  0.4425  0.5060
  152SAPE    HY16818   3.441   2.633   6.609 -1.0930  0.2038  0.5904
  152SAPE   O3116819   3.559   2.695   6.779  0.4429 -0.0660 -0.4510
  152SAPE   C3116820   3.446   2.737   6.837  0.3348  0.4588  0.0818
  152SAPE   O3216821   3.343   2.781   6.779  0.7698 -0.0681  0.0727
  152SAPE   C3216822   3.459   2.723   6.987 -0.2764  0.5065  0.2051
  152SAPE   H2X16823   3.549   2.786   7.006 -0.0712  0.6258 -1.0999
  152SAPE   H2Y16824   3.485   2.618   7.013 -3.0324 -0.7213 -1.5774
  152SAPE   C2316825   3.872   3.114   6.759  0.0895 -0.4707  0.4732
  152SAPE   H3R16826   3.821   3.162   6.673 -0.9780 -0.3943  1.1320
  152SAPE   H3S16827   3.982   3.125   6.749 -0.1259  0.4817 -1.2647
  152SAPE   C2416828   3.845   3.204   6.875  0.4990  0.0390  0.1351
  152SAPE   H4R16829   3.884   3.302   6.839  2.2598 -1.0379 -1.0156
  152SAPE   H4S16830   3.908   3.171   6.960 -1.5548 -0.6842  1.4483
  152SAPE   C2516831   3.700   3.200   6.920 -0.4141 -0.5948 -0.1719
  152SAPE   H5R16832   3.628   3.196   6.837  1.4162 -1.7578 -1.8068
  152SAPE   C2616833   3.669   3.202   7.050  0.0550 -0.2065 -0.4309
  152SAPE   H6R16834   3.564   3.191   7.080  0.5063 -1.4758  0.7811
  152SAPE   C2716835   3.766   3.213   7.166 -0.0241 -0.3837 -0.7992
  152SAPE   H7R16836   3.865   3.255   7.137 -0.4065  1.1558  0.0193
  152SAPE   H7S16837   3.793   3.109   7.191 -0.7177 -0.7281 -1.4633
  152SAPE   C2816838   3.724   3.311   7.283 -0.7491 -0.0061 -0.0160
  152SAPE   H8R16839   3.682   3.410   7.262 -0.3581  0.2746  0.4930
  152SAPE   C2916840   3.742   3.288   7.413 -0.1252  0.4213 -0.4907
  152SAPE   H9R16841   3.704   3.362   7.484  0.3049  0.1328  0.0504
  152SAPE  C21016842   3.815   3.161   7.464  0.3299 -0.1256 -0.2781
  152SAPE  H10R16843   3.915   3.151   7.418  0.3307 -1.0337 -0.0989
  152SAPE  H10S16844   3.754   3.070   7.440  0.3315 -0.5024  1.0702
  152SAPE  C21116845   3.835   3.177   7.612 -0.4856  0.0800 -0.2242
  152SAPE  H11R16846   3.905   3.259   7.633 -0.8246 -0.2826  2.7084
  152SAPE  C21216847   3.787   3.115   7.719  0.8183  0.7214 -0.3712
  152SAPE  H12R16848   3.824   3.149   7.816 -0.2218 -0.1023  0.3352
  152SAPE  C21316849   3.693   2.999   7.721  1.4486  1.0303  0.6023
  152SAPE  H13R16850   3.637   2.992   7.625 -4.6298  1.6427  3.5977
  152SAPE  H13S16851   3.604   3.012   7.786 -0.9100 -1.5472 -1.7987
  152SAPE  C21416852   3.765   2.877   7.770  0.5259 -0.0098 -0.1164
  152SAPE  H14R16853   3.840   2.885   7.850  1.5671  0.4136 -1.0961
  152SAPE  C21516854   3.762   2.751   7.720  0.0164 -1.4836  0.0822
  152SAPE  H15R16855   3.830   2.672   7.755  0.5043 -1.6338 -1.1382
  152SAPE  C21616856   3.677   2.704   7.603  0.1055  0.1087 -0.4002
  152SAPE  H16R16857   3.603   2.783   7.581  0.0126  0.4832  1.1379
  152SAPE  H16S16858   3.627   2.610   7.632 -0.0326  1.0486  2.7049
  152SAPE  C21716859   3.775   2.688   7.481  0.0163  0.3478  0.2166
  152SAPE  H17R16860   3.868   2.631   7.501 -0.5652 -0.7726 -0.1950
  152SAPE  H17S16861   3.813   2.787   7.448 -0.7938  0.0013 -1.9792
  152SAPE  C21816862   3.697   2.619   7.366  0.8995 -0.2324  0.1767
  152SAPE  H18R16863   3.605   2.681   7.366  1.2104  0.2603  1.8026
  152SAPE  H18S16864   3.677   2.511   7.382  1.3422 -0.5296 -1.1114
  152SAPE  C21916865   3.773   2.618   7.237 -0.1215 -0.1845  0.2294
  152SAPE  H19R16866   3.725   2.551   7.163  2.1672 -1.1005 -0.5462
  152SAPE  H19S16867   3.875   2.579   7.262  0.7871  0.8072 -1.7352
  152SAPE  C22016868   3.797   2.753   7.163 -0.4211 -0.0789  0.8566
  152SAPE  H20R16869   3.868   2.818   7.218  0.8848 -1.9042  1.4165
  152SAPE  H20S16870   3.696   2.795   7.142 -0.2439  2.0960  3.8140
  152SAPE  H20T16871   3.849   2.730   7.068 -0.8551 -0.0656  0.6092
  152SAPE   C3316872   3.334   2.773   7.066  0.0324 -0.5879  0.0299
  152SAPE   H3X16873   3.251   2.702   7.050  0.7091 -1.0864 -1.5231
  152SAPE   H3Y16874   3.306   2.874   7.028  0.0695 -1.3989 -2.3472
  152SAPE   C3416875   3.379   2.792   7.220  0.0902  0.4772  0.1276
  152SAPE   H4X16876   3.478   2.841   7.234 -0.1786  0.5071  2.4501
  152SAPE   H4Y16877   3.403   2.693   7.266  3.1417  0.4156 -1.3530
  152SAPE   C3516878   3.277   2.863   7.306  1.4130 -0.5922 -0.2652
  152SAPE   H5X16879   3.180   2.810   7.300  1.1029 -0.2437  1.1324
  152SAPE   H5Y16880   3.252   2.968   7.279 -1.6636 -1.2660 -0.3996
  152SAPE   C3616881   3.324   2.868   7.453 -0.3223  0.3371  0.0049
  152SAPE   H6X16882   3.421   2.921   7.464 -0.2887  0.4048 -0.5592
  152SAPE   H6Y16883   3.341   2.759   7.469 -0.5430  0.4311  0.8880
  152SAPE   C3716884   3.232   2.932   7.550  0.3670 -0.1287  0.3394
  152SAPE   H7X16885   3.127   2.897   7.549 -0.1880  1.2325  2.5682
  152SAPE   H7Y16886   3.223   3.041   7.532  1.3733  0.2791  2.0484
  152SAPE   C3816887   3.268   2.915   7.695 -0.4424 -0.1705 -0.0338
  152SAPE   H8X16888   3.372   2.944   7.722 -1.4083  3.4855  0.3868
  152SAPE   H8Y16889   3.242   2.809   7.713 -0.3590 -0.4712 -1.5671
  152SAPE   C3916890   3.180   3.005   7.794  0.0657  0.3685  0.5594
  152SAPE   H9X16891   3.077   2.965   7.785  0.8564 -1.4154 -1.2405
  152SAPE   H9Y16892   3.176   3.112   7.764  1.7243 -0.3795 -2.7801
  152SAPE  C31016893   3.229   3.004   7.942 -0.2055 -0.0002  0.1801
  152SAPE  H10X16894   3.156   3.063   8.002 -0.8303 -0.6415  0.0645
  152SAPE  H10Y16895   3.330   3.047   7.950 -0.7467  1.1391  1.0751
  152SAPE  C31116896   3.233   2.865   8.004  0.8951 -0.2470 -0.3475
  152SAPE  H11X16897   3.298   2.806   7.936 -0.8507 -1.7648 -0.7880
  152SAPE  H11Y16898   3.133   2.821   7.987  0.6273  0.0303  0.4577
  152SAPE  C31216899   3.288   2.874   8.151  0.7228 -0.0105 -0.7039
  152SAPE  H12X16900   3.191   2.877   8.204  0.8612 -2.2817 -0.2143
  152SAPE  H12Y16901   3.348   2.967   8.158  0.1428  0.3298 -0.2296
  152SAPE  C31316902   3.352   2.747   8.209 -0.0063  0.0952 -0.9234
  152SAPE  H13X16903   3.438   2.706   8.151 -0.3880 -0.4341 -1.1208
  152SAPE  H13Y16904   3.269   2.674   8.201  0.4257 -0.7081  1.3229
  152SAPE  C31416905   3.400   2.759   8.359 -0.0154 -1.1738 -0.2943
  152SAPE  H14X16906   3.308   2.773   8.420  0.7044  1.3727  0.3343
  152SAPE  H14Y16907   3.454   2.856   8.365  2.5746 -2.6182  1.3185
  152SAPE  C31516908   3.495   2.663   8.411 -0.1334  0.1653 -0.6128
  152SAPE  H15X16909   3.464   2.559   8.386 -0.5219 -0.3462  1.7833
  152SAPE  H15Y16910   3.495   2.665   8.522 -0.8733  1.2549 -0.6097
  152SAPE  C31616911   3.635   2.679   8.353 -0.1288 -0.1726  0.0822
  152SAPE  H16X16912   3.630   2.681   8.242  1.3638  1.3664  0.0047
  152SAPE  H16Y16913   3.685   2.583   8.377  1.8534  0.9685  0.7438
  152SAPE  C31716914   3.721   2.796   8.386 -0.5533  0.2013 -0.7701
  152SAPE  H17X16915   3.678   2.892   8.350  1.4679  2.0733  1.4553
  152SAPE  H17Y16916   3.821   2.785   8.340  0.7257 -0.2656  1.9290
  152SAPE  C31816917   3.741   2.820   8.537 -0.4739 -0.0282 -0.1565
  152SAPE  H18X16918   3.774   2.925   8.555 -0.2926  0.0397 -0.8614
  152SAPE  H18Y16919   3.822   2.756   8.579 -0.2490  0.8406  0.7830
  152SAPE  H18Z16920   3.647   2.792   8.589 -2.0068  1.5542 -1.9303
  153SAPE     N16921   6.466   5.537   6.003 -0.2126 -0.1127  0.1252
  153SAPE   HN116922   6.549   5.539   6.067  0.1640  1.2903 -0.3698
  153SAPE   HN216923   6.442   5.632   5.969  0.2055  0.5234  1.5152
  153SAPE   HN316924   6.387   5.508   6.063  0.6231 -2.8451  0.0584
  153SAPE   C1216925   6.483   5.444   5.885 -0.5215 -0.3820  0.5543
  153SAPE  H12A16926   6.580   5.445   5.832 -1.4981 -0.2130 -1.2986
  153SAPE  H12B16927   6.400   5.477   5.819  0.0032  1.4458  0.7541
  153SAPE   C1116928   6.466   5.298   5.938  0.0071  0.7678 -0.1338
  153SAPE  H11A16929   6.456   5.236   5.846 -0.6746  1.7151 -0.7132
  153SAPE  H11B16930   6.373   5.292   5.998  0.8592  0.3914  1.2008
  153SAPE     P16931   6.584   5.227   6.162 -0.2284  0.6109 -0.4255
  153SAPE   O1316932   6.718   5.177   6.197  0.4659 -0.1943 -0.2660
  153SAPE   O1416933   6.537   5.356   6.219 -0.0038  0.4725  0.5664
  153SAPE   O1216934   6.577   5.244   6.011 -0.1225  0.5360  0.1396
  153SAPE   O1116935   6.486   5.108   6.192  0.7108  0.0140 -0.1049
  153SAPE    C116936   6.365   5.129   6.276 -0.7228  0.0419 -0.0749
  153SAPE    HA16937   6.332   5.235   6.284 -0.7329  0.0732 -0.5125
  153SAPE    HB16938   6.281   5.081   6.222  1.8209 -3.2249 -1.4584
  153SAPE    C216939   6.396   5.066   6.416  0.4276  0.8226 -0.1565
  153SAPE    HS16940   6.303   5.067   6.478  0.6398 -1.8648  0.3300
  153SAPE   O2116941   6.489   5.142   6.489 -0.2573  0.0424  1.0160
  153SAPE   C2116942   6.457   5.264   6.533 -0.4231  0.7459 -0.3880
  153SAPE   O2216943   6.349   5.316   6.538  0.1757  0.0632 -0.2391
  153SAPE   C2216944   6.581   5.326   6.598 -0.2358  0.2836 -0.3427
  153SAPE   H2R16945   6.654   5.244   6.618 -0.0133 -0.3618 -3.2560
  153SAPE   H2S16946   6.623   5.394   6.521 -1.0198  1.3925  0.1758
  153SAPE    C316947   6.430   4.917   6.390  0.3002  0.1145 -0.4391
  153SAPE    HX16948   6.534   4.912   6.349  0.3865 -2.4472 -0.1093
  153SAPE    HY16949   6.364   4.885   6.306 -0.4076  2.0568 -0.6809
  153SAPE   O3116950   6.419   4.844   6.513  0.5885  0.0375 -0.4444
  153SAPE   C3116951   6.304   4.807   6.552 -0.0576 -0.3054 -0.2127
  153SAPE   O3216952   6.200   4.834   6.496 -0.4876  0.3717 -0.8681
  153SAPE   C3216953   6.322   4.726   6.687  0.3334 -0.0625 -0.0975
  153SAPE   H2X16954   6.430   4.704   6.701  0.3004  0.4320  1.0609
  153SAPE   H2Y16955   6.261   4.634   6.680  0.2409  0.1308 -3.2408
  153SAPE   C2316956   6.547   5.395   6.732  0.6378 -0.0137  0.1223
  153SAPE   H3R16957   6.492   5.336   6.809 -1.0000  0.9425 -0.2554
  153SAPE   H3S16958   6.469   5.473   6.713 -0.3148 -1.0865 -0.5466
  153SAPE   C2416959   6.658   5.466   6.808 -0.2341 -0.4810  0.2430
  153SAPE   H4R16960   6.609   5.522   6.890 -0.4646 -1.0289  0.4807
  153SAPE   H4S16961   6.701   5.540   6.737  1.4792  0.1183  1.8305
  153SAPE   C2516962   6.763   5.384   6.864 -0.0190  0.8115 -0.0653
  153SAPE   H5R16963   6.833   5.338   6.793 -1.1951 -1.1717 -0.0336
  153SAPE   C2616964   6.774   5.348   6.997  0.0600 -0.0667  0.6139
  153SAPE   H6R16965   6.854   5.276   7.020  1.9863  1.7454 -0.1601
  153SAPE   C2716966   6.683   5.391   7.106 -0.0619 -0.2981 -0.4260
  153SAPE   H7R16967   6.703   5.335   7.199 -0.0136 -0.5745 -0.6011
  153SAPE   H7S16968   6.577   5.374   7.078 -0.1823 -0.4884  0.1335
  153SAPE   C2816969   6.700   5.537   7.146  0.1089  0.1462 -0.0213
  153SAPE   H8R16970   6.802   5.561   7.181 -0.8177  1.1246  2.1930
  153SAPE   C2916971   6.610   5.635   7.155  0.7651  0.1492  0.7690
  153SAPE   H9R16972   6.647   5.726   7.205 -0.5580  0.7512  0.6946
  153SAPE  C21016973   6.460   5.624   7.122 -0.5962  0.1852  0.1657
  153SAPE  H10R16974   6.428   5.522   7.154 -0.5975  0.3102  0.5717
  153SAPE  H10S16975   6.441   5.629   7.013  0.0268 -2.6289 -0.1606
  153SAPE  C21116976   6.381   5.726   7.198 -0.1729 -0.2177 -0.4141
  153SAPE  H11R16977   6.393   5.833   7.173 -2.2724  0.3559  0.7999
  153SAPE  C21216978   6.317   5.714   7.319  0.4982  0.3458  0.0043
  153SAPE  H12R16979   6.259   5.796   7.361  1.7294  1.0380  0.3971
  153SAPE  C21316980   6.317   5.586   7.397  0.8191 -0.3188  0.0505
  153SAPE  H13R16981   6.412   5.530   7.398  0.9092 -0.1672  0.9404
  153SAPE  H13S16982   6.240   5.515   7.360  1.1488 -0.7316  0.1533
  153SAPE  C21416983   6.273   5.592   7.538  0.1672  0.2333 -0.2141
  153SAPE  H14R16984   6.168   5.562   7.551 -0.6877  1.8786 -2.6490
  153SAPE  C21516985   6.335   5.642   7.642 -0.1298 -0.0785  0.2273
  153SAPE  H15R16986   6.283   5.641   7.739 -2.1286  0.6063 -0.7936
  153SAPE  C21616987   6.473   5.697   7.635  0.0643 -0.0884  0.3236
  153SAPE  H16R16988   6.460   5.807   7.640 -2.7836 -0.3121 -0.5243
  153SAPE  H16S16989   6.526   5.683   7.538 -0.8423  0.8670 -0.3258
  153SAPE  C21716990   6.563   5.641   7.746 -0.1071 -0.0893 -0.2160
  153SAPE  H17R16991   6.669   5.666   7.725 -0.6723  1.1018 -1.9213
  153SAPE  H17S16992   6.559   5.530   7.740 -0.3490  0.0018 -2.3743
  153SAPE  C21816993   6.529   5.702   7.881 -0.2655 -0.8713  0.2858
  153SAPE  H18R16994   6.421   5.682   7.895 -0.6059  0.9598  0.4296
  153SAPE  H18S16995   6.556   5.809   7.873 -0.0377 -0.8201  1.6374
  153SAPE  C21916996   6.629   5.673   7.994 -0.2087  0.1734  0.0950
  153SAPE  H19R16997   6.732   5.704   7.966 -0.2930 -0.1629 -0.6369
  153SAPE  H19S16998   6.632   5.563   8.006 -0.9397  0.2711  1.3091
  153SAPE  C22016999   6.582   5.738   8.123  0.8646  0.2608  0.8695
  153SAPE  H20R17000   6.480   5.701   8.143  0.4444  1.4428  0.9746
  153SAPE  H20S17001   6.564   5.847   8.108  2.5991  0.3305 -1.2031
  153SAPE  H20T17002   6.655   5.710   8.202  0.4234 -1.7483  0.6201
  153SAPE   C3317003   6.296   4.815   6.808  0.7856  0.6447  0.4994
  153SAPE   H3X17004   6.204   4.879   6.804  1.1483  1.2441  1.2788
  153SAPE   H3Y17005   6.381   4.886   6.815  1.0217  0.8456 -2.8073
  153SAPE   C3417006   6.293   4.731   6.939  0.5645  0.1455  0.6906
  153SAPE   H4X17007   6.389   4.676   6.948 -0.8125 -2.2600  1.6000
  153SAPE   H4Y17008   6.217   4.652   6.925 -0.6146  1.3788 -0.1874
  153SAPE   C3517009   6.248   4.803   7.070  1.0662 -0.3110 -0.1727
  153SAPE   H5X17010   6.153   4.859   7.055  0.6923 -0.3586  1.7076
  153SAPE   H5Y17011   6.333   4.872   7.089  1.9711 -0.4497 -3.2047
  153SAPE   C3617012   6.230   4.706   7.190 -0.0673  0.0960 -0.1908
  153SAPE   H6X17013   6.332   4.679   7.225 -0.0546  0.1014 -0.2231
  153SAPE   H6Y17014   6.197   4.606   7.155  1.8642 -0.6188 -0.1131
  153SAPE   C3717015   6.139   4.759   7.300 -0.7361 -0.3473  0.0911
  153SAPE   H7X17016   6.091   4.672   7.351  1.1346 -0.9363  0.9141
  153SAPE   H7Y17017   6.060   4.827   7.261  0.1922  1.0975  0.6551
  153SAPE   C3817018   6.221   4.838   7.399 -0.5686 -0.3722  0.4715
  153SAPE   H8X17019   6.238   4.940   7.358  1.5249  0.1521  2.4632
  153SAPE   H8Y17020   6.321   4.795   7.419 -0.6001  0.5424  2.9656
  153SAPE   C3917021   6.145   4.859   7.535  0.1653  0.2551  0.1017
  153SAPE   H9X17022   6.039   4.888   7.518  0.0255 -0.0251  0.4971
  153SAPE   H9Y17023   6.189   4.946   7.589  0.6749 -0.2511  0.5048
  153SAPE  C31017024   6.146   4.736   7.633  0.1243  0.4599 -0.0952
  153SAPE  H10X17025   6.238   4.682   7.603  0.1211  1.2680 -1.6867
  153SAPE  H10Y17026   6.055   4.674   7.628 -0.2490  0.9858  0.1260
  153SAPE  C31117027   6.177   4.776   7.775  0.5478 -0.3002 -0.7876
  153SAPE  H11X17028   6.081   4.817   7.814 -0.8556 -3.4047 -0.7301
  153SAPE  H11Y17029   6.256   4.855   7.772 -1.0356  1.3458 -1.0527
  153SAPE  C31217030   6.212   4.656   7.854 -0.0284  0.0590 -0.3817
  153SAPE  H12X17031   6.299   4.598   7.818  0.1096 -1.2438  1.8540
  153SAPE  H12Y17032   6.130   4.581   7.857  0.3604 -0.3669 -0.2917
  153SAPE  C31317033   6.229   4.694   8.003  0.5477  0.0138  0.0120
  153SAPE  H13X17034   6.134   4.750   8.018  1.1178  1.6023 -1.8605
  153SAPE  H13Y17035   6.315   4.761   8.020  1.1174 -0.6436 -0.2248
  153SAPE  C31417036   6.233   4.570   8.091  0.3093  0.2003  0.1379
  153SAPE  H14X17037   6.319   4.512   8.054  1.1065  2.2396 -1.4291
  153SAPE  H14Y17038   6.136   4.516   8.079  0.3338  0.1303  0.2527
  153SAPE  C31517039   6.246   4.588   8.241 -0.1619  0.2575  0.2206
  153SAPE  H15X17040   6.238   4.485   8.284 -0.1195 -0.4301 -1.3313
  153SAPE  H15Y17041   6.169   4.658   8.281  0.1110 -1.0680  3.3790
  153SAPE  C31617042   6.382   4.648   8.264  0.7390 -0.1272  0.2966
  153SAPE  H16X17043   6.366   4.752   8.231 -1.8794 -0.6623 -0.3235
  153SAPE  H16Y17044   6.466   4.601   8.208 -0.0425  1.3302 -2.2410
  153SAPE  C31717045   6.412   4.653   8.415 -0.5542  0.1334  0.0660
  153SAPE  H17X17046   6.443   4.557   8.461 -0.5410 -0.3422 -0.9133
  153SAPE  H17Y17047   6.316   4.674   8.468 -1.2349 -0.9898 -0.6731
  153SAPE  C31817048   6.502   4.764   8.469  0.0199  0.5430 -1.1902
  153SAPE  H18X17049   6.465   4.862   8.434  1.3817  1.1098 -1.1151
  153SAPE  H18Y17050   6.597   4.757   8.412 -0.2679  1.2832 -1.7799
  153SAPE  H18Z17051   6.514   4.766   8.580  0.4187 -2.2003 -1.1053
  154SAPE     N17052   4.321   2.856   6.196  0.1142  0.9111 -0.9463
  154SAPE   HN117053   4.237   2.810   6.156 -0.6105  0.1781  1.2451
  154SAPE   HN217054   4.361   2.781   6.256 -0.0938  1.0895 -0.5813
  154SAPE   HN317055   4.287   2.934   6.256 -1.9160 -1.2270  0.8613
  154SAPE   C1217056   4.403   2.893   6.079  0.2797 -1.1089  0.9239
  154SAPE  H12A17057   4.491   2.951   6.113  1.3109 -1.6807 -0.6299
  154SAPE  H12B17058   4.350   2.967   6.015  3.4656 -1.2022 -2.1721
  154SAPE   C1117059   4.470   2.766   6.011  0.2210  0.2097 -0.1414
  154SAPE  H11A17060   4.532   2.800   5.925 -1.6963  0.6517 -1.4251
  154SAPE  H11B17061   4.383   2.707   5.974  2.1465 -1.8339 -1.7487
  154SAPE     P17062   4.621   2.562   6.071 -0.0392  0.1435  0.0328
  154SAPE   O1317063   4.611   2.538   5.924  0.2263  0.7766 -0.3835
  154SAPE   O1417064   4.752   2.572   6.137 -0.1895 -0.0661 -0.1802
  154SAPE   O1217065   4.530   2.691   6.111  0.5895 -0.0211  0.3990
  154SAPE   O1117066   4.549   2.438   6.141  0.5021  0.0348  0.3588
  154SAPE    C117067   4.418   2.440   6.194  0.4893  0.1763  0.5422
  154SAPE    HA17068   4.362   2.533   6.167  2.1792  0.6835 -1.4268
  154SAPE    HB17069   4.367   2.346   6.165  1.0807 -0.0130  0.1059
  154SAPE    C217070   4.429   2.425   6.352  0.2297  0.3008  1.2630
  154SAPE    HS17071   4.325   2.451   6.384 -0.3587  2.4357 -1.9198
  154SAPE   O2117072   4.535   2.510   6.403 -0.0631  0.1024  0.6515
  154SAPE   C2117073   4.507   2.635   6.411 -0.5529  0.2613 -0.1232
  154SAPE   O2217074   4.401   2.685   6.384  0.0700 -0.0096 -0.1745
  154SAPE   C2217075   4.631   2.702   6.468 -0.3810  0.3105 -0.3131
  154SAPE   H2R17076   4.702   2.634   6.518 -0.8943  0.2554  0.3512
  154SAPE   H2S17077   4.680   2.751   6.381  0.6223 -1.1045 -0.5758
  154SAPE    C317078   4.459   2.277   6.404 -0.0290  0.4698  0.1409
  154SAPE    HX17079   4.546   2.242   6.343 -0.4578 -0.0650 -0.1733
  154SAPE    HY17080   4.380   2.203   6.380  1.2384 -0.7050 -0.6047
  154SAPE   O3117081   4.493   2.263   6.540 -0.3995 -0.7118 -0.0681
  154SAPE   C3117082   4.396   2.296   6.628  0.1399 -1.1397  0.2953
  154SAPE   O3217083   4.282   2.326   6.595 -0.2148  0.0793  0.0793
  154SAPE   C3217084   4.450   2.303   6.763 -0.2505  0.0902 -0.9537
  154SAPE   H2X17085   4.531   2.229   6.781 -0.3446  0.4847  1.4993
  154SAPE   H2Y17086   4.369   2.301   6.839  1.9170  3.5090  1.8258
  154SAPE   C2317087   4.601   2.820   6.561 -0.6965 -0.4585  0.2662
  154SAPE   H3R17088   4.537   2.901   6.520  0.0754  2.6483  4.5301
  154SAPE   H3S17089   4.698   2.871   6.577 -0.9738  0.7318 -1.5708
  154SAPE   C2417090   4.557   2.766   6.697  0.1886  0.3374 -0.3341
  154SAPE   H4R17091   4.636   2.693   6.727 -1.5022 -0.3985  2.7792
  154SAPE   H4S17092   4.462   2.711   6.678 -0.0737 -0.0813  1.9139
  154SAPE   C2517093   4.537   2.876   6.802 -0.0314  0.4815  0.5869
  154SAPE   H5R17094   4.609   2.960   6.804 -0.7806  1.1952  4.2259
  154SAPE   C2617095   4.432   2.889   6.885 -0.1334 -0.4718  0.3849
  154SAPE   H6R17096   4.441   2.976   6.952 -1.0587  1.5412 -1.9360
  154SAPE   C2717097   4.319   2.799   6.915  0.3498  0.4121 -0.2156
  154SAPE   H7R17098   4.349   2.758   7.014 -0.8695  1.6739  0.7275
  154SAPE   H7S17099   4.318   2.716   6.843 -1.3862 -0.4325  0.7079
  154SAPE   C2817100   4.187   2.866   6.928  0.6453  0.3388  0.1202
  154SAPE   H8R17101   4.132   2.892   6.837  0.0945  1.4039  0.7275
  154SAPE   C2917102   4.124   2.900   7.043  0.0566 -0.7485 -0.5318
  154SAPE   H9R17103   4.023   2.942   7.037 -0.0901 -1.0297 -0.0804
  154SAPE  C21017104   4.180   2.879   7.173 -0.2909 -0.0076  0.0989
  154SAPE  H10R17105   4.284   2.916   7.187 -0.6361  0.0076  3.3986
  154SAPE  H10S17106   4.188   2.770   7.189 -0.9957  0.1280  1.5179
  154SAPE  C21117107   4.095   2.941   7.286 -0.2122 -0.4388  0.4656
  154SAPE  H11R17108   4.028   3.025   7.264 -1.5912 -1.4544  0.6948
  154SAPE  C21217109   4.093   2.891   7.411  0.2592  0.3843  0.6885
  154SAPE  H12R17110   4.046   2.956   7.486 -0.6957 -0.4725  0.8645
  154SAPE  C21317111   4.157   2.767   7.466  0.1394 -0.0982  0.0656
  154SAPE  H13R17112   4.109   2.683   7.411  2.0485  0.2312 -2.2266
  154SAPE  H13S17113   4.115   2.741   7.566 -0.1351 -4.6006 -0.9914
  154SAPE  C21417114   4.299   2.743   7.447 -0.0864  0.0253  0.2901
  154SAPE  H14R17115   4.324   2.703   7.348 -0.8964  1.3700 -0.4842
  154SAPE  C21517116   4.392   2.769   7.536 -0.2258 -0.1284 -0.3920
  154SAPE  H15R17117   4.493   2.745   7.500 -0.9351 -0.3518 -2.3205
  154SAPE  C21617118   4.362   2.826   7.672 -0.3269 -0.2120 -0.5311
  154SAPE  H16R17119   4.281   2.902   7.660  0.0561  0.3099  0.1265
  154SAPE  H16S17120   4.450   2.886   7.704 -0.8018  1.8387 -2.7603
  154SAPE  C21717121   4.332   2.726   7.777 -0.3596 -0.2814  0.3974
  154SAPE  H17R17122   4.421   2.659   7.783  0.3130  0.3997 -1.3776
  154SAPE  H17S17123   4.244   2.663   7.751  1.1415 -1.5141 -2.0308
  154SAPE  C21817124   4.313   2.791   7.913  0.7934  0.6205  0.0001
  154SAPE  H18R17125   4.377   2.882   7.922 -3.0262  3.4041  1.4295
  154SAPE  H18S17126   4.342   2.720   7.993 -0.8788 -2.1201 -1.6926
  154SAPE  C21917127   4.169   2.829   7.935  0.3767  0.4268 -0.4388
  154SAPE  H19R17128   4.110   2.737   7.915 -0.6962  0.6372  1.5200
  154SAPE  H19S17129   4.140   2.914   7.871 -2.9657  0.3952  0.8426
  154SAPE  C22017130   4.145   2.863   8.087  0.0348  0.0797 -0.5009
  154SAPE  H20R17131   4.134   2.772   8.149 -0.8712  0.2335 -0.4145
  154SAPE  H20S17132   4.050   2.921   8.092 -0.7236 -1.0741 -0.9716
  154SAPE  H20T17133   4.222   2.928   8.132 -0.3112  0.2631 -0.1661
  154SAPE   C3317134   4.506   2.441   6.782  0.3747 -0.6400 -0.5398
  154SAPE   H3X17135   4.426   2.517   6.768  0.4460  0.0441  2.1741
  154SAPE   H3Y17136   4.586   2.470   6.710  2.0302 -1.8374  0.7245
  154SAPE   C3417137   4.567   2.468   6.921  0.0910  0.0494 -0.2839
  154SAPE   H4X17138   4.576   2.576   6.946 -0.0959  0.3888 -1.6246
  154SAPE   H4Y17139   4.659   2.405   6.929 -1.2629 -1.9530  0.4173
  154SAPE   C3517140   4.489   2.413   7.045 -0.0914 -0.2812 -0.5862
  154SAPE   H5X17141   4.472   2.304   7.029 -0.4891 -0.2338 -0.4922
  154SAPE   H5Y17142   4.392   2.467   7.047  0.0861  0.0741 -1.3946
  154SAPE   C3617143   4.568   2.437   7.175 -0.2063  0.2140  0.7453
  154SAPE   H6X17144   4.568   2.546   7.195  0.3788  0.3933 -0.1387
  154SAPE   H6Y17145   4.672   2.408   7.148 -1.1753 -1.2414 -1.8146
  154SAPE   C3717146   4.503   2.361   7.294 -0.2286 -0.2033  0.2580
  154SAPE   H7X17147   4.514   2.251   7.277 -3.0591 -0.3193 -1.4806
  154SAPE   H7Y17148   4.396   2.390   7.290 -0.0272  0.5645  0.2905
  154SAPE   C3817149   4.570   2.396   7.430 -0.4162 -0.4977 -0.3152
  154SAPE   H8X17150   4.552   2.504   7.448  1.9457 -0.2229  0.6998
  154SAPE   H8Y17151   4.677   2.372   7.417 -0.2000  1.1538 -2.0872
  154SAPE   C3917152   4.503   2.319   7.546  0.0525 -0.1550 -0.2810
  154SAPE   H9X17153   4.499   2.211   7.517  0.8160 -0.5709  1.0442
  154SAPE   H9Y17154   4.399   2.352   7.566 -0.5080 -0.0885 -2.9631
  154SAPE  C31017155   4.591   2.332   7.672 -0.3747  0.4028 -0.9150
  154SAPE  H10X17156   4.644   2.430   7.673 -0.9240  0.7076 -1.4220
  154SAPE  H10Y17157   4.663   2.247   7.666  1.1820  1.1456  3.4806
  154SAPE  C31117158   4.506   2.313   7.797 -0.3436  0.1937  0.3468
  154SAPE  H11X17159   4.467   2.209   7.801  1.6257 -0.6048  0.0932
  154SAPE  H11Y17160   4.421   2.385   7.792 -1.3615 -0.8815  1.5249
  154SAPE  C31217161   4.584   2.362   7.926 -0.1604  0.0068 -0.4446
  154SAPE  H12X17162   4.606   2.469   7.909  1.6193  0.0396  1.6900
  154SAPE  H12Y17163   4.677   2.302   7.938 -0.9188 -1.3966 -1.2053
  154SAPE  C31317164   4.502   2.350   8.055  0.1495 -0.5861 -0.0098
  154SAPE  H13X17165   4.451   2.251   8.065 -0.9920 -0.1411 -1.1071
  154SAPE  H13Y17166   4.423   2.428   8.064  0.8654  0.1330  0.1402
  154SAPE  C31417167   4.604   2.382   8.173  1.0534  0.5540  0.5068
  154SAPE  H14X17168   4.657   2.471   8.133 -1.4640  0.8912 -2.5769
  154SAPE  H14Y17169   4.678   2.300   8.181  1.8447  0.9463 -1.8891
  154SAPE  C31517170   4.535   2.401   8.309 -0.2909  0.0742 -0.0791
  154SAPE  H15X17171   4.489   2.300   8.321  0.3999 -0.3165 -0.6741
  154SAPE  H15Y17172   4.454   2.470   8.276 -1.4876 -1.0921  0.3245
  154SAPE  C31617173   4.610   2.466   8.426  0.2197 -0.8996 -0.4591
  154SAPE  H16X17174   4.635   2.571   8.401  0.4417 -1.1418 -1.2702
  154SAPE  H16Y17175   4.702   2.405   8.442  0.3592 -1.2951 -2.4629
  154SAPE  C31717176   4.530   2.461   8.562  0.1529 -0.4790 -0.2441
  154SAPE  H17X17177   4.526   2.354   8.591 -2.1081 -0.4280 -0.1905
  154SAPE  H17Y17178   4.424   2.486   8.543  0.1800 -1.5481 -2.0105
  154SAPE  C31817179   4.580   2.561   8.665 -0.6067  0.1899 -0.1904
  154SAPE  H18X17180   4.516   2.560   8.756  1.9505  0.8251  1.7586
  154SAPE  H18Y17181   4.572   2.666   8.631 -0.6758  0.8359  1.6757
  154SAPE  H18Z17182   4.686   2.554   8.698 -0.5356  1.7988 -0.0059
  155SAPE     N17183   4.488   4.002   6.372  0.4510 -0.0609 -0.3642
  155SAPE   HN117184   4.495   3.906   6.411 -1.6469 -0.8626 -1.8057
  155SAPE   HN217185   4.570   4.033   6.316  0.7819  0.1364  0.2167
  155SAPE   HN317186   4.486   4.059   6.459  0.2920 -1.7229  0.7620
  155SAPE   C1217187   4.358   4.034   6.301 -0.7282 -0.1654 -0.0535
  155SAPE  H12A17188   4.363   3.979   6.204  0.4990  0.7092 -0.5177
  155SAPE  H12B17189   4.363   4.144   6.281  0.0783 -0.2616 -0.4270
  155SAPE   C1117190   4.235   4.007   6.389 -0.4887  0.6512 -0.2040
  155SAPE  H11A17191   4.150   4.015   6.318 -1.1084  0.7303  0.5347
  155SAPE  H11B17192   4.225   4.088   6.464  0.1801  0.3108  0.2649
  155SAPE     P17193   4.108   3.830   6.525  0.1456 -0.0332 -0.5386
  155SAPE   O1317194   4.003   3.841   6.422 -0.5595  0.0241  0.2326
  155SAPE   O1417195   4.131   3.694   6.574 -0.4182  0.5047 -0.5233
  155SAPE   O1217196   4.239   3.876   6.451 -0.0740 -0.1403  0.1077
  155SAPE   O1117197   4.082   3.937   6.642  0.5850 -0.2829  0.5214
  155SAPE    C117198   4.098   3.905   6.779  0.2829 -0.2323  0.5401
  155SAPE    HA17199   4.038   3.973   6.843 -0.0901  0.2399 -0.2979
  155SAPE    HB17200   4.059   3.804   6.805 -0.0951 -0.0979  0.5041
  155SAPE    C217201   4.242   3.925   6.829 -0.3176  0.1311 -0.3396
  155SAPE    HS17202   4.302   3.842   6.786 -1.0692 -0.1704 -0.8350
  155SAPE   O2117203   4.235   3.930   6.975 -1.2804  0.0176 -0.3286
  155SAPE   C2117204   4.357   3.899   7.032 -0.4711 -0.2629 -0.2424
  155SAPE   O2217205   4.453   3.845   6.976 -0.1098 -0.5253 -0.3813
  155SAPE   C2217206   4.350   3.944   7.180 -0.8392  0.1229  0.7828
  155SAPE   H2R17207   4.278   4.027   7.192 -0.8181  0.4461 -0.9999
  155SAPE   H2S17208   4.305   3.861   7.239 -0.0850 -1.4704 -0.7707
  155SAPE    C317209   4.299   4.063   6.787 -0.2630  0.0753  0.2398
  155SAPE    HX17210   4.236   4.145   6.829 -0.6801 -0.3969  0.5436
  155SAPE    HY17211   4.288   4.076   6.677  1.6161 -0.4769 -0.0515
  155SAPE   O3117212   4.430   4.085   6.834 -0.0608  0.3364  0.1634
  155SAPE   C3117213   4.525   4.105   6.740  0.1435  0.1801  1.4652
  155SAPE   O3217214   4.499   4.106   6.618 -0.3364 -0.3700 -0.0422
  155SAPE   C3217215   4.650   4.156   6.797 -0.0348  0.2934  0.8057
  155SAPE   H2X17216   4.667   4.259   6.758 -3.0503  0.1491 -1.2306
  155SAPE   H2Y17217   4.730   4.095   6.750 -0.7684 -0.7753  0.8942
  155SAPE   C2317218   4.490   3.990   7.229  0.1440 -0.5207  0.8018
  155SAPE   H3R17219   4.516   4.081   7.171 -2.2886  1.2448  2.3219
  155SAPE   H3S17220   4.567   3.910   7.217 -0.1172 -0.7219  0.4740
  155SAPE   C2417221   4.491   4.042   7.367 -0.1086 -0.1518 -0.0123
  155SAPE   H4R17222   4.419   4.126   7.383  1.1663  1.4147 -1.9638
  155SAPE   H4S17223   4.591   4.086   7.386 -0.8698  1.3402  0.6901
  155SAPE   C2517224   4.475   3.940   7.470 -0.2443 -0.1864 -0.6651
  155SAPE   H5R17225   4.371   3.919   7.500  0.6856 -0.2956  2.8160
  155SAPE   C2617226   4.566   3.856   7.518 -0.4836 -0.6401 -0.4822
  155SAPE   H6R17227   4.531   3.792   7.600  2.1116 -2.5810 -0.7737
  155SAPE   C2717228   4.713   3.852   7.483 -1.0415  0.3750  0.4154
  155SAPE   H7R17229   4.723   3.904   7.386 -2.0533  0.4180  0.3208
  155SAPE   H7S17230   4.751   3.749   7.466  2.2141  0.9518  3.1827
  155SAPE   C2817231   4.817   3.926   7.569  0.0361 -0.3487  0.5875
  155SAPE   H8R17232   4.793   4.032   7.581 -1.0507 -0.8921  4.3007
  155SAPE   C2917233   4.921   3.879   7.638 -0.5211 -1.0015  0.3612
  155SAPE   H9R17234   4.992   3.949   7.684  0.5951 -3.4544  2.6129
  155SAPE  C21017235   4.962   3.741   7.649 -1.1883 -0.7575  0.4522
  155SAPE  H10R17236   4.914   3.674   7.574  0.3080 -0.8095 -0.4964
  155SAPE  H10S17237   4.916   3.707   7.745 -2.4662  1.0813  0.5458
  155SAPE  C21117238   5.112   3.715   7.628 -0.4358  0.1553  0.1513
  155SAPE  H11R17239   5.149   3.695   7.526  0.1871  1.4826  0.0954
  155SAPE  C21217240   5.198   3.685   7.727 -0.2458  0.1265 -0.3509
  155SAPE  H12R17241   5.299   3.655   7.697 -0.6666 -0.6678 -1.0126
  155SAPE  C21317242   5.167   3.688   7.880  0.8226 -0.5852  0.3980
  155SAPE  H13R17243   5.262   3.663   7.932  1.2652 -1.0652 -0.6175
  155SAPE  H13S17244   5.094   3.614   7.918 -0.4701  0.1935 -0.5125
  155SAPE  C21417245   5.134   3.832   7.927  0.1346 -0.0811  0.3459
  155SAPE  H14R17246   5.174   3.906   7.857 -0.6699  1.4165  1.4184
  155SAPE  C21517247   5.072   3.876   8.033  0.0170  0.3272 -0.2863
  155SAPE  H15R17248   5.050   3.982   8.052  0.6600  0.3321  0.5206
  155SAPE  C21617249   5.015   3.784   8.139 -0.9030 -0.1910 -0.5956
  155SAPE  H16R17250   5.078   3.693   8.140  1.2196  1.1041 -3.1003
  155SAPE  H16S17251   4.917   3.736   8.122 -0.3029 -1.8773  0.4137
  155SAPE  C21717252   5.025   3.850   8.276  0.7257 -0.3524  0.1002
  155SAPE  H17R17253   5.125   3.894   8.292  0.7319 -0.5430  0.6138
  155SAPE  H17S17254   5.028   3.774   8.357  1.5459 -1.6071 -1.0459
  155SAPE  C21817255   4.918   3.956   8.305 -1.1631 -0.2321  0.3880
  155SAPE  H18R17256   4.819   3.908   8.288 -2.1733  1.6833  0.5644
  155SAPE  H18S17257   4.913   4.041   8.235 -2.7733 -1.7759 -1.4891
  155SAPE  C21917258   4.916   3.996   8.456 -0.4134 -0.0379 -0.4058
  155SAPE  H19R17259   4.919   3.902   8.515 -1.9247 -0.3603 -0.7768
  155SAPE  H19S17260   4.822   4.050   8.483 -0.8916 -0.1811 -1.6967
  155SAPE  C22017261   5.032   4.082   8.495 -0.4811 -0.3838 -0.0099
  155SAPE  H20R17262   5.021   4.103   8.604  0.7130 -1.2911  0.3136
  155SAPE  H20S17263   5.029   4.176   8.436 -2.8790  0.0690  0.7237
  155SAPE  H20T17264   5.126   4.024   8.484  0.7545  1.4142  0.7143
  155SAPE   C3317265   4.662   4.149   6.951 -0.2776  0.2709 -0.3970
  155SAPE   H3X17266   4.643   4.046   6.988  1.5063 -0.9011 -2.5014
  155SAPE   H3Y17267   4.586   4.211   7.003 -0.4241  0.0684 -0.3650
  155SAPE   C3417268   4.798   4.198   6.989  0.1337  1.2461  0.3171
  155SAPE   H4X17269   4.806   4.308   6.979 -1.2232  1.4095  0.8312
  155SAPE   H4Y17270   4.872   4.145   6.925 -0.5226  1.1906 -0.4110
  155SAPE   C3517271   4.852   4.148   7.119  0.3968  0.2819  0.1933
  155SAPE   H5X17272   4.841   4.037   7.121 -2.8328  0.4325 -1.5396
  155SAPE   H5Y17273   4.797   4.188   7.207 -0.4986  0.3844 -0.4012
  155SAPE   C3617274   4.999   4.206   7.148 -0.2153 -0.9806 -0.0534
  155SAPE   H6X17275   5.006   4.316   7.158 -0.0075 -1.1362  1.8474
  155SAPE   H6Y17276   5.073   4.172   7.073  2.9144 -0.6742  2.6601
  155SAPE   C3717277   5.063   4.152   7.278 -0.8383 -0.1473 -1.0485
  155SAPE   H7X17278   5.170   4.180   7.278 -0.6560 -0.6119  1.6676
  155SAPE   H7Y17279   5.057   4.041   7.274  2.9781 -0.4625 -1.2145
  155SAPE   C3817280   5.010   4.219   7.410 -0.0274 -0.7129  0.2208
  155SAPE   H8X17281   4.912   4.171   7.429 -0.3754 -0.0301  0.1894
  155SAPE   H8Y17282   5.009   4.330   7.411 -0.3571 -0.7043  1.7841
  155SAPE   C3917283   5.102   4.188   7.532  0.2556 -0.2605 -0.2081
  155SAPE   H9X17284   5.202   4.221   7.496 -0.0654  0.1040 -0.7735
  155SAPE   H9Y17285   5.103   4.077   7.538 -1.0829 -0.3941 -1.7839
  155SAPE  C31017286   5.074   4.267   7.667  0.0409  0.4669 -0.9122
  155SAPE  H10X17287   4.983   4.223   7.713  0.8329  0.9702  1.2824
  155SAPE  H10Y17288   5.047   4.370   7.637  0.0950 -0.0303 -2.8073
  155SAPE  C31117289   5.185   4.260   7.774 -0.3324 -0.4994 -0.4921
  155SAPE  H11X17290   5.282   4.277   7.723  0.0846 -1.4813 -0.0483
  155SAPE  H11Y17291   5.197   4.158   7.814 -2.1047 -0.1356  1.0928
  155SAPE  C31217292   5.172   4.354   7.890  0.0506  0.3670  0.1415
  155SAPE  H12X17293   5.177   4.457   7.850  0.3386  0.7205  1.0459
  155SAPE  H12Y17294   5.266   4.336   7.946  0.3185  0.3074 -0.3230
  155SAPE  C31317295   5.049   4.344   7.974  0.4769  0.3515 -0.2149
  155SAPE  H13X17296   5.021   4.242   8.007 -0.7214  0.4548 -0.8377
  155SAPE  H13Y17297   4.957   4.378   7.920  0.3951 -1.2998 -1.1810
  155SAPE  C31417298   5.069   4.430   8.096  0.2871  0.5450 -0.3219
  155SAPE  H14X17299   5.083   4.539   8.079  0.8965  0.4634 -0.3626
  155SAPE  H14Y17300   5.162   4.399   8.148 -0.5600 -2.1406 -0.2628
  155SAPE  C31517301   4.959   4.428   8.193  0.4100 -0.1110 -0.8965
  155SAPE  H15X17302   4.918   4.327   8.214 -1.1623  0.9168  1.3141
  155SAPE  H15Y17303   4.874   4.489   8.155  0.3408 -0.4787 -1.3406
  155SAPE  C31617304   5.004   4.477   8.335  0.3006 -0.0541  0.4218
  155SAPE  H16X17305   5.094   4.418   8.362  0.8918 -0.7915 -2.7547
  155SAPE  H16Y17306   4.924   4.448   8.406  0.1787  0.5256  0.5290
  155SAPE  C31717307   5.038   4.624   8.343  0.1131 -0.0694  1.0570
  155SAPE  H17X17308   4.950   4.677   8.300 -0.2535  0.4924  2.4390
  155SAPE  H17Y17309   5.135   4.652   8.297  0.5529 -1.5635  1.0478
  155SAPE  C31817310   5.038   4.676   8.489  0.0970  0.3383  0.2141
  155SAPE  H18X17311   4.934   4.688   8.527 -0.7550 -1.8028 -1.2654
  155SAPE  H18Y17312   5.088   4.775   8.484 -0.2897  0.4579 -1.8706
  155SAPE  H18Z17313   5.097   4.606   8.552 -1.3279 -0.6258  0.5314
  156SAPE     N17314   2.197   6.082   6.204  0.7108 -0.1939 -0.0222
  156SAPE   HN117315   2.224   6.003   6.142  1.0154  0.6066 -0.9477
  156SAPE   HN217316   2.118   6.119   6.147  2.6215  4.2497 -0.2140
  156SAPE   HN317317   2.255   6.168   6.203 -1.7673  1.5974 -0.4341
  156SAPE   C1217318   2.160   6.022   6.337 -0.6979 -0.2544  0.1959
  156SAPE  H12A17319   2.129   6.104   6.405 -0.4856 -1.5018  1.8618
  156SAPE  H12B17320   2.251   5.987   6.390 -0.1125  0.4675 -0.3118
  156SAPE   C1117321   2.051   5.910   6.320 -0.2959  0.0144  0.3791
  156SAPE  H11A17322   1.961   5.954   6.271  0.4293 -0.1895 -1.2290
  156SAPE  H11B17323   2.018   5.876   6.420  1.8855  0.4212  1.2703
  156SAPE     P17324   2.178   5.679   6.276 -0.0733  0.2442  0.1893
  156SAPE   O1317325   2.131   5.546   6.233  0.0620  0.1213  0.2319
  156SAPE   O1417326   2.320   5.712   6.239 -0.1136 -0.2451  0.0949
  156SAPE   O1217327   2.090   5.800   6.224 -0.2101 -0.6143  0.6722
  156SAPE   O1117328   2.161   5.697   6.430 -0.2309 -0.1602  0.0222
  156SAPE    C117329   2.089   5.595   6.504 -0.3973 -0.3977  0.1904
  156SAPE    HA17330   1.980   5.607   6.488 -0.6233 -0.8849  1.3177
  156SAPE    HB17331   2.110   5.490   6.472 -1.1799 -0.7260  0.7255
  156SAPE    C217332   2.101   5.621   6.658  0.1532 -0.4263  0.3028
  156SAPE    HS17333   2.034   5.702   6.694 -0.1757 -0.4351 -0.2710
  156SAPE   O2117334   2.236   5.637   6.688  0.3814 -0.4635 -0.3575
  156SAPE   C2117335   2.281   5.758   6.685  1.0792 -0.9292  0.1257
  156SAPE   O2217336   2.213   5.859   6.689  0.0826 -0.2678 -0.4313
  156SAPE   C2217337   2.434   5.769   6.696 -0.0281 -0.0639 -0.0934
  156SAPE   H2R17338   2.478   5.727   6.602 -0.8688 -0.3794 -0.3612
  156SAPE   H2S17339   2.455   5.878   6.696  0.6287 -0.1832 -0.7099
  156SAPE    C317340   2.046   5.497   6.729 -0.3704  0.7216 -0.2231
  156SAPE    HX17341   2.107   5.409   6.699 -0.3271  0.9971 -0.9681
  156SAPE    HY17342   1.943   5.477   6.692  0.0807 -1.0611 -0.6187
  156SAPE   O3117343   2.035   5.525   6.867 -0.3945 -0.0414 -0.0864
  156SAPE   C3117344   1.974   5.435   6.952 -0.3550  0.7424  0.8948
  156SAPE   O3217345   1.936   5.325   6.921 -0.6307 -0.2903  0.4060
  156SAPE   C3217346   1.966   5.482   7.092 -0.2638 -0.1016 -0.3982
  156SAPE   H2X17347   1.898   5.570   7.095  0.8308  0.7565  2.1752
  156SAPE   H2Y17348   2.069   5.517   7.118 -0.5283  1.6447 -1.5160
  156SAPE   C2317349   2.502   5.701   6.819 -0.5644 -0.3323 -0.0853
  156SAPE   H3R17350   2.612   5.707   6.805 -0.6918  0.8388 -0.7267
  156SAPE   H3S17351   2.467   5.596   6.820  0.2132 -0.6054 -1.0673
  156SAPE   C2417352   2.456   5.755   6.953  0.2387  0.1521  0.2852
  156SAPE   H4R17353   2.345   5.740   6.956  0.0116  1.4591 -0.5982
  156SAPE   H4S17354   2.486   5.861   6.955  1.9918 -0.3164  2.6242
  156SAPE   C2517355   2.525   5.705   7.074 -0.1958  0.3268  0.1939
  156SAPE   H5R17356   2.489   5.607   7.108  2.5912 -1.4412 -1.5370
  156SAPE   C2617357   2.617   5.763   7.154  0.0036 -0.6419  0.2103
  156SAPE   H6R17358   2.649   5.711   7.246 -2.9703 -0.5635  1.3734
  156SAPE   C2717359   2.679   5.903   7.142 -0.1655  0.0432  0.0300
  156SAPE   H7R17360   2.610   5.965   7.203 -0.9062  0.5732 -1.2869
  156SAPE   H7S17361   2.682   5.930   7.034  0.2991  0.3859  0.1275
  156SAPE   C2817362   2.825   5.914   7.190 -0.0854  0.6462 -0.4195
  156SAPE   H8R17363   2.899   5.858   7.132 -1.4949 -0.5853 -1.1021
  156SAPE   C2917364   2.860   5.977   7.303 -0.1912 -0.2086  0.1223
  156SAPE   H9R17365   2.965   5.994   7.331 -0.3968  1.0750  0.1635
  156SAPE  C21017366   2.772   6.037   7.412  0.0861  0.1397 -0.2222
  156SAPE  H10R17367   2.675   5.984   7.419 -0.7863  1.8429  1.8969
  156SAPE  H10S17368   2.738   6.141   7.390  1.1139  0.4163 -0.5658
  156SAPE  C21117369   2.847   6.042   7.542 -0.0002 -0.1324 -0.6080
  156SAPE  H11R17370   2.948   6.085   7.541 -0.4832  1.0373 -1.9831
  156SAPE  C21217371   2.811   6.002   7.667  0.6921  0.2428  0.2676
  156SAPE  H12R17372   2.879   6.024   7.750  1.0995  2.9399 -0.7034
  156SAPE  C21317373   2.681   5.940   7.721 -0.4908  0.5397  0.6411
  156SAPE  H13R17374   2.631   5.861   7.661 -0.5455 -0.5526  2.0811
  156SAPE  H13S17375   2.597   6.013   7.714 -0.6152  0.3623  0.2308
  156SAPE  C21417376   2.692   5.884   7.862  0.2439  0.0147  0.3758
  156SAPE  H14R17377   2.785   5.828   7.878 -0.0359 -0.1971  1.2833
  156SAPE  C21517378   2.617   5.907   7.972 -0.3716  1.0925  0.0129
  156SAPE  H15R17379   2.652   5.860   8.064  1.6189  3.1599  0.3904
  156SAPE  C21617380   2.488   5.984   7.980 -0.6213 -0.0739  0.1292
  156SAPE  H16R17381   2.419   5.948   7.901 -2.1677  1.2306  0.8281
  156SAPE  H16S17382   2.499   6.089   7.945  0.4625 -0.5566 -1.0811
  156SAPE  C21717383   2.433   5.984   8.119  0.1847  0.7172 -0.1581
  156SAPE  H17R17384   2.350   6.055   8.140 -0.8953 -1.4963  4.2691
  156SAPE  H17S17385   2.512   6.010   8.193  0.5562 -0.8147  0.0055
  156SAPE  C21817386   2.377   5.847   8.155 -0.8188  0.3704  0.2631
  156SAPE  H18R17387   2.464   5.787   8.190 -0.7319 -0.0738 -0.6950
  156SAPE  H18S17388   2.333   5.804   8.063 -1.8927 -0.4343  1.1257
  156SAPE  C21917389   2.271   5.831   8.263  0.4425  0.5636  0.2695
  156SAPE  H19R17390   2.233   5.727   8.255  0.4997  0.2983  2.5856
  156SAPE  H19S17391   2.191   5.902   8.231 -1.3829 -1.9043 -0.9402
  156SAPE  C22017392   2.318   5.853   8.405  0.2095  0.5320  0.2921
  156SAPE  H20R17393   2.392   5.773   8.422 -0.0867  0.0695 -0.5259
  156SAPE  H20S17394   2.241   5.852   8.485  0.4815 -0.9092  0.5475
  156SAPE  H20T17395   2.374   5.948   8.419  0.6795  0.1317  1.1435
  156SAPE   C3317396   1.920   5.378   7.191 -0.4519 -0.0003  0.4131
  156SAPE   H3X17397   2.010   5.314   7.207  0.7184  1.3225 -0.6105
  156SAPE   H3Y17398   1.844   5.308   7.150 -1.5645  2.1356 -1.4022
  156SAPE   C3417399   1.869   5.438   7.319 -0.5946  0.2062  0.2562
  156SAPE   H4X17400   1.818   5.359   7.378 -0.7603  1.6576  2.1385
  156SAPE   H4Y17401   1.804   5.527   7.299  0.0485  0.9966  1.5330
  156SAPE   C3517402   1.980   5.487   7.418 -0.6950  0.3944  0.1089
  156SAPE   H5X17403   2.044   5.560   7.365  0.7847 -0.3779  0.7627
  156SAPE   H5Y17404   2.044   5.410   7.466  1.0399  2.0489  0.5515
  156SAPE   C3617405   1.909   5.567   7.534  0.2656  0.5555  0.6309
  156SAPE   H6X17406   1.844   5.489   7.580 -1.7492 -0.1072 -3.0315
  156SAPE   H6Y17407   1.849   5.653   7.498 -1.5488 -0.4020  1.2337
  156SAPE   C3717408   2.004   5.628   7.641  0.4769  0.3277 -0.1557
  156SAPE   H7X17409   2.054   5.717   7.599 -2.8724  1.9004 -1.0704
  156SAPE   H7Y17410   2.075   5.550   7.677 -0.0437 -0.2820 -0.4333
  156SAPE   C3817411   1.926   5.679   7.762  0.1514 -0.0281 -0.7183
  156SAPE   H8X17412   1.868   5.594   7.804 -1.1786  1.3067  0.2368
  156SAPE   H8Y17413   1.863   5.766   7.732  2.7665  2.6089  0.8706
  156SAPE   C3917414   2.017   5.730   7.877  0.5389  0.8160  0.4223
  156SAPE   H9X17415   1.955   5.763   7.963 -0.4748  0.4809 -0.1685
  156SAPE   H9Y17416   2.071   5.810   7.823 -1.6261  0.4839 -2.4699
  156SAPE  C31017417   2.111   5.619   7.924  0.0651 -0.3266 -0.4704
  156SAPE  H10X17418   2.176   5.669   8.000 -1.3742 -0.5780  0.9675
  156SAPE  H10Y17419   2.181   5.581   7.846 -1.0870 -0.1389 -1.6333
  156SAPE  C31117420   2.040   5.508   8.000 -0.3092  0.1593  0.4569
  156SAPE  H11X17421   1.973   5.462   7.924  1.3832 -2.5793  0.4724
  156SAPE  H11Y17422   1.987   5.544   8.091 -0.7368  0.6174  0.0308
  156SAPE  C31217423   2.145   5.405   8.050  0.9432 -0.3094  0.8443
  156SAPE  H12X17424   2.225   5.401   7.973 -1.1089 -0.9703 -1.3830
  156SAPE  H12Y17425   2.087   5.311   8.065 -0.1793  0.1203 -0.5362
  156SAPE  C31317426   2.202   5.434   8.188 -0.3225  0.1177 -0.8793
  156SAPE  H13X17427   2.281   5.512   8.180 -1.4853  1.3500 -0.7619
  156SAPE  H13Y17428   2.263   5.347   8.220  0.1354  1.5745  2.7486
  156SAPE  C31417429   2.111   5.463   8.311  0.6862 -0.4919 -0.7047
  156SAPE  H14X17430   2.025   5.393   8.310  0.3491 -0.1070 -0.0399
  156SAPE  H14Y17431   2.066   5.564   8.295 -1.4521 -1.0945  0.9976
  156SAPE  C31517432   2.192   5.479   8.444  0.4372  0.1771  0.0437
  156SAPE  H15X17433   2.275   5.552   8.433  0.2627  0.3141 -0.3644
  156SAPE  H15Y17434   2.224   5.378   8.478 -0.7178 -0.4144 -0.5480
  156SAPE  C31617435   2.099   5.529   8.551 -0.2381 -0.0769  1.5286
  156SAPE  H16X17436   2.016   5.456   8.561  0.2636 -0.4887  2.9308
  156SAPE  H16Y17437   2.067   5.632   8.525 -0.7764 -0.5179  0.3790
  156SAPE  C31717438   2.161   5.522   8.686  0.2792  1.0322  0.4178
  156SAPE  H17X17439   2.263   5.565   8.688  1.6373 -1.9788  1.9533
  156SAPE  H17Y17440   2.180   5.416   8.713 -1.9986 -0.0759 -1.9514
  156SAPE  C31817441   2.081   5.581   8.796  0.2720  0.3630  1.2806
  156SAPE  H18X17442   2.092   5.692   8.793  1.6544  0.2825  2.2188
  156SAPE  H18Y17443   2.124   5.552   8.894  1.3383  0.7191  0.9261
  156SAPE  H18Z17444   1.970   5.572   8.790  0.2882 -0.6699  2.1395
  157SAPE     N17445   6.637   6.489   5.963  0.8325 -0.3694  0.5088
  157SAPE   HN117446   6.549   6.433   5.962 -1.2563  2.7106  0.5272
  157SAPE   HN217447   6.611   6.579   6.007  1.0434  1.7003 -3.2278
  157SAPE   HN317448   6.662   6.506   5.864  0.8091 -0.8029  0.4261
  157SAPE   C1217449   6.751   6.430   6.044 -0.8595 -0.1619  0.7614
  157SAPE  H12A17450   6.822   6.516   6.047  0.4975 -1.2867  2.2859
  157SAPE  H12B17451   6.790   6.341   5.990  0.4487  0.6973  0.2336
  157SAPE   C1117452   6.715   6.394   6.181  0.1872  0.2960 -0.4863
  157SAPE  H11A17453   6.667   6.483   6.227  0.2509  0.5262 -0.8664
  157SAPE  H11B17454   6.808   6.378   6.240  0.0405  3.6380  0.8931
  157SAPE     P17455   6.637   6.147   6.192 -0.2785  0.6601  0.1199
  157SAPE   O1317456   6.510   6.071   6.195 -0.0821  0.3695  0.4667
  157SAPE   O1417457   6.740   6.103   6.091  0.3246  0.1513  0.4041
  157SAPE   O1217458   6.613   6.297   6.180  0.3226 -0.5619 -0.4780
  157SAPE   O1117459   6.691   6.134   6.342 -0.5841 -0.7172  0.7278
  157SAPE    C117460   6.800   6.046   6.383 -0.0037 -0.4546 -0.1863
  157SAPE    HA17461   6.877   6.016   6.309  1.0115 -3.1298  1.8139
  157SAPE    HB17462   6.853   6.098   6.465 -0.1748 -0.8644  0.1863
  157SAPE    C217463   6.747   5.911   6.450  0.1849  0.5396  0.1226
  157SAPE    HS17464   6.708   5.871   6.354 -0.8847  2.1343 -0.1528
  157SAPE   O2117465   6.636   5.937   6.541 -0.1977  0.2236 -0.1730
  157SAPE   C2117466   6.561   5.834   6.574  0.3153 -0.1089  0.6201
  157SAPE   O2217467   6.579   5.717   6.533  0.3269 -0.3544 -0.2538
  157SAPE   C2217468   6.445   5.888   6.659 -0.0339 -0.0825  0.1246
  157SAPE   H2R17469   6.452   5.999   6.654  0.2522 -0.1444 -1.2220
  157SAPE   H2S17470   6.351   5.850   6.615 -0.2173  0.8894 -0.3514
  157SAPE    C317471   6.860   5.826   6.513 -0.7355  0.5313 -0.4516
  157SAPE    HX17472   6.945   5.812   6.442  0.1989 -2.7700  1.1157
  157SAPE    HY17473   6.828   5.722   6.535  0.7236  0.3685  1.1640
  157SAPE   O3117474   6.917   5.892   6.632  0.2988  0.4428  0.6535
  157SAPE   C3117475   6.988   5.813   6.720  0.6685  0.3136  0.7759
  157SAPE   O3217476   7.006   5.693   6.708  0.8989 -0.3658 -1.0105
  157SAPE   C3217477   7.037   5.896   6.838 -0.0707  0.2172  0.2969
  157SAPE   H2X17478   6.966   5.980   6.849  1.8346  1.8332  0.7025
  157SAPE   H2Y17479   7.131   5.948   6.809 -0.1488  0.3456  0.2762
  157SAPE   C2317480   6.456   5.837   6.807 -0.4026  0.5361  0.1806
  157SAPE   H3R17481   6.463   5.727   6.796  4.1262  0.1360  4.0658
  157SAPE   H3S17482   6.365   5.846   6.871  0.4962 -1.6090  1.8908
  157SAPE   C2417483   6.577   5.900   6.884  0.1989 -0.2676 -0.2340
  157SAPE   H4R17484   6.660   5.911   6.811  1.2897 -0.7590  0.8784
  157SAPE   H4S17485   6.617   5.819   6.949 -0.8197 -1.6801 -1.3174
  157SAPE   C2517486   6.555   6.032   6.956  0.1688  0.4593 -0.2379
  157SAPE   H5R17487   6.489   6.104   6.906 -0.1916 -0.6758 -1.4483
  157SAPE   C2617488   6.590   6.081   7.077  0.5918  0.5755  0.3496
  157SAPE   H6R17489   6.557   6.184   7.098 -1.6180 -0.2856  1.4328
  157SAPE   C2717490   6.670   6.018   7.191 -0.6188  0.6076 -0.3771
  157SAPE   H7R17491   6.757   6.083   7.217 -1.0143  2.8453 -3.9865
  157SAPE   H7S17492   6.712   5.921   7.157 -3.1387  0.2957 -2.9852
  157SAPE   C2817493   6.589   5.998   7.317  0.3899  0.1601 -0.1864
  157SAPE   H8R17494   6.493   5.951   7.292  1.0376 -1.5564  0.3498
  157SAPE   C2917495   6.604   6.042   7.443  0.4907  0.1816 -0.3575
  157SAPE   H9R17496   6.526   6.011   7.513  1.1598 -1.0595 -0.1288
  157SAPE  C21017497   6.721   6.119   7.502 -0.1790  0.6298 -0.8707
  157SAPE  H10R17498   6.700   6.219   7.546  1.5395 -0.7629  3.7976
  157SAPE  H10S17499   6.802   6.131   7.427  0.6716  0.8801  0.0545
  157SAPE  C21117500   6.769   6.031   7.609 -0.5934  0.3446  0.0092
  157SAPE  H11R17501   6.809   5.932   7.581  0.7785 -0.6153  4.5584
  157SAPE  C21217502   6.757   6.056   7.745  0.2373  1.1219  0.8156
  157SAPE  H12R17503   6.821   6.003   7.818 -0.0089  1.0640  0.9926
  157SAPE  C21317504   6.692   6.180   7.807 -0.0096 -0.6054 -0.4698
  157SAPE  H13R17505   6.610   6.160   7.879 -1.3807  2.0270 -1.1627
  157SAPE  H13S17506   6.639   6.238   7.728  0.2324 -1.1351 -1.0293
  157SAPE  C21417507   6.790   6.273   7.877 -0.2646  0.0433 -0.1133
  157SAPE  H14R17508   6.819   6.365   7.825  1.6209 -0.5370 -0.1684
  157SAPE  C21517509   6.851   6.248   7.996  0.4793  0.2228 -0.9150
  157SAPE  H15R17510   6.921   6.319   8.041  1.0623  0.0336 -1.5066
  157SAPE  C21617511   6.831   6.130   8.079  0.3967 -0.3751  0.2501
  157SAPE  H16R17512   6.875   6.043   8.026 -1.0978  0.2151 -2.0911
  157SAPE  H16S17513   6.723   6.113   8.102  0.2932 -0.3058 -0.1771
  157SAPE  C21717514   6.906   6.149   8.213 -0.2679 -0.0592  0.2646
  157SAPE  H17R17515   6.893   6.243   8.272 -0.9052 -0.5964  1.0045
  157SAPE  H17S17516   7.016   6.139   8.202 -0.2161 -1.9950  1.9551
  157SAPE  C21817517   6.873   6.034   8.310 -0.4621 -0.8300 -0.8023
  157SAPE  H18R17518   6.960   6.033   8.379 -0.5680 -1.7822 -0.6728
  157SAPE  H18S17519   6.874   5.938   8.255 -0.2969 -0.2152 -1.8968
  157SAPE  C21917520   6.747   6.056   8.389  0.0216  0.2715 -0.2496
  157SAPE  H19R17521   6.654   6.028   8.335 -0.3248 -4.5828  2.3190
  157SAPE  H19S17522   6.740   6.157   8.434  1.7312 -0.8589  2.8545
  157SAPE  C22017523   6.744   5.962   8.515  0.2706  1.0503 -0.1961
  157SAPE  H20R17524   6.818   5.985   8.594 -0.5099 -0.5186  1.0348
  157SAPE  H20S17525   6.762   5.855   8.492  1.8480  1.3276 -0.4022
  157SAPE  H20T17526   6.642   5.963   8.560 -0.4384  1.1941 -1.7481
  157SAPE   C3317527   7.040   5.806   6.961  0.2468 -0.0614  0.0902
  157SAPE   H3X17528   7.121   5.730   6.954 -0.1681 -0.3883 -1.5708
  157SAPE   H3Y17529   6.947   5.745   6.964 -0.1090  0.4921  0.4969
  157SAPE   C3417530   7.066   5.889   7.085 -0.0540 -0.0234  0.3891
  157SAPE   H4X17531   6.997   5.976   7.080 -0.7475 -0.5472  0.7140
  157SAPE   H4Y17532   7.164   5.940   7.088 -1.8029  3.5941  0.8680
  157SAPE   C3517533   7.017   5.820   7.212 -0.2786  0.4374  0.3623
  157SAPE   H5X17534   7.063   5.720   7.223 -1.2123  0.0584  0.9752
  157SAPE   H5Y17535   6.907   5.804   7.216  0.0889 -2.3325  0.8975
  157SAPE   C3617536   7.059   5.904   7.339 -0.1550  0.4661  0.5877
  157SAPE   H6X17537   6.983   5.878   7.415 -2.5769  0.2471 -1.7446
  157SAPE   H6Y17538   7.058   6.014   7.323  0.5587  0.3235 -0.5815
  157SAPE   C3717539   7.188   5.861   7.394 -0.1939 -0.0335 -0.1563
  157SAPE   H7X17540   7.266   5.909   7.332 -0.7813  3.5272  1.6325
  157SAPE   H7Y17541   7.196   5.750   7.403  0.9425  0.0553  0.0323
  157SAPE   C3817542   7.193   5.921   7.534  0.4258 -0.2094  0.0610
  157SAPE   H8X17543   7.132   6.014   7.541 -0.8663 -1.1147  1.5248
  157SAPE   H8Y17544   7.301   5.948   7.541 -0.0451  2.5202 -1.5707
  157SAPE   C3917545   7.156   5.827   7.651  0.2889 -0.7429 -0.1231
  157SAPE   H9X17546   7.234   5.748   7.643  1.6497  0.5229  0.1372
  157SAPE   H9Y17547   7.056   5.781   7.639 -0.1038  0.0431  0.0721
  157SAPE  C31017548   7.157   5.892   7.793  0.2764  0.3260  0.3623
  157SAPE  H10X17549   7.110   5.993   7.787 -0.4649 -0.0217  0.2355
  157SAPE  H10Y17550   7.262   5.915   7.819  0.4846  3.1875 -2.3929
  157SAPE  C31117551   7.099   5.804   7.899  0.4570  0.4163 -0.3357
  157SAPE  H11X17552   6.994   5.782   7.870  0.6676  1.3420 -1.8895
  157SAPE  H11Y17553   7.090   5.841   8.003 -4.4255 -0.4799 -0.1943
  157SAPE  C31217554   7.173   5.664   7.904  0.4778  0.3972 -0.6222
  157SAPE  H12X17555   7.280   5.671   7.933  0.9008 -3.0692 -0.8531
  157SAPE  H12Y17556   7.166   5.614   7.805 -1.8035  2.2656 -1.5118
  157SAPE  C31317557   7.093   5.563   7.994 -0.4714 -0.0852  0.0788
  157SAPE  H13X17558   7.141   5.464   7.980  0.2871  0.4501 -1.3630
  157SAPE  H13Y17559   6.989   5.548   7.961 -1.0531  0.2017  1.6968
  157SAPE  C31417560   7.099   5.587   8.144 -0.1227 -0.8178 -0.1953
  157SAPE  H14X17561   7.091   5.697   8.158  0.3861 -0.0957 -4.3624
  157SAPE  H14Y17562   7.200   5.565   8.184  0.1177  1.3426  0.4571
  157SAPE  C31517563   6.987   5.517   8.219  0.1547  0.1693 -0.1807
  157SAPE  H15X17564   7.003   5.407   8.219 -0.5124  0.0708  0.3646
  157SAPE  H15Y17565   6.890   5.541   8.172 -0.2981 -1.0254  0.1245
  157SAPE  C31617566   6.963   5.565   8.356 -0.0329 -0.1280 -0.2592
  157SAPE  H16X17567   6.956   5.674   8.374  1.1863 -0.0478 -0.1763
  157SAPE  H16Y17568   7.052   5.529   8.413 -0.2740 -0.1204  0.1273
  157SAPE  C31717569   6.843   5.499   8.428  0.2411  0.5205  0.5534
  157SAPE  H17X17570   6.850   5.391   8.404 -1.2890  0.3245  0.8956
  157SAPE  H17Y17571   6.755   5.540   8.374  0.2622 -0.5471 -0.3148
  157SAPE  C31817572   6.849   5.522   8.574  0.1041  0.2145 -0.4612
  157SAPE  H18X17573   6.807   5.615   8.617 -2.4529 -0.7210 -0.7745
  157SAPE  H18Y17574   6.951   5.497   8.609  0.6886 -0.3424 -2.3919
  157SAPE  H18Z17575   6.791   5.451   8.637  0.3018 -0.2980 -0.8474
  158SAPE     N17576   2.127   4.571   5.868  0.3465  0.5898 -0.3792
  158SAPE   HN117577   2.034   4.523   5.862  0.0068  1.2108 -0.1371
  158SAPE   HN217578   2.127   4.643   5.793  0.1722  1.5180  0.4990
  158SAPE   HN317579   2.199   4.502   5.839 -0.9255 -0.3905 -1.3407
  158SAPE   C1217580   2.148   4.614   6.008 -0.0237 -0.2011 -0.7986
  158SAPE  H12A17581   2.111   4.526   6.065 -1.9726  1.2544  0.2956
  158SAPE  H12B17582   2.081   4.696   6.042  0.8906  0.3463 -0.2343
  158SAPE   C1117583   2.295   4.650   6.029  0.2138  0.4585  0.6123
  158SAPE  H11A17584   2.299   4.683   6.135  2.0307 -0.3069  0.8253
  158SAPE  H11B17585   2.323   4.728   5.955  0.0969 -0.2446 -0.1898
  158SAPE     P17586   2.527   4.525   6.062 -0.1017  0.0345 -0.0975
  158SAPE   O1317587   2.612   4.487   5.946  0.2994 -0.3954 -0.2020
  158SAPE   O1417588   2.563   4.641   6.139  0.1703 -0.2604 -0.0634
  158SAPE   O1217589   2.376   4.537   6.009  0.6084 -0.3612  0.1633
  158SAPE   O1117590   2.534   4.400   6.163 -0.4056 -0.0491  0.2852
  158SAPE    C117591   2.404   4.359   6.219 -0.7733 -0.3469  0.1184
  158SAPE    HA17592   2.329   4.346   6.138 -0.7540 -6.5394  0.6139
  158SAPE    HB17593   2.405   4.251   6.245  1.3715 -0.6791 -1.0861
  158SAPE    C217594   2.365   4.430   6.341 -1.0761  0.7602  1.1132
  158SAPE    HS17595   2.375   4.540   6.334  0.0981  0.7589  2.4381
  158SAPE   O2117596   2.441   4.381   6.456  0.2009  0.1350  0.0060
  158SAPE   C2117597   2.513   4.462   6.525 -0.6012  0.2000 -0.7035
  158SAPE   O2217598   2.514   4.584   6.515 -0.1916 -0.3771 -1.0004
  158SAPE   C2217599   2.583   4.387   6.635  1.1850 -0.2591 -0.4020
  158SAPE   H2R17600   2.508   4.327   6.690  1.7985 -2.2613 -1.6411
  158SAPE   H2S17601   2.654   4.309   6.599 -1.7784 -2.9393 -0.9128
  158SAPE    C317602   2.214   4.410   6.354  0.2355 -0.4687  1.2563
  158SAPE    HX17603   2.191   4.302   6.341 -2.3113  0.1387  0.0959
  158SAPE    HY17604   2.168   4.463   6.268  4.9162 -0.8510 -1.7790
  158SAPE   O3117605   2.163   4.454   6.480  0.9340 -0.9801  0.2166
  158SAPE   C3117606   2.123   4.578   6.486  0.8783 -0.6993 -0.2283
  158SAPE   O3217607   2.124   4.659   6.392 -0.2743  0.6326  0.3497
  158SAPE   C3217608   2.089   4.615   6.628  0.7594  0.0905 -0.4292
  158SAPE   H2X17609   2.016   4.541   6.665  1.1090  0.4563  1.0863
  158SAPE   H2Y17610   2.044   4.717   6.633  0.9897  0.2392 -1.2674
  158SAPE   C2317611   2.656   4.486   6.734 -0.1252 -0.6027 -0.1666
  158SAPE   H3R17612   2.581   4.561   6.767 -1.1578 -1.4033 -0.6396
  158SAPE   H3S17613   2.746   4.538   6.692  0.3083 -2.0269 -1.0699
  158SAPE   C2417614   2.706   4.410   6.864  0.3708 -0.1037  0.3187
  158SAPE   H4R17615   2.777   4.332   6.828  0.6837  0.4576 -0.3062
  158SAPE   H4S17616   2.622   4.355   6.912  0.4000 -0.4904 -0.0700
  158SAPE   C2517617   2.774   4.511   6.957  0.2192  0.2944 -0.4178
  158SAPE   H5R17618   2.847   4.573   6.904  1.6939  0.6068  1.8774
  158SAPE   C2617619   2.748   4.549   7.082  0.0147  0.9324 -0.0869
  158SAPE   H6R17620   2.802   4.634   7.127 -0.1356  2.9179 -3.2990
  158SAPE   C2717621   2.644   4.488   7.170 -0.3597 -0.0450 -0.1554
  158SAPE   H7R17622   2.692   4.404   7.224  0.9618 -0.0054 -1.1990
  158SAPE   H7S17623   2.572   4.427   7.111 -0.4784  0.2015 -0.2651
  158SAPE   C2817624   2.577   4.579   7.269 -0.2019  0.1112 -0.2893
  158SAPE   H8R17625   2.485   4.630   7.238 -0.2856  0.6600  0.8230
  158SAPE   C2917626   2.630   4.621   7.384 -0.1512 -0.1891 -0.2702
  158SAPE   H9R17627   2.566   4.683   7.449 -0.1945 -0.4997 -0.0181
  158SAPE  C21017628   2.759   4.586   7.451 -0.1520  0.6496  0.8787
  158SAPE  H10R17629   2.840   4.586   7.375 -0.0230 -0.5599  1.0046
  158SAPE  H10S17630   2.758   4.478   7.476 -0.3849  0.4395  0.0266
  158SAPE  C21117631   2.796   4.677   7.568 -0.1387 -0.1819  0.5400
  158SAPE  H11R17632   2.845   4.770   7.537  1.7820 -1.3789 -0.2593
  158SAPE  C21217633   2.761   4.659   7.699 -0.5683 -0.3605 -0.4194
  158SAPE  H12R17634   2.804   4.732   7.769 -1.6500 -2.4746  2.6509
  158SAPE  C21317635   2.700   4.541   7.771 -0.2190  0.2930  0.0175
  158SAPE  H13R17636   2.750   4.444   7.748  0.8410  0.5216  1.2571
  158SAPE  H13S17637   2.601   4.523   7.723  0.7616 -0.5461 -1.8340
  158SAPE  C21417638   2.676   4.556   7.919  0.2693  0.2342 -0.0229
  158SAPE  H14R17639   2.728   4.635   7.975 -2.4364  0.6014  2.2233
  158SAPE  C21517640   2.597   4.479   7.998 -0.3833 -0.0397  0.7915
  158SAPE  H15R17641   2.605   4.508   8.104 -0.5587 -1.1015  1.1130
  158SAPE  C21617642   2.516   4.360   7.968 -0.0970  0.1155  0.5280
  158SAPE  H16R17643   2.544   4.316   7.870 -2.4140  1.0836 -0.6368
  158SAPE  H16S17644   2.406   4.375   7.976 -0.1086  0.9796 -0.8828
  158SAPE  C21717645   2.558   4.257   8.072  0.5148  0.4485  0.3286
  158SAPE  H17R17646   2.667   4.256   8.094  0.5203  1.9100  0.4372
  158SAPE  H17S17647   2.542   4.153   8.035  3.3172  0.8408 -2.4392
  158SAPE  C21817648   2.489   4.273   8.206 -0.8271  0.1651 -0.4146
  158SAPE  H18R17649   2.381   4.254   8.186 -0.9370  0.3381 -0.0068
  158SAPE  H18S17650   2.499   4.373   8.253 -0.6533 -0.1023  0.1312
  158SAPE  C21917651   2.526   4.176   8.318 -0.4430 -0.0983 -0.4019
  158SAPE  H19R17652   2.628   4.193   8.359 -0.5571 -0.0728 -0.1253
  158SAPE  H19S17653   2.536   4.074   8.277 -2.4475  0.2672 -1.9979
  158SAPE  C22017654   2.417   4.168   8.429 -0.3284 -0.0035 -0.0674
  158SAPE  H20R17655   2.316   4.151   8.386 -0.2652 -1.1879  0.1964
  158SAPE  H20S17656   2.402   4.255   8.496 -2.4878 -1.0621  0.9438
  158SAPE  H20T17657   2.429   4.083   8.499  2.7053  0.4653  0.0985
  158SAPE   C3317658   2.210   4.594   6.727  0.1011  0.1892  0.3562
  158SAPE   H3X17659   2.288   4.665   6.692  1.6984 -2.1878 -1.2142
  158SAPE   H3Y17660   2.249   4.491   6.721 -0.0045  0.0330  1.9595
  158SAPE   C3417661   2.200   4.648   6.875  0.1768 -0.4096  0.3261
  158SAPE   H4X17662   2.208   4.757   6.856  3.0770 -0.7225 -0.7050
  158SAPE   H4Y17663   2.292   4.610   6.925  1.6711 -1.0401 -2.6663
  158SAPE   C3517664   2.074   4.616   6.961  0.2305  0.8295 -0.1488
  158SAPE   H5X17665   1.996   4.641   6.886  0.4469  1.6528 -0.1189
  158SAPE   H5Y17666   2.060   4.690   7.043 -1.4888 -0.0833  0.4366
  158SAPE   C3617667   2.072   4.472   7.000 -0.0244  0.8065  0.6667
  158SAPE   H6X17668   2.128   4.417   6.922 -0.1315  0.5696  0.7572
  158SAPE   H6Y17669   1.969   4.432   6.996 -0.2894  1.5647 -0.4563
  158SAPE   C3717670   2.138   4.446   7.140  0.0893 -0.3368 -0.0143
  158SAPE   H7X17671   2.148   4.336   7.157 -2.0011 -0.4144  1.0287
  158SAPE   H7Y17672   2.237   4.495   7.134  0.0149 -0.4303 -3.3470
  158SAPE   C3817673   2.059   4.489   7.263 -0.1226  0.4409  0.4537
  158SAPE   H8X17674   1.964   4.432   7.256  1.6967 -2.6428 -1.8385
  158SAPE   H8Y17675   2.024   4.594   7.249 -2.6697 -0.4175 -0.1970
  158SAPE   C3917676   2.124   4.483   7.403 -0.1016  0.1109  0.1834
  158SAPE   H9X17677   2.155   4.380   7.430  0.6510 -0.4268 -2.4346
  158SAPE   H9Y17678   2.056   4.526   7.479  0.9325  0.2084  1.0814
  158SAPE  C31017679   2.250   4.573   7.417  0.2497 -0.2014 -0.5294
  158SAPE  H10X17680   2.226   4.677   7.385  1.3354  0.2077 -0.0806
  158SAPE  H10Y17681   2.320   4.535   7.339  0.2722 -0.4308 -0.3952
  158SAPE  C31117682   2.316   4.563   7.564 -0.4750  0.2529  0.4298
  158SAPE  H11X17683   2.397   4.639   7.571 -1.0783  0.7597  2.7190
  158SAPE  H11Y17684   2.369   4.469   7.591 -0.7266  0.0017  0.0676
  158SAPE  C31217685   2.228   4.605   7.682  0.8963  0.4172 -0.4139
  158SAPE  H12X17686   2.152   4.680   7.652  1.0614  0.9503  0.4450
  158SAPE  H12Y17687   2.282   4.664   7.760  1.5092 -1.1168  0.3666
  158SAPE  C31317688   2.160   4.485   7.750 -0.4398 -0.4526  0.4059
  158SAPE  H13X17689   2.235   4.421   7.802  0.2523  1.2880  1.6659
  158SAPE  H13Y17690   2.120   4.421   7.668 -1.1276  2.5720 -1.7933
  158SAPE  C31417691   2.055   4.525   7.853 -0.0459 -0.7442 -0.7496
  158SAPE  H14X17692   1.982   4.442   7.856 -1.7495  0.7238  0.8077
  158SAPE  H14Y17693   1.997   4.616   7.827 -0.4971 -0.7276  0.2748
  158SAPE  C31517694   2.108   4.546   7.993 -0.4845 -0.4067  0.0788
  158SAPE  H15X17695   2.044   4.630   8.027 -2.2664 -1.1135 -1.3358
  158SAPE  H15Y17696   2.215   4.577   8.001 -0.7157  0.2344  0.8165
  158SAPE  C31617697   2.073   4.429   8.092 -0.0324 -0.5428 -0.8800
  158SAPE  H16X17698   2.137   4.339   8.079  2.0339  0.5248  1.1652
  158SAPE  H16Y17699   1.964   4.408   8.079  0.1395 -2.6881  0.5311
  158SAPE  C31717700   2.070   4.475   8.243 -0.3229 -0.4726  0.2996
  158SAPE  H17X17701   2.038   4.401   8.320 -0.1635  1.2947  2.1635
  158SAPE  H17Y17702   1.999   4.559   8.250  3.4194  2.9842  0.3068
  158SAPE  C31817703   2.208   4.529   8.292  0.3703  0.0419 -0.2138
  158SAPE  H18X17704   2.206   4.558   8.399  1.0627  0.0825 -0.2094
  158SAPE  H18Y17705   2.231   4.625   8.239 -0.1475  0.6090  0.5789
  158SAPE  H18Z17706   2.294   4.459   8.282  1.1024  0.5175  2.1856
  159SAPE     N17707   0.485   0.255   6.061  0.2627  0.0928  0.3141
  159SAPE   HN117708   0.538   0.332   6.016  0.8721 -1.8663 -2.5814
  159SAPE   HN217709   0.508   0.180   5.993 -0.8246  0.4793 -0.5054
  159SAPE   HN317710   0.384   0.280   6.063  0.1920 -0.1052 -0.6537
  159SAPE   C1217711   0.532   0.214   6.200 -0.3739 -0.0749 -0.5816
  159SAPE  H12A17712   0.444   0.163   6.244 -0.4173 -0.8557 -1.5543
  159SAPE  H12B17713   0.558   0.304   6.261 -1.3408 -1.4404  1.9951
  159SAPE   C1117714   0.647   0.117   6.183  0.0143 -0.7664 -0.2224
  159SAPE  H11A17715   0.607   0.035   6.120  0.6501  1.1604 -3.4101
  159SAPE  H11B17716   0.671   0.080   6.284  1.4449  2.4692  0.7499
  159SAPE     P17717   0.872   0.070   6.087 -0.6238 -0.3054 -0.1100
  159SAPE   O1317718   0.813  -0.065   6.063  0.4116  0.2224 -0.2367
  159SAPE   O1417719   0.966   0.122   5.989 -0.1347  0.1318 -0.0465
  159SAPE   O1217720   0.759   0.181   6.110 -0.6377 -0.5881  0.6985
  159SAPE   O1117721   0.941   0.065   6.233  0.2419  0.3764 -0.4893
  159SAPE    C117722   1.065   0.130   6.263  0.3100  0.3895  0.1822
  159SAPE    HA17723   1.146   0.060   6.232 -0.3370 -1.0075  1.5270
  159SAPE    HB17724   1.076   0.221   6.200  3.5469  0.1210  0.1448
  159SAPE    C217725   1.073   0.185   6.414  0.1422 -0.8549  0.5263
  159SAPE    HS17726   1.168   0.240   6.429  1.7763 -2.5150 -2.5671
  159SAPE   O2117727   1.059   0.083   6.522  0.1045  0.3043  0.1263
  159SAPE   C2117728   1.148  -0.021   6.514 -0.3482 -0.1943  0.3478
  159SAPE   O2217729   1.259  -0.026   6.466 -0.0224 -0.1677  0.2006
  159SAPE   C2217730   1.069  -0.133   6.573  0.3161 -0.2451 -0.0580
  159SAPE   H2R17731   0.964  -0.125   6.537 -0.1176 -2.3103  0.5815
  159SAPE   H2S17732   1.111  -0.223   6.523 -0.0822  0.6438 -2.0883
  159SAPE    C317733   0.956   0.277   6.440  0.6087 -0.9078 -0.1110
  159SAPE    HX17734   0.866   0.217   6.414  0.2403 -0.2001 -0.5226
  159SAPE    HY17735   0.971   0.364   6.373 -0.0809 -1.2675 -0.7565
  159SAPE   O3117736   0.933   0.310   6.581  0.3766  0.5101 -0.1873
  159SAPE   C3117737   0.993   0.417   6.629 -0.5668 -0.0536 -0.3058
  159SAPE   O3217738   1.075   0.488   6.572  0.5413  0.0887 -0.5773
  159SAPE   C3217739   0.940   0.437   6.770 -0.3098 -0.4075 -0.1283
  159SAPE   H2X17740   0.965   0.347   6.831 -1.2559 -2.1680 -2.2170
  159SAPE   H2Y17741   0.829   0.440   6.763 -0.2175  1.9780 -1.2563
  159SAPE   C2317742   1.078  -0.131   6.729  0.0106 -0.3031  0.5296
  159SAPE   H3R17743   1.055  -0.028   6.763  0.2950 -0.2674  0.6209
  159SAPE   H3S17744   1.184  -0.161   6.744 -0.1695 -2.0538 -1.3380
  159SAPE   C2417745   0.976  -0.236   6.791 -0.4547  0.4033 -0.7769
  159SAPE   H4R17746   0.878  -0.216   6.742 -0.3992 -0.5830 -1.3337
  159SAPE   H4S17747   0.977  -0.213   6.900  3.3650 -0.9300 -0.3699
  159SAPE   C2517748   1.012  -0.375   6.761  0.2433 -0.1673  0.0996
  159SAPE   H5R17749   0.986  -0.403   6.658 -2.0658 -1.7416  1.0316
  159SAPE   C2617750   1.066  -0.466   6.844  0.0989 -0.1258  0.3745
  159SAPE   H6R17751   1.075  -0.569   6.806  0.6640  0.6547 -1.7952
  159SAPE   C2717752   1.115  -0.458   6.985 -0.2522  0.4205 -0.0031
  159SAPE   H7R17753   1.097  -0.554   7.039  0.1298  0.3901  0.0710
  159SAPE   H7S17754   1.038  -0.393   7.031 -1.0518 -1.3080  1.1992
  159SAPE   C2817755   1.261  -0.424   6.996  0.2143 -0.7966 -0.3350
  159SAPE   H8R17756   1.335  -0.504   6.983  0.6909 -0.6354  1.1213
  159SAPE   C2917757   1.305  -0.295   7.032  0.4624 -0.8187  1.0332
  159SAPE   H9R17758   1.414  -0.287   7.033  0.5470 -0.4834 -1.8541
  159SAPE  C21017759   1.222  -0.174   7.064  0.3596  0.0858 -0.0482
  159SAPE  H10R17760   1.120  -0.211   7.090  0.8985 -1.6842 -0.3367
  159SAPE  H10S17761   1.222  -0.101   6.981 -1.3139  0.5490  0.3241
  159SAPE  C21117762   1.273  -0.096   7.186 -0.1505  0.7231  0.0119
  159SAPE  H11R17763   1.364  -0.044   7.153 -1.5903  1.4500 -3.2026
  159SAPE  C21217764   1.224  -0.090   7.314 -0.0519 -0.1177  0.0666
  159SAPE  H12R17765   1.285  -0.031   7.383  0.3080  0.8609 -1.0654
  159SAPE  C21317766   1.101  -0.157   7.373 -0.5259  0.2475  0.7223
  159SAPE  H13R17767   1.059  -0.235   7.306  0.5160  2.3856 -2.6600
  159SAPE  H13S17768   1.023  -0.079   7.373 -0.2885  0.4932  1.7141
  159SAPE  C21417769   1.131  -0.209   7.511  0.5606 -0.3636  0.0927
  159SAPE  H14R17770   1.187  -0.303   7.523 -0.3640 -1.2397 -2.0215
  159SAPE  C21517771   1.119  -0.150   7.629 -0.1370  0.2104 -0.4418
  159SAPE  H15R17772   1.150  -0.200   7.721 -0.6667  1.7919  0.6312
  159SAPE  C21617773   1.064  -0.017   7.661 -0.4737 -0.4884  0.3174
  159SAPE  H16R17774   1.021  -0.033   7.763 -0.5141  1.7213  0.6925
  159SAPE  H16S17775   0.980  -0.004   7.590  0.1936 -3.5497 -1.1828
  159SAPE  C21717776   1.181   0.092   7.664  0.1690  0.4312  0.7385
  159SAPE  H17R17777   1.234   0.099   7.567 -0.1491  1.2448  0.6158
  159SAPE  H17S17778   1.255   0.062   7.741  0.6467 -1.8307 -0.5194
  159SAPE  C21817779   1.129   0.234   7.701 -0.8070  0.1526  0.4093
  159SAPE  H18R17780   1.208   0.302   7.738  0.0265 -0.0026 -1.0018
  159SAPE  H18S17781   1.052   0.228   7.782 -2.1034  3.4335 -0.4209
  159SAPE  C21917782   1.068   0.310   7.583  0.0742 -0.3454 -0.0953
  159SAPE  H19R17783   1.040   0.406   7.631  1.4543 -0.5346  1.1477
  159SAPE  H19S17784   0.976   0.259   7.548 -2.3305  1.7451  2.7288
  159SAPE  C22017785   1.165   0.340   7.468  0.1388 -0.2930 -0.7661
  159SAPE  H20R17786   1.217   0.254   7.421  1.0756 -1.8285  2.7354
  159SAPE  H20S17787   1.244   0.412   7.499 -0.2333 -0.3797  0.4471
  159SAPE  H20T17788   1.102   0.393   7.394 -0.1368  2.1494  1.0672
  159SAPE   C3317789   0.980   0.567   6.845 -0.3776  0.3575 -0.7324
  159SAPE   H3X17790   0.945   0.657   6.790 -0.0907  2.2500  1.9617
  159SAPE   H3Y17791   1.090   0.581   6.858 -0.1866 -1.1334 -0.5505
  159SAPE   C3417792   0.907   0.590   6.977  0.2006 -0.4658 -0.3977
  159SAPE   H4X17793   0.923   0.499   7.038 -1.8650 -1.5819 -1.4275
  159SAPE   H4Y17794   0.798   0.610   6.968  0.1667  1.7184  3.0051
  159SAPE   C3517795   0.961   0.707   7.046 -0.0363 -0.5267  0.1726
  159SAPE   H5X17796   0.951   0.798   6.983 -0.5913 -0.6442  0.0859
  159SAPE   H5Y17797   1.068   0.692   7.072 -0.1885 -2.4909 -0.1700
  159SAPE   C3617798   0.879   0.737   7.177 -0.4176 -0.2736  0.7063
  159SAPE   H6X17799   0.769   0.725   7.162 -0.3011 -1.1088  0.5178
  159SAPE   H6Y17800   0.900   0.845   7.195  0.6932 -0.2095 -0.8379
  159SAPE   C3717801   0.924   0.652   7.291 -0.1727  0.5091 -0.6806
  159SAPE   H7X17802   1.022   0.686   7.332 -0.9132  2.1142 -0.1813
  159SAPE   H7Y17803   0.927   0.545   7.260 -0.4927 -0.3594  1.9976
  159SAPE   C3817804   0.824   0.676   7.405 -0.4935 -0.2215 -0.2009
  159SAPE   H8X17805   0.824   0.592   7.478 -0.5059 -0.7507 -0.7991
  159SAPE   H8Y17806   0.721   0.677   7.362 -0.8484 -2.2162  0.4849
  159SAPE   C3917807   0.843   0.804   7.484 -0.1081  0.1202 -0.3528
  159SAPE   H9X17808   0.836   0.893   7.417  0.7539 -0.1129 -0.7722
  159SAPE   H9Y17809   0.943   0.813   7.531 -0.3259  0.0378  0.1277
  159SAPE  C31017810   0.753   0.815   7.607 -0.5034 -0.2903 -0.0916
  159SAPE  H10X17811   0.650   0.814   7.566 -0.3740 -2.2716 -0.4714
  159SAPE  H10Y17812   0.777   0.906   7.666  1.0825 -1.9932  2.0428
  159SAPE  C31117813   0.763   0.706   7.711  0.8670 -0.3263  0.1827
  159SAPE  H11X17814   0.868   0.701   7.747  0.8991 -1.7868 -0.0655
  159SAPE  H11Y17815   0.734   0.603   7.683  1.4897 -1.0061  1.9606
  159SAPE  C31217816   0.679   0.748   7.838 -0.5348 -0.3039 -0.0614
  159SAPE  H12X17817   0.655   0.654   7.892  2.6449  0.0558  2.2249
  159SAPE  H12Y17818   0.583   0.797   7.809 -1.0095 -0.5874  0.9965
  159SAPE  C31317819   0.761   0.828   7.945  0.7176  0.0873  0.1884
  159SAPE  H13X17820   0.812   0.912   7.893 -0.8622  2.2585  1.9463
  159SAPE  H13Y17821   0.829   0.763   8.003  0.1773  0.1510  0.9057
  159SAPE  C31417822   0.665   0.884   8.050  0.1174 -0.4376  0.5572
  159SAPE  H14X17823   0.612   0.805   8.106 -2.5820  0.6160 -0.3639
  159SAPE  H14Y17824   0.595   0.940   7.985  2.1795  0.0017 -1.4353
  159SAPE  C31517825   0.737   0.972   8.153 -0.7229 -0.8388 -0.0890
  159SAPE  H15X17826   0.657   1.026   8.210  0.7176  0.9451  0.3444
  159SAPE  H15Y17827   0.804   1.044   8.102 -2.0905  0.5315 -0.0431
  159SAPE  C31617828   0.823   0.891   8.251 -0.6860  0.2372 -0.1100
  159SAPE  H16X17829   0.879   0.964   8.313 -0.8618 -0.9099  1.4563
  159SAPE  H16Y17830   0.890   0.829   8.189  0.7711 -1.1498  2.6682
  159SAPE  C31717831   0.753   0.791   8.334  0.7978  0.1754  0.0896
  159SAPE  H17X17832   0.643   0.806   8.338  0.4254 -2.4852  1.6823
  159SAPE  H17Y17833   0.780   0.799   8.441  0.4875 -5.5438  0.8712
  159SAPE  C31817834   0.774   0.646   8.287  0.5909 -0.8073 -0.3172
  159SAPE  H18X17835   0.882   0.632   8.265  0.4987 -2.2362  0.0429
  159SAPE  H18Y17836   0.722   0.635   8.190  2.2747  0.1751 -1.3838
  159SAPE  H18Z17837   0.732   0.579   8.366 -0.5270  0.0901 -0.1266
  160SAPE     N17838   3.340   6.322   6.640 -0.1485 -0.0575 -0.9849
  160SAPE   HN117839   3.275   6.358   6.566  0.9034  1.1255 -1.3649
  160SAPE   HN217840   3.352   6.394   6.715 -0.4920 -1.0435  0.0457
  160SAPE   HN317841   3.431   6.281   6.611 -0.5268 -1.2478 -0.5358
  160SAPE   C1217842   3.264   6.219   6.720 -0.5733 -0.6424  1.2285
  160SAPE  H12A17843   3.322   6.194   6.812  1.9397 -1.6448 -0.5129
  160SAPE  H12B17844   3.261   6.123   6.664  0.1669 -0.8348  1.5076
  160SAPE   C1117845   3.112   6.264   6.741 -0.9738 -0.2158 -0.2689
  160SAPE  H11A17846   3.114   6.359   6.798  2.1849 -0.3057 -0.0623
  160SAPE  H11B17847   3.062   6.191   6.808 -2.3676  0.5245 -0.4810
  160SAPE     P17848   2.947   6.167   6.564  0.2411  0.1966  0.1682
  160SAPE   O1317849   2.879   6.227   6.446  0.1415  0.4455 -0.3191
  160SAPE   O1417850   3.013   6.037   6.538 -0.4524  0.3604 -0.6579
  160SAPE   O1217851   3.052   6.271   6.619  0.2243  0.1693  0.8949
  160SAPE   O1117852   2.848   6.158   6.685  0.1610  0.0686 -0.0130
  160SAPE    C117853   2.759   6.268   6.716  0.6106  0.5493 -0.7188
  160SAPE    HA17854   2.816   6.362   6.735  0.6613  0.9494 -2.6712
  160SAPE    HB17855   2.683   6.291   6.639  1.2678  2.5775 -0.8247
  160SAPE    C217856   2.687   6.243   6.852 -0.4394  0.2712 -0.2037
  160SAPE    HS17857   2.615   6.326   6.868  0.7161  1.0432  1.1410
  160SAPE   O2117858   2.771   6.229   6.966 -0.0541  0.1060 -0.6991
  160SAPE   C2117859   2.840   6.335   7.008 -0.4322  0.5258  0.6654
  160SAPE   O2217860   2.830   6.443   6.956 -0.3139  0.2029  0.4433
  160SAPE   C2217861   2.935   6.299   7.124 -0.0964 -0.2854  1.0879
  160SAPE   H2R17862   2.871   6.273   7.211 -0.6547 -0.2272  0.6987
  160SAPE   H2S17863   2.994   6.205   7.117 -1.3262 -1.1646  2.0694
  160SAPE    C317864   2.596   6.117   6.835 -0.1195 -0.4397 -0.7341
  160SAPE    HX17865   2.649   6.025   6.868  0.7153 -0.2444 -1.5003
  160SAPE    HY17866   2.578   6.102   6.727 -0.4146 -0.8741 -0.6252
  160SAPE   O3117867   2.474   6.130   6.903  0.3140  0.6970 -0.6379
  160SAPE   C3117868   2.388   6.203   6.846 -0.1537 -1.1274 -0.1184
  160SAPE   O3217869   2.397   6.262   6.742  0.2462  0.0311  0.6293
  160SAPE   C3217870   2.271   6.234   6.943  0.5680 -0.2687 -0.2703
  160SAPE   H2X17871   2.213   6.144   6.973 -0.4146  0.4625  0.1052
  160SAPE   H2Y17872   2.214   6.318   6.897  0.5925  1.2161  2.2046
  160SAPE   C2317873   3.030   6.421   7.150  0.8386 -0.0195 -0.1036
  160SAPE   H3R17874   2.973   6.500   7.204  1.2686 -0.0121  0.3519
  160SAPE   H3S17875   3.063   6.461   7.052  0.1791 -0.1694 -0.3932
  160SAPE   C2417876   3.164   6.382   7.215  0.3852  0.4530  0.3281
  160SAPE   H4R17877   3.236   6.466   7.215  0.6948  0.1981  1.1831
  160SAPE   H4S17878   3.211   6.299   7.158  0.7075  0.4988  0.5247
  160SAPE   C2517879   3.119   6.340   7.353 -0.5559  0.0708 -0.3435
  160SAPE   H5R17880   3.070   6.424   7.404  0.6184  0.6552 -0.1437
  160SAPE   C2617881   3.149   6.227   7.421  0.0076 -0.0161  0.5578
  160SAPE   H6R17882   3.103   6.216   7.520 -0.2551  0.9655  0.5548
  160SAPE   C2717883   3.245   6.114   7.375  0.2331  0.3323 -0.3321
  160SAPE   H7R17884   3.258   6.117   7.265  1.0533 -1.5433 -0.3206
  160SAPE   H7S17885   3.188   6.021   7.399 -0.9101  1.1662  0.2736
  160SAPE   C2817886   3.390   6.116   7.438 -0.1270 -0.7043  0.6128
  160SAPE   H8R17887   3.470   6.148   7.369 -0.6907  0.6147  0.5425
  160SAPE   C2917888   3.435   6.079   7.559 -0.1596 -0.1157 -0.0315
  160SAPE   H9R17889   3.542   6.091   7.582 -0.6713  0.0398  2.5029
  160SAPE  C21017890   3.349   6.038   7.677  0.1490 -0.1745 -0.6191
  160SAPE  H10R17891   3.348   5.927   7.671 -1.2146 -0.1298 -1.3540
  160SAPE  H10S17892   3.242   6.060   7.663 -0.1567  0.1961  1.8810
  160SAPE  C21117893   3.409   6.071   7.811  0.1923  0.1239 -0.3540
  160SAPE  H11R17894   3.517   6.089   7.816  0.2622 -0.5133  0.9552
  160SAPE  C21217895   3.344   6.075   7.924 -0.1602 -0.3346  0.1001
  160SAPE  H12R17896   3.397   6.122   8.009  1.2954 -0.9227 -0.4687
  160SAPE  C21317897   3.197   6.043   7.950  0.1622  0.1849  0.6785
  160SAPE  H13R17898   3.185   5.970   8.032  2.5068  1.0985  1.9340
  160SAPE  H13S17899   3.158   5.996   7.857  2.1717  0.3757 -0.3182
  160SAPE  C21417900   3.100   6.162   7.973 -0.1134  0.4058 -0.2322
  160SAPE  H14R17901   3.109   6.226   7.885  2.8505 -0.6299 -0.8277
  160SAPE  C21517902   3.009   6.179   8.073  0.3873  0.5615 -0.3577
  160SAPE  H15R17903   2.957   6.274   8.054  1.0089  1.0369  0.2420
  160SAPE  C21617904   2.993   6.091   8.198 -0.7292 -0.4201  0.6216
  160SAPE  H16R17905   3.074   6.116   8.270  0.0863 -1.4986  0.1110
  160SAPE  H16S17906   3.004   5.982   8.177 -0.1681 -0.4693  1.1448
  160SAPE  C21717907   2.851   6.109   8.250  0.0295 -0.3290  0.5265
  160SAPE  H17R17908   2.770   6.082   8.179 -0.7379  0.2788  1.1576
  160SAPE  H17S17909   2.830   6.215   8.276  0.0025 -0.0699 -0.4854
  160SAPE  C21817910   2.827   6.029   8.377 -0.7044 -0.3705  0.8183
  160SAPE  H18R17911   2.872   6.072   8.469 -4.0270  0.8169  2.0515
  160SAPE  H18S17912   2.877   5.930   8.370  0.7654  0.2030  2.4376
  160SAPE  C21917913   2.687   6.002   8.424  0.6657 -0.6002  0.1586
  160SAPE  H19R17914   2.632   5.950   8.343 -0.3903  1.0911 -0.2589
  160SAPE  H19S17915   2.646   6.104   8.438  0.4460 -0.5424 -0.8736
  160SAPE  C22017916   2.664   5.925   8.555  0.7032 -0.1865  0.3268
  160SAPE  H20R17917   2.558   5.929   8.588  0.4769 -0.6206 -0.3155
  160SAPE  H20S17918   2.737   5.961   8.630 -0.6919  2.3175  0.6044
  160SAPE  H20T17919   2.685   5.816   8.542 -1.0205 -0.7750  2.0497
  160SAPE   C3317920   2.313   6.293   7.079  0.3276 -0.3291  0.0776
  160SAPE   H3X17921   2.339   6.398   7.055  0.2001  0.2096  2.1508
  160SAPE   H3Y17922   2.408   6.243   7.106 -1.3135 -2.5289  2.1278
  160SAPE   C3417923   2.211   6.284   7.189  0.2874  0.6429  0.1189
  160SAPE   H4X17924   2.252   6.328   7.282 -0.4485 -0.4257  0.9714
  160SAPE   H4Y17925   2.197   6.174   7.201 -0.5520  0.8515  1.1199
  160SAPE   C3517926   2.091   6.358   7.144  0.4989  0.4318  0.2474
  160SAPE   H5X17927   2.048   6.307   7.056  1.3436 -0.4708  0.3389
  160SAPE   H5Y17928   2.115   6.466   7.130 -0.7567  0.8802  1.2995
  160SAPE   C3617929   1.976   6.338   7.251 -0.6184  0.4735  0.4251
  160SAPE   H6X17930   2.012   6.380   7.347  0.6750  0.2158  0.0776
  160SAPE   H6Y17931   1.960   6.229   7.255  1.0115  0.1557 -0.4174
  160SAPE   C3717932   1.842   6.398   7.212 -0.7442 -0.4100  0.6160
  160SAPE   H7X17933   1.830   6.346   7.114 -0.2189 -0.5878  0.6438
  160SAPE   H7Y17934   1.852   6.509   7.207 -1.0266 -0.3988  0.2406
  160SAPE   C3817935   1.730   6.364   7.305  0.2029  0.6977 -0.0082
  160SAPE   H8X17936   1.758   6.409   7.403  0.3899 -1.0509  0.7796
  160SAPE   H8Y17937   1.712   6.256   7.321  0.7658  0.5718 -0.2035
  160SAPE   C3917938   1.601   6.432   7.265 -0.0996  0.1816  0.3852
  160SAPE   H9X17939   1.579   6.384   7.167  0.4319  0.4211  0.1464
  160SAPE   H9Y17940   1.624   6.539   7.252 -1.4640  0.7287  2.0679
  160SAPE  C31017941   1.485   6.415   7.357  0.5061  0.0572 -0.3535
  160SAPE  H10X17942   1.407   6.492   7.337  0.0319  0.1219  1.5507
  160SAPE  H10Y17943   1.513   6.435   7.463 -2.1887  3.3132 -0.0699
  160SAPE  C31117944   1.433   6.271   7.352  0.0975  0.0361  0.7747
  160SAPE  H11X17945   1.521   6.204   7.366  1.3049  1.4158  0.0705
  160SAPE  H11Y17946   1.393   6.251   7.251 -1.5152 -0.5940  1.4992
  160SAPE  C31217947   1.313   6.238   7.442 -0.5599 -0.2820  0.1418
  160SAPE  H12X17948   1.273   6.142   7.402 -0.3324 -0.7541  1.0299
  160SAPE  H12Y17949   1.235   6.315   7.425 -0.5724  0.0656  1.6438
  160SAPE  C31317950   1.355   6.224   7.592  0.1292 -0.6410  0.0713
  160SAPE  H13X17951   1.398   6.323   7.618  1.7133 -1.4405  0.6488
  160SAPE  H13Y17952   1.433   6.145   7.592  2.3352  1.4420  0.0656
  160SAPE  C31417953   1.236   6.192   7.685  0.7636  1.0855 -0.0896
  160SAPE  H14X17954   1.186   6.102   7.643  3.1605 -1.5242  2.1832
  160SAPE  H14Y17955   1.163   6.275   7.693 -0.0509  0.2309  1.9752
  160SAPE  C31517956   1.286   6.165   7.826 -0.2076  0.2300 -0.3362
  160SAPE  H15X17957   1.338   6.254   7.868 -0.3226  0.4331 -0.6192
  160SAPE  H15Y17958   1.370   6.093   7.814  0.1285  0.3595  1.0824
  160SAPE  C31617959   1.182   6.104   7.925 -0.1458 -0.0044  0.5279
  160SAPE  H16X17960   1.118   6.041   7.860  1.0908 -0.3529 -0.4022
  160SAPE  H16Y17961   1.122   6.186   7.970  0.7327  0.7607  0.3416
  160SAPE  C31717962   1.235   6.022   8.035  0.2437 -0.4621 -0.9082
  160SAPE  H17X17963   1.282   5.931   7.992  0.2556 -0.4359 -0.9507
  160SAPE  H17Y17964   1.159   5.985   8.108 -0.7740  0.6660 -1.3716
  160SAPE  C31817965   1.348   6.078   8.127 -0.0531  0.2838  0.0575
  160SAPE  H18X17966   1.371   6.012   8.213 -0.7023 -2.3016 -1.6179
  160SAPE  H18Y17967   1.305   6.167   8.178  0.3406  0.6732 -0.2750
  160SAPE  H18Z17968   1.427   6.110   8.055 -1.1783  1.3540 -0.7471
  161SOPE     N17969   6.521   2.737  10.527 -0.3402 -0.2217 -0.6681
  161SOPE   HN117970   6.517   2.725  10.424  0.9082 -1.2781 -0.6192
  161SOPE   HN217971   6.511   2.839  10.546 -3.1375 -0.6475  0.8072
  161SOPE   HN317972   6.621   2.721  10.551 -0.1596  0.4734 -0.9232
  161SOPE   C1217973   6.432   2.652  10.612  0.8402 -0.2919 -0.8081
  161SOPE  H12A17974   6.473   2.549  10.611  3.0595  0.4486  1.7668
  161SOPE  H12B17975   6.329   2.651  10.572  0.4462 -0.1194  0.1809
  161SOPE   C1117976   6.435   2.688  10.766 -0.0910 -0.4971  0.8656
  161SOPE  H11A17977   6.542   2.681  10.794 -0.1624 -0.9031  1.0358
  161SOPE  H11B17978   6.381   2.606  10.816  0.2113 -1.2878 -0.0716
  161SOPE     P17979   6.221   2.836  10.805 -0.3441 -0.0658  0.5246
  161SOPE   O1317980   6.196   2.983  10.824  0.0394 -0.6318 -0.4251
  161SOPE   O1417981   6.176   2.742  10.912 -0.4636  0.6422 -0.5852
  161SOPE   O1217982   6.375   2.815  10.785 -0.2739  0.0504  0.2934
  161SOPE   O1117983   6.163   2.788  10.659 -0.5067 -0.1315 -0.6559
  161SOPE    C117984   6.165   2.884  10.558  0.3852 -1.0504 -0.3780
  161SOPE    HA17985   6.269   2.917  10.536  0.1980  0.7467  1.1113
  161SOPE    HB17986   6.105   2.973  10.588  1.3635 -0.6786  0.5529
  161SOPE    C217987   6.117   2.828  10.422  0.2822 -0.1214  0.2110
  161SOPE    HS17988   6.010   2.799  10.433 -0.1780  1.3544 -0.1645
  161SOPE   O2117989   6.184   2.713  10.378 -0.4970  0.3937  0.4221
  161SOPE   C2117990   6.115   2.612  10.327  0.6462  0.2946  0.3869
  161SOPE   O2217991   5.994   2.604  10.307 -0.2598  0.0229  0.2808
  161SOPE   C2217992   6.214   2.494  10.296 -0.0262 -0.5052 -0.0164
  161SOPE   H2R17993   6.256   2.448  10.388  0.2245 -2.5179 -1.0964
  161SOPE   H2S17994   6.295   2.542  10.238 -2.5894  0.0190 -3.4668
  161SOPE    C317995   6.110   2.939  10.307  0.2662 -0.2815 -0.2629
  161SOPE    HX17996   6.213   2.978  10.290 -0.1342  0.6812 -0.5663
  161SOPE    HY17997   6.059   3.019  10.365  1.6549 -0.8243  1.8248
  161SOPE   O3117998   6.047   2.888  10.186 -0.0720  0.3112 -0.1389
  161SOPE   C3117999   5.918   2.886  10.192  0.6500  0.2019  0.8708
  161SOPE   O3218000   5.847   2.917  10.286  0.3400 -0.3348  0.8986
  161SOPE   C3218001   5.866   2.822  10.059 -0.2701  0.1424 -0.6617
  161SOPE   H2X18002   5.793   2.746  10.093 -1.1990  0.4372 -1.9190
  161SOPE   H2Y18003   5.956   2.783  10.008  0.2850  0.1464  0.2899
  161SOPE   C2318004   6.149   2.380  10.216 -0.2128 -0.2340  0.2121
  161SOPE   H3R18005   6.062   2.338  10.270 -1.2425  0.3858 -0.9098
  161SOPE   H3S18006   6.215   2.291  10.209 -2.3175 -1.8614  0.0639
  161SOPE   C2418007   6.092   2.426  10.079 -0.0881  0.3537 -0.3917
  161SOPE   H4R18008   6.024   2.513  10.085  0.6806  0.9208  0.4887
  161SOPE   H4S18009   6.176   2.452  10.011  0.8433  0.4539  0.7567
  161SOPE   C2518010   6.017   2.312  10.012  0.2999  0.2241  0.2928
  161SOPE   H5R18011   6.066   2.214  10.032 -0.2324 -0.2134 -0.5096
  161SOPE   H5S18012   5.923   2.311  10.071  1.8617  4.1386  3.2934
  161SOPE   C2618013   5.984   2.337   9.868 -0.5631 -0.3846  0.4754
  161SOPE   H6R18014   5.914   2.261   9.826  0.5858 -1.9755  1.3435
  161SOPE   H6S18015   5.935   2.436   9.872 -1.4080 -0.7010 -0.9830
  161SOPE   C2718016   6.109   2.351   9.769  0.2914  0.3884  0.4630
  161SOPE   H7R18017   6.192   2.411   9.813  0.8528  0.4075 -0.5920
  161SOPE   H7S18018   6.154   2.251   9.750 -3.0026 -0.8119 -1.8574
  161SOPE   C2818019   6.071   2.419   9.638 -0.1961 -0.1684  0.1832
  161SOPE   H8R18020   6.039   2.524   9.651  0.5444  0.3187 -1.5161
  161SOPE   H8S18021   6.164   2.421   9.577 -0.3403  1.6403 -0.0299
  161SOPE   C2918022   5.967   2.346   9.553  0.0549 -0.0277 -0.1101
  161SOPE   H9118023   5.901   2.276   9.606 -0.4438 -0.3454 -1.1459
  161SOPE  C21018024   5.941   2.372   9.425 -0.1615 -0.5702  0.3245
  161SOPE  H10118025   5.875   2.302   9.372 -0.2334 -0.4069  0.1981
  161SOPE  C21118026   6.005   2.479   9.341 -0.3859  0.3716  0.3632
  161SOPE  H11R18027   6.109   2.500   9.374 -0.5108  2.1783 -0.2778
  161SOPE  H11S18028   5.949   2.573   9.358 -0.4557  0.3442  0.2887
  161SOPE  C21218029   6.012   2.456   9.182 -0.6006 -0.9383  0.1567
  161SOPE  H12R18030   5.915   2.407   9.155 -0.7151  0.6961 -2.7067
  161SOPE  H12S18031   6.098   2.388   9.165  1.6452  1.8470 -0.3554
  161SOPE  C21318032   6.046   2.586   9.112 -0.7879  0.1846 -0.3490
  161SOPE  H13R18033   6.146   2.580   9.064 -1.1858  1.7206 -1.4518
  161SOPE  H13S18034   6.029   2.675   9.176  3.0550 -0.2448  1.5218
  161SOPE  C21418035   5.956   2.612   8.988 -0.0876 -0.2119  0.3506
  161SOPE  H14R18036   5.855   2.606   9.034 -0.0365 -0.9486  0.3783
  161SOPE  H14S18037   5.971   2.530   8.914 -0.6460  0.7201 -0.8322
  161SOPE  C21518038   5.973   2.745   8.917 -0.0125 -0.6584 -0.1487
  161SOPE  H15R18039   6.073   2.749   8.869 -0.0429  2.6955 -0.1844
  161SOPE  H15S18040   5.981   2.824   8.994  2.4898 -0.5860 -0.4022
  161SOPE  C21618041   5.867   2.779   8.810 -0.8435  0.2450 -0.5851
  161SOPE  H16R18042   5.885   2.877   8.761 -2.0243  1.7319  1.7737
  161SOPE  H16S18043   5.776   2.797   8.871  0.2756 -0.1441  1.2877
  161SOPE  C21718044   5.834   2.676   8.698 -0.1237 -0.3668 -0.3353
  161SOPE  H17R18045   5.828   2.570   8.731  1.1244 -0.2309  0.3937
  161SOPE  H17S18046   5.911   2.674   8.618 -1.1754 -1.9038 -1.3668
  161SOPE  C21818047   5.710   2.726   8.618 -0.8166  0.3619  0.0339
  161SOPE  H18R18048   5.631   2.770   8.683 -0.7948  1.3243 -0.5695
  161SOPE  H18S18049   5.656   2.660   8.547  1.4415 -1.4597 -0.1012
  161SOPE  H18T18050   5.748   2.811   8.557  0.8088 -0.0917  0.3753
  161SOPE   C3318051   5.799   2.920   9.961  0.4234  0.0798  0.9584
  161SOPE   H3X18052   5.874   2.995   9.927  0.1393  0.2698  0.7494
  161SOPE   H3Y18053   5.718   2.982  10.005 -1.1949 -1.6718  0.5722
  161SOPE   C3418054   5.729   2.843   9.843 -0.6672 -0.6843 -0.7116
  161SOPE   H4X18055   5.628   2.821   9.883 -0.3684 -0.7992 -0.0044
  161SOPE   H4Y18056   5.783   2.746   9.833 -0.4820 -0.6201 -0.3483
  161SOPE   C3518057   5.743   2.932   9.723 -0.1101 -0.2526  0.5821
  161SOPE   H5X18058   5.737   3.039   9.752  1.6530  0.2255 -0.6617
  161SOPE   H5Y18059   5.670   2.909   9.642 -1.1839  1.6385  0.9575
  161SOPE   C3618060   5.887   2.908   9.660 -0.6056 -0.5263 -0.0248
  161SOPE   H6X18061   5.887   2.805   9.620  3.3223 -0.1678 -1.4812
  161SOPE   H6Y18062   5.970   2.916   9.734 -0.6863 -0.5337  0.0650
  161SOPE   C3718063   5.923   3.005   9.543 -0.4953 -0.1457 -0.0085
  161SOPE   H7X18064   6.025   2.982   9.504 -0.1791  0.3485  0.5316
  161SOPE   H7Y18065   5.927   3.101   9.598  1.6130 -0.4265  0.4203
  161SOPE   C3818066   5.838   3.000   9.415  0.4323 -0.0206  0.1947
  161SOPE   H8X18067   5.737   3.045   9.429  0.4347  0.2791 -0.6739
  161SOPE   H8Y18068   5.828   2.892   9.391 -0.6108  0.2107 -0.4915
  161SOPE   C3918069   5.906   3.071   9.293 -0.2268  0.7709  0.1480
  161SOPE   H9X18070   6.005   3.025   9.271  0.4411  0.7191  2.8376
  161SOPE   H9Y18071   5.931   3.177   9.314  2.4957 -0.0365  1.5389
  161SOPE  C31018072   5.818   3.047   9.170 -0.6737 -0.2429 -0.7697
  161SOPE  H10X18073   5.710   3.069   9.186 -0.3704  0.0323  1.0598
  161SOPE  H10Y18074   5.814   2.938   9.149 -1.6900 -0.0350 -1.7401
  161SOPE  C31118075   5.870   3.130   9.053  0.4300  0.6863  0.4338
  161SOPE  H11X18076   5.975   3.097   9.038 -0.3229 -1.7277  0.0610
  161SOPE  H11Y18077   5.861   3.234   9.091 -2.4031  0.9213 -0.6049
  161SOPE  C31218078   5.792   3.117   8.925  0.5780 -0.2764  0.1405
  161SOPE  H12X18079   5.690   3.153   8.946 -0.4242 -2.1813 -1.1441
  161SOPE  H12Y18080   5.782   3.007   8.906  2.9057 -0.3445 -1.1721
  161SOPE  C31318081   5.860   3.186   8.808  0.8748  0.3371 -0.3034
  161SOPE  H13X18082   5.963   3.143   8.805 -0.6860 -4.1417  1.6958
  161SOPE  H13Y18083   5.861   3.287   8.854  1.3476 -0.8377  2.4844
  161SOPE  C31418084   5.777   3.174   8.679 -0.0039 -0.4256  0.0560
  161SOPE  H14X18085   5.674   3.211   8.700  0.7197  2.3726 -0.9018
  161SOPE  H14Y18086   5.765   3.065   8.662  2.8447 -0.6318 -1.2319
  161SOPE  C31518087   5.852   3.234   8.561 -0.3150 -0.0741 -0.1151
  161SOPE  H15X18088   5.950   3.183   8.546 -0.8368 -0.5575 -2.0979
  161SOPE  H15Y18089   5.872   3.342   8.581 -1.1476  0.8689 -3.7422
  161SOPE  C31618090   5.783   3.226   8.423  0.5054  0.0400 -0.1097
  161SOPE  H16X18091   5.686   3.282   8.424  0.7764  0.5134  0.2322
  161SOPE  H16Y18092   5.764   3.117   8.412 -0.6465  0.1791  0.3667
  161SOPE  C31718093   5.872   3.271   8.304  0.1480 -1.1998 -0.4076
  161SOPE  H17X18094   5.958   3.202   8.290 -0.0783 -1.2724 -1.5880
  161SOPE  H17Y18095   5.912   3.373   8.324 -0.6683 -0.9320 -0.1122
  161SOPE  C31818096   5.790   3.285   8.178 -0.0498  0.8383 -0.0656
  161SOPE  H18X18097   5.726   3.195   8.161 -0.1911  1.2014 -1.5898
  161SOPE  H18Y18098   5.859   3.292   8.091  1.4058 -0.2669  0.9625
  161SOPE  H18Z18099   5.715   3.367   8.174 -1.4039 -0.3934 -0.9980
  162SOPE     N18100   5.110   2.253  10.562 -0.4288  0.3848  0.2173
  162SOPE   HN118101   5.145   2.156  10.552  0.5227  0.8976 -2.0697
  162SOPE   HN218102   5.113   2.291  10.659  1.2703  0.9238 -0.0274
  162SOPE   HN318103   5.017   2.255  10.515  1.3316 -0.8799 -3.7642
  162SOPE   C1218104   5.181   2.352  10.484 -0.4049 -0.5887 -0.4112
  162SOPE  H12A18105   5.163   2.452  10.530  1.8579 -0.6283  0.6877
  162SOPE  H12B18106   5.142   2.355  10.380 -0.0774  2.1534 -0.5262
  162SOPE   C1118107   5.330   2.321  10.497  0.1793 -0.0668 -0.0835
  162SOPE  H11A18108   5.379   2.388  10.423  0.8754  0.7652  1.0873
  162SOPE  H11B18109   5.369   2.224  10.460 -0.3853  0.1756 -1.3672
  162SOPE     P18110   5.499   2.449  10.655 -0.0558  0.0273  0.1091
  162SOPE   O1318111   5.570   2.406  10.780  0.1982 -0.3164  0.2070
  162SOPE   O1418112   5.458   2.590  10.658  0.2733 -0.1948  0.8839
  162SOPE   O1218113   5.385   2.340  10.627 -0.1716 -0.8117 -0.1901
  162SOPE   O1118114   5.595   2.425  10.531  0.0437  0.6030 -0.6413
  162SOPE    C118115   5.668   2.521  10.460  0.8496  0.3512  0.2116
  162SOPE    HA18116   5.773   2.485  10.448  0.6366 -0.0483 -0.5081
  162SOPE    HB18117   5.666   2.623  10.504 -2.1840  1.0472 -1.3057
  162SOPE    C218118   5.624   2.530  10.309 -0.4340  0.1269  0.1578
  162SOPE    HS18119   5.687   2.602  10.252 -1.9159 -0.4527 -2.3521
  162SOPE   O2118120   5.487   2.561  10.297 -0.1325 -0.0331  0.3754
  162SOPE   C2118121   5.454   2.682  10.314  0.0775  0.1814 -0.0838
  162SOPE   O2218122   5.531   2.773  10.341  0.7879  0.0511 -0.4321
  162SOPE   C2218123   5.298   2.697  10.300 -0.0425  0.2466  0.1499
  162SOPE   H2R18124   5.284   2.806  10.287  2.2763  0.4640 -1.0150
  162SOPE   H2S18125   5.248   2.658  10.392  0.9569 -1.1211  0.1479
  162SOPE    C318126   5.658   2.392  10.242 -0.0355 -0.0167  0.1427
  162SOPE    HX18127   5.608   2.315  10.303  1.5893 -0.9848  0.3207
  162SOPE    HY18128   5.769   2.378  10.238  0.1190  0.4720  1.7881
  162SOPE   O3118129   5.604   2.380  10.111 -0.1498 -0.4437 -0.3650
  162SOPE   C3118130   5.639   2.458  10.012 -0.7904 -0.4760 -0.1287
  162SOPE   O3218131   5.737   2.531  10.013 -0.3039 -0.6983  0.2052
  162SOPE   C3218132   5.546   2.442   9.888  0.8729 -0.1729  0.4494
  162SOPE   H2X18133   5.484   2.534   9.896 -1.7675 -1.6440 -1.4814
  162SOPE   H2Y18134   5.488   2.352   9.918 -1.7914  1.1932 -0.2105
  162SOPE   C2318135   5.244   2.639  10.170  0.2304 -0.3516  0.6595
  162SOPE   H3R18136   5.138   2.608  10.178  0.3468 -0.8737  0.2015
  162SOPE   H3S18137   5.297   2.545  10.144 -1.1189 -1.3802  1.4843
  162SOPE   C2418138   5.268   2.746  10.065  0.0415  0.1989 -0.3653
  162SOPE   H4R18139   5.223   2.842  10.098 -0.0348  0.7460 -1.9609
  162SOPE   H4S18140   5.376   2.765  10.048  0.0661 -0.4726 -0.9939
  162SOPE   C2518141   5.200   2.707   9.935  0.1083  0.3986 -0.6363
  162SOPE   H5R18142   5.215   2.599   9.912  1.3776  0.4557 -0.1444
  162SOPE   H5S18143   5.089   2.708   9.943  0.1215 -1.8952  0.7563
  162SOPE   C2618144   5.264   2.794   9.823  0.0862 -0.2955  0.0387
  162SOPE   H6R18145   5.270   2.901   9.853  0.6682  0.1377 -1.5012
  162SOPE   H6S18146   5.368   2.758   9.811 -0.8518 -4.0426  1.5661
  162SOPE   C2718147   5.192   2.766   9.686  0.1927  0.5864  0.5502
  162SOPE   H7R18148   5.155   2.664   9.666 -2.1953  1.3904  0.6247
  162SOPE   H7S18149   5.102   2.830   9.680 -1.5291 -1.8364 -2.5375
  162SOPE   C2818150   5.274   2.800   9.559 -0.1139 -0.2798  0.3905
  162SOPE   H8R18151   5.372   2.749   9.553 -0.1538 -0.4818  1.2950
  162SOPE   H8S18152   5.205   2.759   9.482  0.4867  0.8347 -0.7886
  162SOPE   C2918153   5.304   2.949   9.551 -0.0313  0.2516  0.0330
  162SOPE   H9118154   5.328   2.992   9.649  1.8438  0.5287 -0.5119
  162SOPE  C21018155   5.297   3.023   9.441 -0.7069 -0.3156 -0.1980
  162SOPE  H10118156   5.331   3.128   9.442 -0.4513 -0.3976 -0.3124
  162SOPE  C21118157   5.261   2.978   9.303  0.0460  0.2892 -0.0332
  162SOPE  H11R18158   5.151   2.988   9.295  0.2056  2.3106 -0.0429
  162SOPE  H11S18159   5.293   2.872   9.292 -2.0910 -0.4975  0.8096
  162SOPE  C21218160   5.334   3.055   9.190 -0.0037 -0.0039  0.0552
  162SOPE  H12R18161   5.444   3.055   9.207  0.0544 -2.0870 -0.1102
  162SOPE  H12S18162   5.308   3.163   9.189 -0.9883 -0.1347  2.9244
  162SOPE  C21318163   5.317   3.017   9.045 -0.5848  0.0339 -0.2232
  162SOPE  H13R18164   5.216   2.994   9.005 -0.7951  2.0979 -1.0129
  162SOPE  H13S18165   5.384   2.932   9.019  0.1062  0.1945  0.9646
  162SOPE  C21418166   5.374   3.122   8.952  0.0896  0.2401  0.1800
  162SOPE  H14R18167   5.475   3.160   8.980  0.1243  0.7236 -0.5643
  162SOPE  H14S18168   5.314   3.216   8.954 -0.5408 -0.1596  1.8253
  162SOPE  C21518169   5.397   3.071   8.805  0.7048 -0.2948 -0.9810
  162SOPE  H15R18170   5.475   2.992   8.809  1.0889  0.1111 -0.1859
  162SOPE  H15S18171   5.442   3.156   8.747 -0.9806  0.6766 -0.9262
  162SOPE  C21618172   5.267   3.016   8.737  0.2394  0.2975 -0.3423
  162SOPE  H16R18173   5.210   3.100   8.692 -1.0928 -0.0719  0.6157
  162SOPE  H16S18174   5.194   2.970   8.807  1.5157 -1.6062 -0.1571
  162SOPE  C21718175   5.286   2.925   8.608  0.0827 -0.8122 -0.0278
  162SOPE  H17R18176   5.186   2.887   8.579 -0.3169  0.7438 -0.8008
  162SOPE  H17S18177   5.352   2.847   8.652  0.0648  0.2890  2.0737
  162SOPE  C21818178   5.339   3.003   8.488  0.3228 -0.7258  0.8177
  162SOPE  H18R18179   5.326   2.946   8.393 -0.1387 -1.3942  1.2811
  162SOPE  H18S18180   5.440   3.042   8.515 -0.8940  2.1708  1.5661
  162SOPE  H18T18181   5.270   3.089   8.474  0.8882 -0.4606 -0.5118
  162SOPE   C3318182   5.610   2.436   9.749 -0.3719  0.7604 -0.2688
  162SOPE   H3X18183   5.669   2.342   9.757 -1.5105  0.2045  3.1344
  162SOPE   H3Y18184   5.678   2.523   9.741  0.0450  0.5354  0.6518
  162SOPE   C3418185   5.509   2.434   9.636  0.7054  0.1700  1.2804
  162SOPE   H4X18186   5.464   2.536   9.637 -0.3040 -0.2345 -0.2984
  162SOPE   H4Y18187   5.432   2.356   9.651 -0.4455  1.2102  0.8838
  162SOPE   C3518188   5.558   2.424   9.489 -0.3722  0.1879  0.0338
  162SOPE   H5X18189   5.585   2.318   9.467 -0.7620  0.2862 -0.9790
  162SOPE   H5Y18190   5.653   2.480   9.474 -0.4796  0.0401 -1.3661
  162SOPE   C3618191   5.452   2.471   9.386 -0.2122 -0.0217  0.3100
  162SOPE   H6X18192   5.414   2.571   9.414 -1.5439 -0.4168  0.0420
  162SOPE   H6Y18193   5.365   2.401   9.395  1.9885 -2.7735  1.7403
  162SOPE   C3718194   5.510   2.475   9.241 -0.1680  0.3507  1.5450
  162SOPE   H7X18195   5.519   2.372   9.202 -0.8716  1.2895 -1.2790
  162SOPE   H7Y18196   5.614   2.513   9.252 -0.1316  0.4003  1.0344
  162SOPE   C3818197   5.439   2.573   9.148 -0.5019 -0.1183  0.4195
  162SOPE   H8X18198   5.442   2.677   9.188  1.1984 -0.6752  1.9013
  162SOPE   H8Y18199   5.332   2.550   9.133 -0.6484  0.0257  1.1649
  162SOPE   C3918200   5.508   2.580   9.004  0.3277  0.4392  0.5767
  162SOPE   H9X18201   5.618   2.594   9.013  0.7121 -0.7849 -1.5861
  162SOPE   H9Y18202   5.470   2.673   8.957  0.4213 -0.2591 -0.9226
  162SOPE  C31018203   5.477   2.455   8.919  0.1986 -0.1420  0.6516
  162SOPE  H10X18204   5.372   2.458   8.883  0.3872 -1.7052 -0.1343
  162SOPE  H10Y18205   5.463   2.359   8.974  0.9062 -0.1429  0.8360
  162SOPE  C31118206   5.589   2.414   8.824  0.3118  0.4924  0.2286
  162SOPE  H11X18207   5.681   2.443   8.878  1.2365  1.1581 -1.6262
  162SOPE  H11Y18208   5.577   2.476   8.733  2.0375  2.1525  1.0757
  162SOPE  C31218209   5.598   2.266   8.794  0.0906  0.4768  0.5877
  162SOPE  H12X18210   5.582   2.214   8.891  1.4628 -2.8347 -0.7943
  162SOPE  H12Y18211   5.699   2.239   8.757  0.0753  1.1867  0.0177
  162SOPE  C31318212   5.491   2.218   8.684 -0.1476  0.0764  0.1125
  162SOPE  H13X18213   5.545   2.192   8.590 -2.0905 -1.4218 -0.6640
  162SOPE  H13Y18214   5.435   2.312   8.664 -2.1236 -1.2768 -0.9744
  162SOPE  C31418215   5.405   2.099   8.730  0.2138  0.5532  0.4401
  162SOPE  H14X18216   5.337   2.136   8.810  1.0578  2.3536  0.3659
  162SOPE  H14Y18217   5.470   2.017   8.766 -0.1566 -0.1901 -0.5586
  162SOPE  C31518218   5.310   2.054   8.614  0.1895 -0.2760 -0.4011
  162SOPE  H15X18219   5.385   2.051   8.532  0.0637 -0.1118 -0.5251
  162SOPE  H15Y18220   5.240   2.139   8.599  0.4633 -0.1313 -0.8871
  162SOPE  C31618221   5.229   1.926   8.636  0.5954  0.1941  0.7623
  162SOPE  H16X18222   5.145   1.952   8.703  0.4382 -1.1488  1.1219
  162SOPE  H16Y18223   5.298   1.851   8.681 -0.2372 -0.1093  1.5728
  162SOPE  C31718224   5.176   1.869   8.506 -0.0817  0.1051 -0.0153
  162SOPE  H17X18225   5.086   1.928   8.478  0.1796  0.7240  0.4159
  162SOPE  H17Y18226   5.136   1.768   8.528  2.7295 -1.0467  0.1872
  162SOPE  C31818227   5.268   1.859   8.382  0.6020 -0.1583 -0.5779
  162SOPE  H18X18228   5.359   1.800   8.405 -1.0444 -2.0810  1.3289
  162SOPE  H18Y18229   5.301   1.963   8.359  2.0148 -0.2970  0.6933
  162SOPE  H18Z18230   5.213   1.816   8.295 -1.5402  1.1247  0.0731
  163SOPE     N18231   6.158   0.416  10.345  1.0458  0.2268  0.5495
  163SOPE   HN118232   6.132   0.362  10.261 -0.5950  0.0743  1.1253
  163SOPE   HN218233   6.227   0.491  10.325 -2.0135  3.6586  1.7580
  163SOPE   HN318234   6.195   0.352  10.418 -0.7506 -0.8677  0.5524
  163SOPE   C1218235   6.022   0.475  10.383 -0.3568  0.5323 -0.5504
  163SOPE  H12A18236   5.987   0.541  10.301  0.7975 -0.3154 -1.7704
  163SOPE  H12B18237   6.039   0.531  10.478  1.2001  2.1125 -1.7074
  163SOPE   C1118238   5.920   0.357  10.391 -0.1224  0.7920 -0.5482
  163SOPE  H11A18239   5.913   0.305  10.294 -0.1597 -3.4978  1.5421
  163SOPE  H11B18240   5.822   0.403  10.418  0.1247  1.9200 -1.4681
  163SOPE     P18241   5.882   0.230  10.611 -0.0088  0.1414 -0.1216
  163SOPE   O1318242   5.918   0.347  10.689 -0.4729 -0.2420 -0.4153
  163SOPE   O1418243   5.925   0.100  10.671  0.5411  0.3241 -0.1395
  163SOPE   O1218244   5.967   0.254  10.475  0.7469  0.1564  0.0710
  163SOPE   O1118245   5.734   0.231  10.589 -0.0817  0.1484  0.5938
  163SOPE    C118246   5.660   0.121  10.539  0.6170  0.4002 -0.3923
  163SOPE    HA18247   5.566   0.117  10.598  0.3996  2.0730 -0.5745
  163SOPE    HB18248   5.709   0.029  10.578 -0.6178  0.5328  1.5637
  163SOPE    C218249   5.600   0.141  10.397 -0.7429  0.2804 -0.1226
  163SOPE    HS18250   5.691   0.163  10.337  0.8033 -1.9104  1.2836
  163SOPE   O2118251   5.519   0.252  10.409 -0.0536 -0.1533  0.4633
  163SOPE   C2118252   5.506   0.338  10.309  0.5123  0.3992 -0.2116
  163SOPE   O2218253   5.581   0.346  10.219 -0.6472  0.5790  0.3347
  163SOPE   C2218254   5.371   0.402  10.317  0.5060  0.9843  0.3499
  163SOPE   H2R18255   5.371   0.473  10.402  0.6822  1.0657  0.2817
  163SOPE   H2S18256   5.300   0.318  10.334  0.1494  0.9485 -1.1119
  163SOPE    C318257   5.526   0.013  10.354  0.1702 -0.4339 -0.4385
  163SOPE    HX18258   5.431   0.015  10.411  0.0947  4.3090 -0.3310
  163SOPE    HY18259   5.586  -0.074  10.387 -0.8022 -1.4934 -1.3983
  163SOPE   O3118260   5.504   0.006  10.209  0.5195  0.4389  0.3386
  163SOPE   C3118261   5.454  -0.114  10.177  0.5311  0.4142 -0.3357
  163SOPE   O3218262   5.437  -0.208  10.254  0.1567 -0.9365 -0.4153
  163SOPE   C3218263   5.415  -0.111  10.030  0.2331  0.1364 -1.0901
  163SOPE   H2X18264   5.490  -0.059   9.966 -0.5272  2.7407 -0.0140
  163SOPE   H2Y18265   5.325  -0.046  10.037 -0.6684 -1.2256  3.2092
  163SOPE   C2318266   5.344   0.475  10.184 -0.1881 -0.0647  0.1833
  163SOPE   H3R18267   5.431   0.533  10.149  0.0077  0.8415  2.0609
  163SOPE   H3S18268   5.262   0.547  10.207 -1.7018 -0.3595 -3.5795
  163SOPE   C2418269   5.283   0.382  10.084  0.1568  0.4637  0.0263
  163SOPE   H4R18270   5.348   0.292  10.082  0.5367  0.7000  1.0777
  163SOPE   H4S18271   5.179   0.352  10.111 -0.7146  3.6844  0.7111
  163SOPE   C2518272   5.282   0.431   9.932  0.5458 -0.6006 -0.5960
  163SOPE   H5R18273   5.384   0.433   9.887  1.8587 -1.6380  2.0947
  163SOPE   H5S18274   5.227   0.347   9.887 -0.0432  0.6380 -2.2672
  163SOPE   C2618275   5.211   0.565   9.917  0.2089  0.2384 -0.4761
  163SOPE   H6R18276   5.269   0.636   9.980 -0.7725 -1.4015  2.4759
  163SOPE   H6S18277   5.217   0.590   9.809 -0.5224  1.1029 -0.3299
  163SOPE   C2718278   5.061   0.566   9.975  0.4904 -0.3710  0.1009
  163SOPE   H7R18279   5.005   0.488   9.920 -0.5041  1.1016 -1.0273
  163SOPE   H7S18280   5.065   0.542  10.084  0.8709  1.5700  0.5684
  163SOPE   C2818281   5.002   0.705   9.967 -0.3902 -0.0291  0.7733
  163SOPE   H8R18282   5.059   0.784  10.019 -0.4110  0.5051  0.0011
  163SOPE   H8S18283   5.012   0.731   9.859 -0.3122 -0.0071  0.7861
  163SOPE   C2918284   4.859   0.712  10.009  0.1055  0.2281  0.0732
  163SOPE   H9118285   4.844   0.692  10.116 -0.5395  2.1857  0.3943
  163SOPE  C21018286   4.752   0.739   9.935 -0.5726 -0.3391 -0.4457
  163SOPE  H10118287   4.654   0.753   9.983  0.0030  1.9530  0.1460
  163SOPE  C21118288   4.762   0.772   9.786  0.1994 -0.0469  0.8616
  163SOPE  H11R18289   4.859   0.822   9.764 -0.5869  1.7011  1.1631
  163SOPE  H11S18290   4.689   0.847   9.751  0.8991 -0.1357 -0.8711
  163SOPE  C21218291   4.744   0.641   9.711 -0.5293  0.1386  0.2979
  163SOPE  H12R18292   4.649   0.585   9.714 -0.8132  0.0408 -4.4191
  163SOPE  H12S18293   4.818   0.569   9.755 -1.1873 -0.6557  0.1225
  163SOPE  C21318294   4.791   0.659   9.560 -0.4085 -0.7940  0.3017
  163SOPE  H13R18295   4.883   0.723   9.558 -0.2140 -1.0847 -0.6312
  163SOPE  H13S18296   4.716   0.724   9.511 -0.1516  0.2795  1.2702
  163SOPE  C21418297   4.814   0.522   9.490 -0.2634  0.3880 -0.3582
  163SOPE  H14R18298   4.728   0.453   9.504 -1.1369  1.4771 -0.2800
  163SOPE  H14S18299   4.910   0.480   9.527 -0.4546 -0.5783 -0.9340
  163SOPE  C21518300   4.831   0.533   9.337 -0.0521 -0.4400 -0.3614
  163SOPE  H15R18301   4.756   0.607   9.300  0.4341 -0.7544 -2.0372
  163SOPE  H15S18302   4.818   0.434   9.289  1.1864 -1.9547  2.2356
  163SOPE  C21618303   4.961   0.594   9.297 -0.6584 -0.0053  1.1305
  163SOPE  H16R18304   5.043   0.519   9.309 -1.5914 -1.3481 -0.4212
  163SOPE  H16S18305   4.980   0.673   9.372  1.5030 -0.5258  1.2079
  163SOPE  C21718306   4.968   0.620   9.145 -0.3088 -0.4806  0.1071
  163SOPE  H17R18307   4.935   0.535   9.082 -1.6000  0.9575 -1.2239
  163SOPE  H17S18308   5.071   0.650   9.118 -1.0552  0.8804 -1.4005
  163SOPE  C21818309   4.895   0.753   9.100  0.1486  0.2328  0.3270
  163SOPE  H18R18310   4.784   0.752   9.095  0.0537  1.0635  1.6538
  163SOPE  H18S18311   4.923   0.783   8.996 -0.8025 -2.7294 -0.8812
  163SOPE  H18T18312   4.914   0.841   9.165  1.9745  1.0435 -1.1998
  163SOPE   C3318313   5.379  -0.249   9.963 -0.4730 -0.4647 -0.4056
  163SOPE   H3X18314   5.305  -0.301  10.027  1.1856 -4.7191 -1.6309
  163SOPE   H3Y18315   5.466  -0.318   9.961 -1.1177 -1.2881 -1.8973
  163SOPE   C3418316   5.330  -0.231   9.816 -0.5789 -0.0528 -0.5286
  163SOPE   H4X18317   5.241  -0.165   9.815  0.8866  1.9989 -0.6499
  163SOPE   H4Y18318   5.300  -0.333   9.785  1.2623 -0.6210 -0.5924
  163SOPE   C3518319   5.434  -0.170   9.715 -0.2782  0.7731  0.4193
  163SOPE   H5X18320   5.531  -0.222   9.726 -0.7863 -0.3927 -0.3612
  163SOPE   H5Y18321   5.442  -0.063   9.744 -1.4796  1.2915 -0.9879
  163SOPE   C3618322   5.396  -0.177   9.566  0.0298 -0.9364  0.1857
  163SOPE   H6X18323   5.296  -0.133   9.547  0.3535 -0.9993 -2.0251
  163SOPE   H6Y18324   5.371  -0.277   9.526  0.6790 -0.1741 -2.4008
  163SOPE   C3718325   5.503  -0.111   9.469  0.1559  0.5211 -0.8167
  163SOPE   H7X18326   5.597  -0.167   9.454  0.4320  0.9933 -0.8551
  163SOPE   H7Y18327   5.535  -0.014   9.513 -3.3808  1.4008  0.1466
  163SOPE   C3818328   5.441  -0.091   9.326  0.8373 -0.3195  0.3151
  163SOPE   H8X18329   5.346  -0.035   9.335 -0.2041 -1.8301 -0.6597
  163SOPE   H8Y18330   5.404  -0.189   9.288 -1.9801  0.5331  0.5890
  163SOPE   C3918331   5.540  -0.038   9.218 -0.1119 -0.2758 -0.2307
  163SOPE   H9X18332   5.614  -0.116   9.190 -1.9006 -0.6415 -4.8610
  163SOPE   H9Y18333   5.590   0.056   9.249 -1.5107  0.4858 -0.1945
  163SOPE  C31018334   5.459  -0.007   9.087  0.2397 -0.5142  0.0965
  163SOPE  H10X18335   5.395   0.074   9.127  1.1678  0.8238 -1.0633
  163SOPE  H10Y18336   5.383  -0.084   9.063 -0.1559 -0.1074  0.0441
  163SOPE  C31118337   5.540   0.052   8.973  0.4749  0.2936 -1.3843
  163SOPE  H11X18338   5.585  -0.035   8.921  1.5476  0.2191 -0.3869
  163SOPE  H11Y18339   5.628   0.102   9.019  0.2361 -0.8397  0.4168
  163SOPE  C31218340   5.461   0.151   8.883 -0.1616 -0.0891  0.5677
  163SOPE  H12X18341   5.446   0.255   8.919  0.6568  0.6221 -1.0494
  163SOPE  H12Y18342   5.358   0.109   8.880 -0.0834 -0.3632  1.4754
  163SOPE  C31318343   5.520   0.158   8.741 -0.0709  0.5444 -0.2750
  163SOPE  H13X18344   5.523   0.053   8.706 -1.8834  0.4127 -0.1234
  163SOPE  H13Y18345   5.620   0.201   8.759  0.0733 -0.0768  0.4579
  163SOPE  C31418346   5.446   0.249   8.642 -0.7532  0.5232  0.0440
  163SOPE  H14X18347   5.453   0.358   8.662  0.3870  0.8456 -1.9237
  163SOPE  H14Y18348   5.337   0.226   8.636 -0.5732 -1.0461  1.7262
  163SOPE  C31518349   5.506   0.227   8.501 -0.1894  0.2115  0.9809
  163SOPE  H15X18350   5.526   0.122   8.471  1.0272  1.6264 -4.1956
  163SOPE  H15Y18351   5.609   0.270   8.499  1.0449 -2.4839  1.2824
  163SOPE  C31618352   5.406   0.286   8.396  0.2038 -0.0606 -0.0840
  163SOPE  H16X18353   5.423   0.396   8.401  0.0097 -0.0656  1.0848
  163SOPE  H16Y18354   5.303   0.263   8.431  0.0158  1.0167  0.1087
  163SOPE  C31718355   5.413   0.231   8.251 -0.0460  0.6428  0.4696
  163SOPE  H17X18356   5.317   0.236   8.195 -0.4048 -0.9666  0.8840
  163SOPE  H17Y18357   5.440   0.124   8.261 -0.4233  0.6410  1.7292
  163SOPE  C31818358   5.520   0.305   8.173 -0.4327 -0.1640  0.2600
  163SOPE  H18X18359   5.620   0.302   8.222  0.7015  0.1992 -1.9331
  163SOPE  H18Y18360   5.483   0.408   8.158 -0.4915  0.0071  1.4920
  163SOPE  H18Z18361   5.529   0.262   8.071  2.9043  1.9239 -0.5128
  164SOPE     N18362   0.450   3.888  10.733 -0.9073  0.7405 -0.2656
  164SOPE   HN118363   0.406   3.886  10.828 -1.5155  1.5906 -0.5127
  164SOPE   HN218364   0.396   3.819  10.677 -0.9757  0.7006 -0.1526
  164SOPE   HN318365   0.550   3.859  10.734 -1.4047 -1.0800  0.4448
  164SOPE   C1218366   0.419   4.030  10.681  0.1569 -0.4586  0.0899
  164SOPE  H12A18367   0.485   4.052  10.594  1.0891 -1.8681  0.4218
  164SOPE  H12B18368   0.437   4.105  10.761 -2.6181  2.1862 -1.5252
  164SOPE   C1118369   0.270   4.055  10.635 -0.3100 -0.2070 -0.6872
  164SOPE  H11A18370   0.202   3.991  10.694 -1.1037  0.0430 -1.3239
  164SOPE  H11B18371   0.263   4.022  10.529  2.3374  1.1532 -1.4052
  164SOPE     P18372   0.096   4.239  10.594 -0.1191 -0.1553 -0.4664
  164SOPE   O1318373   0.081   4.386  10.593  0.0134  0.2987 -0.4888
  164SOPE   O1418374   0.005   4.161  10.685  0.1853  0.4512  0.2703
  164SOPE   O1218375   0.242   4.194  10.645 -0.1432  0.2401 -0.6319
  164SOPE   O1118376   0.095   4.180  10.449 -0.3045  0.4968  0.2612
  164SOPE    C118377   0.194   4.215  10.352  0.1391  0.1189 -0.3515
  164SOPE    HA18378   0.186   4.133  10.277 -0.1700  0.3780 -0.6034
  164SOPE    HB18379   0.299   4.212  10.388  1.6137  2.4061 -3.9399
  164SOPE    C218380   0.168   4.354  10.275 -0.5534  0.3787 -0.1073
  164SOPE    HS18381   0.151   4.427  10.356  1.2290  1.2408 -0.4652
  164SOPE   O2118382   0.059   4.342  10.186  0.1767  0.2153 -0.3611
  164SOPE   C2118383   0.031   4.457  10.119  0.4902  0.9101  0.3206
  164SOPE   O2218384   0.090   4.561  10.125  0.3206 -0.2927  0.0927
  164SOPE   C2218385  -0.112   4.440  10.058 -0.2652  0.2624 -0.0369
  164SOPE   H2R18386  -0.189   4.462  10.134  2.7218 -0.4981  3.4723
  164SOPE   H2S18387  -0.130   4.334  10.032 -0.7996  0.4764 -0.5685
  164SOPE    C318388   0.307   4.400  10.200 -0.4382  0.1930  0.4229
  164SOPE    HX18389   0.382   4.392  10.282 -1.5261 -1.1247  1.3318
  164SOPE    HY18390   0.298   4.507  10.172 -1.6582  0.2014  0.7914
  164SOPE   O3118391   0.338   4.305  10.093 -0.1708  0.4429  0.4930
  164SOPE   C3118392   0.463   4.313  10.058 -0.5823 -0.1653 -0.1355
  164SOPE   O3218393   0.548   4.392  10.102 -0.1180  0.0694  0.0591
  164SOPE   C3218394   0.490   4.218   9.939  0.3149  0.0065 -0.2199
  164SOPE   H2X18395   0.447   4.268   9.850 -2.0576 -0.9973  0.2860
  164SOPE   H2Y18396   0.436   4.128   9.976  0.2865 -0.2974 -0.9909
  164SOPE   C2318397  -0.143   4.546   9.941 -0.6812  0.5325 -0.2424
  164SOPE   H3R18398  -0.099   4.647   9.957 -1.9204  0.9234  0.8770
  164SOPE   H3S18399  -0.252   4.546   9.920 -0.6247  0.9036 -0.5292
  164SOPE   C2418400  -0.086   4.498   9.806  0.6040  0.0830  1.0162
  164SOPE   H4R18401   0.025   4.505   9.815  0.5269  0.5806  1.6993
  164SOPE   H4S18402  -0.097   4.392   9.774  1.9184  0.1127  0.3963
  164SOPE   C2518403  -0.139   4.583   9.687 -0.5636  0.7918  0.1118
  164SOPE   H5R18404  -0.245   4.564   9.662  0.3118 -1.5028 -2.2984
  164SOPE   H5S18405  -0.152   4.684   9.732 -1.6851  0.3549  0.8040
  164SOPE   C2618406  -0.051   4.585   9.564  0.1242  0.6597 -0.4705
  164SOPE   H6R18407   0.056   4.600   9.591  0.9856 -0.1177 -3.0643
  164SOPE   H6S18408  -0.054   4.486   9.513  0.5755  0.3525  0.0841
  164SOPE   C2718409  -0.093   4.697   9.465  0.0127 -0.0975 -0.6206
  164SOPE   H7R18410  -0.197   4.680   9.430 -0.0524  2.4717 -1.8614
  164SOPE   H7S18411  -0.088   4.785   9.533  1.2402  0.0409 -0.8572
  164SOPE   C2818412   0.006   4.720   9.355  0.2475  0.6697 -0.3667
  164SOPE   H8R18413  -0.035   4.796   9.285 -0.4718  0.8163  0.2072
  164SOPE   H8S18414   0.096   4.757   9.409  0.3225  0.9170 -0.6558
  164SOPE   C2918415   0.052   4.593   9.288 -0.3018  0.6993  0.0465
  164SOPE   H9118416   0.091   4.512   9.352  2.5160  0.3984 -1.8572
  164SOPE  C21018417   0.035   4.559   9.160 -0.2767 -0.0899  0.8046
  164SOPE  H10118418   0.090   4.470   9.125 -1.3323 -0.9536  1.2946
  164SOPE  C21118419  -0.021   4.651   9.046 -0.4861 -0.4263  0.1048
  164SOPE  H11R18420  -0.113   4.701   9.082  0.1810  0.9903 -0.1007
  164SOPE  H11S18421  -0.044   4.594   8.953 -1.7790 -0.4640  0.4403
  164SOPE  C21218422   0.065   4.765   9.002  0.5106  0.3634 -0.3009
  164SOPE  H12R18423   0.149   4.719   8.945  0.9201  0.6834  0.0343
  164SOPE  H12S18424   0.120   4.815   9.085  0.2712  1.3918 -0.7443
  164SOPE  C21318425  -0.003   4.860   8.900  1.0432 -0.0330 -0.2149
  164SOPE  H13R18426  -0.087   4.919   8.942  0.9879 -0.1379 -0.1792
  164SOPE  H13S18427  -0.058   4.796   8.827 -1.1201 -0.8156  1.9974
  164SOPE  C21418428   0.107   4.946   8.843 -0.3866  0.3984 -0.6715
  164SOPE  H14R18429   0.184   4.886   8.790  0.7450  0.9742  0.2862
  164SOPE  H14S18430   0.155   4.994   8.930 -0.2394 -0.0839 -0.4849
  164SOPE  C21518431   0.064   5.045   8.737  0.2143  0.6612  0.0373
  164SOPE  H15R18432   0.157   5.091   8.699  0.9517 -1.2966 -0.6463
  164SOPE  H15S18433  -0.003   5.124   8.777 -1.4372  0.3216 -1.8719
  164SOPE  C21618434  -0.006   4.985   8.614  0.0288  0.6497  0.0083
  164SOPE  H16R18435  -0.042   5.079   8.567  1.0540  0.1911 -1.8062
  164SOPE  H16S18436  -0.089   4.920   8.649  0.3410  0.9832  1.4400
  164SOPE  C21718437   0.082   4.913   8.508  0.0247  0.0188  0.5543
  164SOPE  H17R18438   0.021   4.884   8.420  0.5972  2.2611 -0.6384
  164SOPE  H17S18439   0.120   4.824   8.563 -1.9475 -0.5388  1.0962
  164SOPE  C21818440   0.201   4.995   8.452  0.0805  0.1575  0.5430
  164SOPE  H18R18441   0.155   5.087   8.411  2.8946  1.2483 -0.4271
  164SOPE  H18S18442   0.241   4.945   8.361  1.4348  0.2794  1.0414
  164SOPE  H18T18443   0.273   4.999   8.537 -0.7935 -1.1582  1.3844
  164SOPE   C3318444   0.639   4.190   9.918 -0.8869  0.1280 -0.1350
  164SOPE   H3X18445   0.681   4.122   9.996  0.2544  1.7812  0.7427
  164SOPE   H3Y18446   0.703   4.280   9.922 -0.4616 -0.2057  1.2419
  164SOPE   C3418447   0.670   4.133   9.786  0.2531  0.0311  0.0570
  164SOPE   H4X18448   0.772   4.161   9.752  0.4710 -0.9583 -0.1419
  164SOPE   H4Y18449   0.594   4.162   9.711  1.0529 -0.9296 -1.1467
  164SOPE   C3518450   0.668   3.980   9.781 -0.3302  0.1356 -0.7231
  164SOPE   H5X18451   0.569   3.941   9.813 -0.0096  0.2522  0.4462
  164SOPE   H5Y18452   0.732   3.931   9.857  0.9908  2.3977 -0.2840
  164SOPE   C3618453   0.690   3.939   9.630 -0.3590 -1.3047 -0.4098
  164SOPE   H6X18454   0.787   3.968   9.584 -1.0809  1.8595 -0.1152
  164SOPE   H6Y18455   0.607   3.982   9.570  1.2235  3.8841  0.6883
  164SOPE   C3718456   0.681   3.785   9.601 -1.1139 -0.0846  0.4269
  164SOPE   H7X18457   0.603   3.743   9.668 -1.3290  0.7506  0.7052
  164SOPE   H7Y18458   0.775   3.737   9.633  0.6654  2.6952 -0.2943
  164SOPE   C3818459   0.647   3.734   9.458 -0.5668  0.2525  0.3776
  164SOPE   H8X18460   0.541   3.752   9.431 -0.4129  0.2667 -0.2396
  164SOPE   H8Y18461   0.651   3.624   9.467  0.2260  0.2843  0.5302
  164SOPE   C3918462   0.742   3.786   9.353 -1.0371  0.1623  0.0581
  164SOPE   H9X18463   0.834   3.805   9.412 -2.5274  2.4710  1.8121
  164SOPE   H9Y18464   0.710   3.886   9.318 -0.5573  0.1727 -0.3559
  164SOPE  C31018465   0.762   3.693   9.234 -0.6506 -0.1659  0.7990
  164SOPE  H10X18466   0.670   3.681   9.173 -1.3505 -0.3963  1.8700
  164SOPE  H10Y18467   0.795   3.596   9.277 -1.3440  0.0505  1.8442
  164SOPE  C31118468   0.873   3.750   9.146 -0.0540 -0.1111  0.6708
  164SOPE  H11X18469   0.975   3.769   9.185 -0.2357  0.6717  0.7780
  164SOPE  H11Y18470   0.836   3.852   9.121  0.2644 -0.3740 -0.9851
  164SOPE  C31218471   0.886   3.680   9.002 -0.1442 -0.2579  0.7411
  164SOPE  H12X18472   0.792   3.686   8.944  0.5900 -0.0171 -0.4504
  164SOPE  H12Y18473   0.922   3.577   9.024  0.6407  0.0329  0.8311
  164SOPE  C31318474   0.984   3.738   8.904  0.3028 -0.4748  0.1111
  164SOPE  H13X18475   1.086   3.740   8.949 -0.3747  0.3797  1.6815
  164SOPE  H13Y18476   0.952   3.844   8.893  0.6297 -0.0986  2.3092
  164SOPE  C31418477   0.977   3.685   8.755 -0.4171 -0.2390  0.0435
  164SOPE  H14X18478   0.987   3.575   8.767 -2.4431 -0.3770  0.8524
  164SOPE  H14Y18479   1.072   3.719   8.708 -0.0824 -3.2233 -1.7333
  164SOPE  C31518480   0.846   3.731   8.682  0.0806 -0.6395 -0.3491
  164SOPE  H15X18481   0.844   3.840   8.698  0.4592 -0.6286 -0.3608
  164SOPE  H15Y18482   0.752   3.682   8.715  1.1723 -1.5049  1.6584
  164SOPE  C31618483   0.830   3.699   8.531 -0.2849 -0.0305 -0.0796
  164SOPE  H16X18484   0.910   3.760   8.485 -0.4631  0.5632  0.3876
  164SOPE  H16Y18485   0.727   3.720   8.495 -0.4529  0.2296  0.5518
  164SOPE  C31718486   0.851   3.551   8.496 -0.1767 -0.6370  0.6086
  164SOPE  H17X18487   0.783   3.479   8.545 -0.9657  0.4730  1.1899
  164SOPE  H17Y18488   0.952   3.529   8.536  1.7713  0.4892 -3.2290
  164SOPE  C31818489   0.850   3.520   8.349 -0.5142  0.2958 -0.0689
  164SOPE  H18X18490   0.938   3.459   8.319  0.2787  1.3095  0.1044
  164SOPE  H18Y18491   0.855   3.616   8.292  0.6787  0.0685 -0.3704
  164SOPE  H18Z18492   0.751   3.478   8.323 -0.9886  0.8256  0.8186
  165SOPE     N18493   0.467   5.947  10.726  0.0935  0.1548 -0.1359
  165SOPE   HN118494   0.436   6.000  10.809  0.3541  2.2745 -1.3210
  165SOPE   HN218495   0.567   5.927  10.747  0.3202  2.1634  0.8604
  165SOPE   HN318496   0.470   6.011  10.644  0.6619  1.6574  1.0041
  165SOPE   C1218497   0.388   5.825  10.679 -0.1581 -0.1247 -0.3690
  165SOPE  H12A18498   0.424   5.810  10.575  0.9513  2.1945 -0.3789
  165SOPE  H12B18499   0.278   5.844  10.676  0.2501  2.4863 -0.9332
  165SOPE   C1118500   0.421   5.700  10.763  0.2959 -0.2859  0.7519
  165SOPE  H11A18501   0.395   5.611  10.702  1.5958 -1.8770  2.4166
  165SOPE  H11B18502   0.349   5.701  10.848 -0.2221  0.5395  0.3252
  165SOPE     P18503   0.660   5.615  10.759 -0.0868 -0.3586 -0.2562
  165SOPE   O1318504   0.629   5.475  10.800 -0.0209  0.4680 -0.6519
  165SOPE   O1418505   0.796   5.676  10.792  0.0440 -0.5001  0.1265
  165SOPE   O1218506   0.548   5.703  10.822  0.0896  0.5905  0.2729
  165SOPE   O1118507   0.629   5.628  10.609  0.6149  0.1962 -0.4309
  165SOPE    C118508   0.699   5.540  10.523  0.9554 -0.0791  0.0951
  165SOPE    HA18509   0.683   5.432  10.543  1.2204 -0.3656 -1.1630
  165SOPE    HB18510   0.810   5.551  10.523  0.8716  0.9624 -0.3608
  165SOPE    C218511   0.655   5.564  10.378  0.4470 -0.5721  0.5404
  165SOPE    HS18512   0.686   5.472  10.323  1.1874 -0.4241  0.6994
  165SOPE   O2118513   0.717   5.681  10.323  0.0944  0.2942  0.7890
  165SOPE   C2118514   0.840   5.668  10.291  0.4875 -0.0848  0.2825
  165SOPE   O2218515   0.910   5.572  10.316 -0.4345 -0.3123 -0.3051
  165SOPE   C2218516   0.870   5.784  10.205  0.1716 -0.5356  0.0604
  165SOPE   H2R18517   0.965   5.771  10.147  0.2013  1.8860 -0.5605
  165SOPE   H2S18518   0.883   5.871  10.272 -1.3764 -0.3357  0.1361
  165SOPE    C318519   0.498   5.577  10.374  0.4193  0.2164 -0.0719
  165SOPE    HX18520   0.470   5.679  10.406 -1.0772  1.0054 -3.4034
  165SOPE    HY18521   0.445   5.501  10.435  1.6263 -0.5392  0.0716
  165SOPE   O3118522   0.461   5.554  10.240 -0.6993  1.0034 -0.2009
  165SOPE   C3118523   0.372   5.638  10.180 -0.7495  0.2639 -0.7454
  165SOPE   O3218524   0.333   5.740  10.233  0.0068 -0.4290  0.1126
  165SOPE   C3218525   0.351   5.588  10.035  0.7866 -0.4801  0.3706
  165SOPE   H2X18526   0.331   5.480  10.052  1.4905 -0.5833  0.5569
  165SOPE   H2Y18527   0.444   5.587   9.975 -0.1035 -0.5685 -1.0580
  165SOPE   C2318528   0.761   5.814  10.097  0.6468 -0.2470  0.3583
  165SOPE   H3R18529   0.784   5.912  10.050 -0.5976 -0.0014  0.2417
  165SOPE   H3S18530   0.657   5.825  10.133  0.0599 -0.7534 -1.0972
  165SOPE   C2418531   0.755   5.714   9.979 -0.7364 -0.4710 -0.4689
  165SOPE   H4R18532   0.858   5.705   9.937 -1.5855  0.3655 -2.9282
  165SOPE   H4S18533   0.727   5.612  10.014 -1.9007 -0.6335 -1.7732
  165SOPE   C2518534   0.670   5.759   9.854  0.4071 -0.5072  0.0065
  165SOPE   H5R18535   0.570   5.767   9.902  0.9374 -0.6295  1.1713
  165SOPE   H5S18536   0.694   5.865   9.829  0.0758 -0.1429  1.1400
  165SOPE   C2618537   0.676   5.665   9.738  0.4012  0.3604 -0.0775
  165SOPE   H6R18538   0.704   5.562   9.770  3.0227  0.3709 -1.9562
  165SOPE   H6S18539   0.576   5.667   9.690 -0.4006  0.3095  1.5213
  165SOPE   C2718540   0.775   5.709   9.626  0.6106 -0.2030 -0.5481
  165SOPE   H7R18541   0.751   5.811   9.590 -0.1420 -0.7334 -1.6473
  165SOPE   H7S18542   0.883   5.711   9.650  0.2984 -0.7572  1.0152
  165SOPE   C2818543   0.758   5.616   9.506 -0.0870 -0.5216 -0.0949
  165SOPE   H8R18544   0.770   5.509   9.534  0.1581 -0.4707 -0.0042
  165SOPE   H8S18545   0.655   5.625   9.465 -0.3193 -0.2906  0.5245
  165SOPE   C2918546   0.868   5.646   9.408 -0.5101  0.4349 -0.1853
  165SOPE   H9118547   0.963   5.686   9.447  0.8468 -2.0975 -0.6261
  165SOPE  C21018548   0.865   5.612   9.282  0.4469 -0.6213 -0.0284
  165SOPE  H10118549   0.949   5.630   9.213  0.2806 -0.6251 -0.2310
  165SOPE  C21118550   0.745   5.538   9.230 -0.0291 -0.2400  0.4909
  165SOPE  H11R18551   0.678   5.615   9.184  1.4731 -0.3488 -2.0682
  165SOPE  H11S18552   0.693   5.469   9.300  0.8502  0.2540  1.6449
  165SOPE  C21218553   0.790   5.441   9.120 -0.1338 -0.2682 -0.3849
  165SOPE  H12R18554   0.714   5.361   9.115  0.0752 -0.5840  1.0202
  165SOPE  H12S18555   0.884   5.387   9.146  1.0949  2.5211  1.4139
  165SOPE  C21318556   0.803   5.506   8.983  0.3041 -0.6999 -0.3950
  165SOPE  H13R18557   0.891   5.574   8.986  1.8658 -2.6241 -0.8943
  165SOPE  H13S18558   0.711   5.563   8.957 -0.1515 -1.0303  0.4696
  165SOPE  C21418559   0.828   5.407   8.871  0.0761 -0.8557 -0.1829
  165SOPE  H14R18560   0.751   5.330   8.851  0.8092 -1.2951 -1.4076
  165SOPE  H14S18561   0.920   5.352   8.903 -0.2892 -1.4709 -0.1714
  165SOPE  C21518562   0.851   5.488   8.747 -0.2095  0.4795  0.5818
  165SOPE  H15R18563   0.891   5.591   8.757 -0.4573  0.7329 -0.8154
  165SOPE  H15S18564   0.751   5.484   8.698 -0.2405 -3.2095  0.7187
  165SOPE  C21618565   0.943   5.411   8.642  0.5304 -0.0243  0.3152
  165SOPE  H16R18566   1.043   5.392   8.687  1.2074  0.5809 -0.9039
  165SOPE  H16S18567   0.959   5.494   8.570  0.2709  1.0728  1.4795
  165SOPE  C21718568   0.888   5.278   8.586  0.3425 -0.1131 -0.6023
  165SOPE  H17R18569   0.778   5.286   8.575 -0.0738 -3.3723  0.1923
  165SOPE  H17S18570   0.904   5.203   8.666 -0.1958  0.5159  0.1177
  165SOPE  C21818571   0.952   5.231   8.455  0.8585  0.3135  0.0287
  165SOPE  H18R18572   0.940   5.121   8.440  0.9919  0.2322  0.5089
  165SOPE  H18S18573   1.061   5.252   8.460  1.3791 -2.2846  3.7488
  165SOPE  H18T18574   0.914   5.293   8.371 -0.5717 -0.1930  0.2704
  165SOPE   C3318575   0.236   5.662   9.968 -1.0051  0.5096  0.1760
  165SOPE   H3X18576   0.269   5.764   9.936  1.4602 -0.7115 -1.4671
  165SOPE   H3Y18577   0.153   5.672  10.042 -1.1138 -0.0252  0.1289
  165SOPE   C3418578   0.178   5.587   9.848  0.4738  0.0892  0.0722
  165SOPE   H4X18579   0.070   5.614   9.845  0.1198 -1.2345  0.2204
  165SOPE   H4Y18580   0.179   5.476   9.850  1.8407 -0.0921 -3.2239
  165SOPE   C3518581   0.252   5.618   9.714 -0.2057  0.1201  0.3669
  165SOPE   H5X18582   0.361   5.596   9.717  0.0888  1.2556 -0.9656
  165SOPE   H5Y18583   0.242   5.726   9.688 -0.4483 -0.2911 -1.3400
  165SOPE   C3618584   0.203   5.522   9.607  0.6911 -0.9004  0.2557
  165SOPE   H6X18585   0.096   5.535   9.581  0.7988 -0.4726  0.0114
  165SOPE   H6Y18586   0.214   5.415   9.638 -0.5014 -1.5312 -1.4076
  165SOPE   C3718587   0.293   5.551   9.484  0.3876  0.0336  0.6593
  165SOPE   H7X18588   0.392   5.524   9.527 -0.5575  0.0607  2.9896
  165SOPE   H7Y18589   0.286   5.657   9.452 -2.2255 -0.6429 -1.3421
  165SOPE   C3818590   0.261   5.448   9.370 -0.0371  0.0182 -0.7279
  165SOPE   H8X18591   0.155   5.466   9.344 -0.3423  0.5422  0.7959
  165SOPE   H8Y18592   0.258   5.343   9.405 -0.1585 -0.3548 -1.8211
  165SOPE   C3918593   0.351   5.454   9.252 -0.5832  0.1200 -0.1621
  165SOPE   H9X18594   0.456   5.425   9.271  0.5363  1.7238 -3.1547
  165SOPE   H9Y18595   0.355   5.558   9.212 -0.7467 -0.7314 -2.5424
  165SOPE  C31018596   0.315   5.355   9.137  0.0296  0.2940 -0.0459
  165SOPE  H10X18597   0.213   5.386   9.105  1.2143  3.3290 -1.2898
  165SOPE  H10Y18598   0.317   5.250   9.173  3.9042  0.0966 -0.4703
  165SOPE  C31118599   0.413   5.357   9.015  0.3861  0.2913 -0.9494
  165SOPE  H11X18600   0.424   5.258   8.965 -0.1847  0.9259 -2.3900
  165SOPE  H11Y18601   0.517   5.391   9.033 -0.1186  1.2275  0.3618
  165SOPE  C31218602   0.342   5.444   8.909 -0.9223 -0.0914 -0.0630
  165SOPE  H12X18603   0.353   5.549   8.942  2.4225  0.4273 -2.2850
  165SOPE  H12Y18604   0.239   5.403   8.898 -1.2061 -0.7450  3.8162
  165SOPE  C31318605   0.433   5.447   8.785  0.1955  0.0438  0.2606
  165SOPE  H13X18606   0.539   5.468   8.814  0.4109  0.9016 -1.0345
  165SOPE  H13Y18607   0.408   5.537   8.724 -1.1886 -0.4940  0.0048
  165SOPE  C31418608   0.415   5.322   8.694 -0.0523 -1.0135  0.3811
  165SOPE  H14X18609   0.305   5.309   8.691 -0.0538 -0.8887 -0.4320
  165SOPE  H14Y18610   0.461   5.239   8.752 -0.7584 -1.6082  0.1075
  165SOPE  C31518611   0.475   5.346   8.556  0.8222  0.5188 -0.4918
  165SOPE  H15X18612   0.586   5.349   8.548  0.8028 -0.1159 -1.0730
  165SOPE  H15Y18613   0.431   5.442   8.524 -0.8903 -0.2707 -0.6020
  165SOPE  C31618614   0.434   5.242   8.456  0.2767 -0.3866  0.8310
  165SOPE  H16X18615   0.325   5.227   8.470 -0.5125  1.2607 -2.6325
  165SOPE  H16Y18616   0.488   5.148   8.481 -2.3496 -1.9372  1.0003
  165SOPE  C31718617   0.471   5.273   8.312 -0.0962 -0.3954  0.4825
  165SOPE  H17X18618   0.581   5.276   8.298  0.2050 -1.4921  2.2428
  165SOPE  H17Y18619   0.435   5.378   8.302 -0.1161 -0.2614  1.7543
  165SOPE  C31818620   0.416   5.176   8.207  0.0516 -0.0371 -0.4131
  165SOPE  H18X18621   0.443   5.215   8.106  2.9445  0.5879  0.5189
  165SOPE  H18Y18622   0.307   5.157   8.217 -0.0445 -0.4129 -1.9806
  165SOPE  H18Z18623   0.454   5.072   8.213 -1.0765 -0.5995 -2.2406
  166SOPE     N18624   4.893   6.039  10.748  0.2536 -0.1587  0.2131
  166SOPE   HN118625   4.928   6.038  10.846  0.2968 -0.4057  0.1975
  166SOPE   HN218626   4.890   5.942  10.708  1.4538 -0.1401  0.0311
  166SOPE   HN318627   4.960   6.086  10.684  1.7107 -0.7924  1.2124
  166SOPE   C1218628   4.758   6.103  10.748 -0.7003 -0.5147  0.1876
  166SOPE  H12A18629   4.719   6.121  10.646 -2.2346  1.7201  1.0827
  166SOPE  H12B18630   4.795   6.198  10.793  2.2925 -1.3276 -0.3156
  166SOPE   C1118631   4.661   6.040  10.837  0.3675  0.2122 -0.2765
  166SOPE  H11A18632   4.560   6.086  10.832 -0.0407 -0.4939  1.0221
  166SOPE  H11B18633   4.691   6.041  10.944  1.3204  0.3835 -0.5315
  166SOPE     P18634   4.546   5.803  10.855  0.2115  0.2073 -0.1258
  166SOPE   O1318635   4.532   5.826  11.003  0.1897 -0.3078 -0.1795
  166SOPE   O1418636   4.586   5.663  10.828  0.0404  0.2253 -0.3493
  166SOPE   O1218637   4.656   5.902  10.803 -0.4958 -0.0662 -0.4030
  166SOPE   O1118638   4.417   5.842  10.777  0.4561  0.8803 -0.1379
  166SOPE    C118639   4.415   5.887  10.638  0.1329  0.0327 -0.8413
  166SOPE    HA18640   4.519   5.911  10.608 -0.3700  1.9018 -1.2518
  166SOPE    HB18641   4.367   5.986  10.619  0.5841  0.2559 -0.8210
  166SOPE    C218642   4.349   5.779  10.547 -0.4589 -0.6591  0.0459
  166SOPE    HS18643   4.404   5.685  10.566  1.9164  0.7023  0.3416
  166SOPE   O2118644   4.375   5.832  10.415 -0.4163 -0.3053  0.1508
  166SOPE   C2118645   4.373   5.740  10.320 -0.2050 -0.3493  0.0810
  166SOPE   O2218646   4.365   5.621  10.344  0.4648  0.0600  0.2430
  166SOPE   C2218647   4.382   5.813  10.188  0.1593  0.4682 -0.2972
  166SOPE   H2R18648   4.489   5.842  10.177  0.8944 -1.3035  1.5299
  166SOPE   H2S18649   4.314   5.900  10.196 -2.9599 -1.6877 -1.5387
  166SOPE    C318650   4.190   5.760  10.566  0.4436 -0.1476 -0.0838
  166SOPE    HX18651   4.148   5.861  10.554  1.3536  0.3083  0.4427
  166SOPE    HY18652   4.166   5.725  10.669  0.6885 -2.5151 -0.7503
  166SOPE   O3118653   4.125   5.664  10.468  0.0447 -0.4146  0.2239
  166SOPE   C3118654   4.114   5.540  10.507 -0.3395 -0.1466  0.3075
  166SOPE   O3218655   4.142   5.496  10.618  0.3181 -0.2405 -0.4869
  166SOPE   C3218656   4.059   5.455  10.390  0.3185  0.5350 -0.2922
  166SOPE   H2X18657   4.100   5.503  10.298 -0.5510  0.6523 -0.6240
  166SOPE   H2Y18658   3.951   5.478  10.379  0.5067  0.6412 -2.2918
  166SOPE   C2318659   4.345   5.719  10.065  0.0511 -0.4490 -0.0360
  166SOPE   H3R18660   4.234   5.719  10.058 -0.0771 -0.7942  1.5518
  166SOPE   H3S18661   4.382   5.614  10.067  0.5285 -0.3212 -1.3389
  166SOPE   C2418662   4.397   5.785   9.934 -0.4496  0.0824  0.8380
  166SOPE   H4R18663   4.354   5.887   9.927  3.4093  1.9283  1.4825
  166SOPE   H4S18664   4.505   5.810   9.930 -0.4293 -0.0680  0.4229
  166SOPE   C2518665   4.361   5.697   9.815 -0.0664  0.3385 -0.1514
  166SOPE   H5R18666   4.416   5.600   9.816  0.3847  0.5583 -1.3170
  166SOPE   H5S18667   4.258   5.657   9.822  0.0607  0.2691  2.0539
  166SOPE   C2618668   4.387   5.750   9.677 -0.0429 -0.3458 -0.6606
  166SOPE   H6R18669   4.338   5.849   9.684  2.1443  0.7854 -0.6521
  166SOPE   H6S18670   4.495   5.770   9.659 -0.6712  1.6947 -2.7230
  166SOPE   C2718671   4.323   5.671   9.565 -0.6700  0.0219  0.1538
  166SOPE   H7R18672   4.387   5.580   9.562 -1.0883 -0.3980  2.2743
  166SOPE   H7S18673   4.219   5.643   9.595  0.0130 -1.1889  1.5428
  166SOPE   C2818674   4.329   5.739   9.428  0.3433  0.2183 -0.0013
  166SOPE   H8R18675   4.296   5.663   9.354  0.5302  1.5286 -1.4879
  166SOPE   H8S18676   4.255   5.822   9.422 -0.2526 -0.2608  0.6197
  166SOPE   C2918677   4.464   5.783   9.385  0.4016 -0.6196  0.2010
  166SOPE   H9118678   4.513   5.846   9.460 -0.0267 -0.2903  0.2098
  166SOPE  C21018679   4.532   5.768   9.269  0.2831  0.4051 -0.0827
  166SOPE  H10118680   4.632   5.813   9.265 -0.2323  1.5267 -1.9583
  166SOPE  C21118681   4.501   5.683   9.148  0.9125 -0.1265  0.5774
  166SOPE  H11R18682   4.418   5.731   9.092  0.0404 -1.9306  0.2475
  166SOPE  H11S18683   4.483   5.577   9.176  0.3006 -0.7296 -1.9076
  166SOPE  C21218684   4.610   5.684   9.046  0.0879 -0.7768 -0.1769
  166SOPE  H12R18685   4.712   5.664   9.086  0.1578  0.5016  0.3246
  166SOPE  H12S18686   4.619   5.789   9.012  1.5976 -0.9750 -0.4838
  166SOPE  C21318687   4.586   5.590   8.930  0.8293 -0.4209  0.8549
  166SOPE  H13R18688   4.491   5.622   8.881  0.6026 -1.6223  0.4664
  166SOPE  H13S18689   4.551   5.492   8.967 -1.0506 -0.8803 -1.8197
  166SOPE  C21418690   4.695   5.579   8.823  0.1691 -0.1894  0.3619
  166SOPE  H14R18691   4.786   5.544   8.876  0.8110  1.9977  0.8439
  166SOPE  H14S18692   4.712   5.684   8.789 -0.8585  0.2186  1.0678
  166SOPE  C21518693   4.640   5.484   8.712  0.1531 -0.4272  0.3911
  166SOPE  H15R18694   4.586   5.549   8.639  0.8452  0.6086  0.7868
  166SOPE  H15S18695   4.570   5.406   8.750  0.7649 -0.3333  1.7335
  166SOPE  C21618696   4.757   5.425   8.636  0.6285 -0.6322 -0.5035
  166SOPE  H16R18697   4.814   5.365   8.710  1.1119  1.6412  1.0791
  166SOPE  H16S18698   4.829   5.499   8.595  1.9494  0.0664  2.8000
  166SOPE  C21718699   4.709   5.329   8.530 -0.1062 -0.4619  1.0917
  166SOPE  H17R18700   4.636   5.254   8.566 -0.8324  0.1302  0.8774
  166SOPE  H17S18701   4.798   5.274   8.492  1.4468  2.4697  0.0920
  166SOPE  C21818702   4.656   5.393   8.403  0.0936  0.6556  0.1112
  166SOPE  H18R18703   4.564   5.446   8.437  0.9694  1.4878  1.2952
  166SOPE  H18S18704   4.619   5.318   8.330 -0.4382 -0.8558  1.8564
  166SOPE  H18T18705   4.731   5.467   8.368  1.5058 -0.8638 -0.1715
  166SOPE   C3318706   4.078   5.301  10.400 -0.3118  0.0487  0.5889
  166SOPE   H3X18707   3.979   5.262  10.429 -0.0691 -2.4343 -1.5099
  166SOPE   H3Y18708   4.156   5.279  10.476  2.6743 -0.3652 -2.3334
  166SOPE   C3418709   4.117   5.235  10.266 -0.0973 -0.9352  0.1514
  166SOPE   H4X18710   4.163   5.137  10.291  0.3360 -0.0379  3.2178
  166SOPE   H4Y18711   4.199   5.293  10.218  0.8102 -1.4068  1.0882
  166SOPE   C3518712   3.994   5.225  10.168  0.2535 -0.0187 -0.1501
  166SOPE   H5X18713   3.930   5.315  10.161 -1.6491 -1.4162 -2.1373
  166SOPE   H5Y18714   3.934   5.143  10.214 -0.7890  0.4254 -0.6959
  166SOPE   C3618715   4.027   5.193  10.027  0.9662  0.4449  0.2386
  166SOPE   H6X18716   3.938   5.144   9.981  0.8704 -0.1409  1.0316
  166SOPE   H6Y18717   4.112   5.123  10.037  0.1718 -0.3686  1.6200
  166SOPE   C3718718   4.066   5.316   9.951 -0.5338 -0.0964  0.1522
  166SOPE   H7X18719   4.161   5.365   9.979  0.0992  0.1006 -2.1002
  166SOPE   H7Y18720   3.995   5.399   9.974 -1.0929 -1.0934  2.1670
  166SOPE   C3818721   4.079   5.288   9.799 -0.4637 -0.3322 -0.6888
  166SOPE   H8X18722   3.980   5.313   9.755 -0.7859 -0.8350 -0.2626
  166SOPE   H8Y18723   4.112   5.184   9.780  0.3472 -0.1770 -0.2048
  166SOPE   C3918724   4.179   5.384   9.731  0.4351 -0.1453 -0.0362
  166SOPE   H9X18725   4.276   5.382   9.785 -0.8660 -2.9287  2.4920
  166SOPE   H9Y18726   4.135   5.486   9.731  2.1910  0.6546 -0.7861
  166SOPE  C31018727   4.210   5.352   9.581 -0.2604  0.3060 -0.2751
  166SOPE  H10X18728   4.245   5.247   9.589  2.2651  1.1528  0.6791
  166SOPE  H10Y18729   4.300   5.408   9.550 -0.1811 -0.2957 -1.1355
  166SOPE  C31118730   4.098   5.368   9.473 -0.0598  0.2771  0.0732
  166SOPE  H11X18731   4.069   5.475   9.465 -2.9572 -0.3860  0.4721
  166SOPE  H11Y18732   4.004   5.322   9.511 -2.5096  3.3406 -1.7672
  166SOPE  C31218733   4.127   5.309   9.330  0.6049 -0.5488  0.2558
  166SOPE  H12X18734   4.034   5.332   9.274  0.7593  2.1212  0.9671
  166SOPE  H12Y18735   4.147   5.200   9.344 -1.8440 -1.0881  0.1208
  166SOPE  C31318736   4.244   5.373   9.263 -0.7692  1.0399 -0.0297
  166SOPE  H13X18737   4.332   5.354   9.329 -0.3128 -0.3637 -0.9988
  166SOPE  H13Y18738   4.230   5.483   9.277  1.6618  1.4333 -0.2572
  166SOPE  C31418739   4.273   5.325   9.122 -0.2042 -0.2531 -0.1173
  166SOPE  H14X18740   4.287   5.214   9.119  0.3520 -0.1570 -2.0616
  166SOPE  H14Y18741   4.366   5.373   9.086 -0.0607 -1.0849 -0.8902
  166SOPE  C31518742   4.158   5.366   9.022 -0.5835  0.0301 -0.1810
  166SOPE  H15X18743   4.146   5.475   9.040 -1.0271 -0.0828  0.2389
  166SOPE  H15Y18744   4.060   5.324   9.054 -0.5221 -0.4493 -0.6193
  166SOPE  C31618745   4.182   5.321   8.878 -0.5922  0.1365  0.1595
  166SOPE  H16X18746   4.165   5.212   8.863 -1.6545  0.3907 -0.5830
  166SOPE  H16Y18747   4.291   5.335   8.859 -0.1208 -0.9186  1.8557
  166SOPE  C31718748   4.098   5.397   8.776 -1.2255  0.0816 -0.4631
  166SOPE  H17X18749   4.126   5.370   8.672  1.0825  0.7497 -0.0717
  166SOPE  H17Y18750   4.122   5.506   8.786  2.1542 -0.3779 -2.1011
  166SOPE  C31818751   3.953   5.379   8.796  0.8017 -1.1553  0.9668
  166SOPE  H18X18752   3.900   5.402   8.702  0.4893 -0.6920  1.2538
  166SOPE  H18Y18753   3.904   5.439   8.875  0.7462  0.8893 -0.5530
  166SOPE  H18Z18754   3.936   5.273   8.826 -2.2711 -1.7051 -2.1129
  167SOPE     N18755   6.126   2.506   5.752  0.4573  0.6043 -0.4693
  167SOPE   HN118756   6.113   2.598   5.800  4.0311  1.6737 -1.2618
  167SOPE   HN218757   6.186   2.522   5.669 -0.0440 -1.0516 -1.1961
  167SOPE   HN318758   6.032   2.472   5.724  0.4188  0.9824 -0.8234
  167SOPE   C1218759   6.187   2.401   5.844 -0.0355 -0.3782  0.4263
  167SOPE  H12A18760   6.288   2.440   5.871 -0.9096  1.0195  1.8374
  167SOPE  H12B18761   6.168   2.308   5.786 -0.5470  0.0733 -0.1537
  167SOPE   C1118762   6.100   2.371   5.968 -0.5648 -0.6378  0.1418
  167SOPE  H11A18763   6.102   2.466   6.027  0.6377 -0.8863  0.5122
  167SOPE  H11B18764   6.144   2.296   6.037  0.6397 -1.8200 -1.8385
  167SOPE     P18765   5.852   2.345   6.040 -0.1183 -0.2484  0.0263
  167SOPE   O1318766   5.728   2.294   5.987  0.2861 -1.1033 -0.0297
  167SOPE   O1418767   5.855   2.487   6.092  0.1276 -0.1193  0.1613
  167SOPE   O1218768   5.973   2.322   5.938  0.0077  0.5917 -0.3998
  167SOPE   O1118769   5.906   2.261   6.159 -0.1731  0.1824 -0.1126
  167SOPE    C118770   5.829   2.169   6.236 -0.2947 -0.4652  0.3831
  167SOPE    HA18771   5.839   2.071   6.185  0.3858 -0.2000 -0.0071
  167SOPE    HB18772   5.721   2.197   6.243  0.2405  1.8891  0.1534
  167SOPE    C218773   5.886   2.127   6.384 -0.6494 -0.1267  1.0519
  167SOPE    HS18774   5.811   2.061   6.433 -0.8490 -1.7795 -1.2776
  167SOPE   O2118775   5.921   2.240   6.459  0.5725  0.0489 -0.0581
  167SOPE   C2118776   5.820   2.304   6.503  0.8987 -0.2737 -0.3233
  167SOPE   O2218777   5.702   2.289   6.472 -0.3854  0.3410 -0.0431
  167SOPE   C2218778   5.859   2.387   6.619 -0.0243 -0.0638  0.1600
  167SOPE   H2R18779   5.771   2.438   6.664 -0.3395  1.0557 -1.6191
  167SOPE   H2S18780   5.914   2.477   6.584 -1.6445  1.5296  1.4703
  167SOPE    C318781   6.018   2.048   6.362 -0.6824  0.0708 -0.0459
  167SOPE    HX18782   6.094   2.105   6.303 -0.6711  0.6081  0.4807
  167SOPE    HY18783   6.004   1.958   6.297 -1.1940 -1.1158  1.6543
  167SOPE   O3118784   6.083   2.001   6.484  0.1197  0.0409  0.8081
  167SOPE   C3118785   6.206   2.044   6.506 -0.5409 -1.1175 -0.0402
  167SOPE   O3218786   6.278   2.108   6.430 -0.1095 -0.0115 -0.3169
  167SOPE   C3218787   6.261   1.977   6.637 -0.5219 -0.0541  0.2794
  167SOPE   H2X18788   6.321   1.886   6.619 -2.1994 -1.2939  0.7296
  167SOPE   H2Y18789   6.179   1.929   6.694  2.0552 -2.3358  2.2889
  167SOPE   C2318790   5.934   2.307   6.729 -0.2245  0.4351 -0.6621
  167SOPE   H3R18791   5.976   2.377   6.804  2.0805 -1.2506 -0.2790
  167SOPE   H3S18792   6.018   2.247   6.688 -0.9083 -0.0042 -1.4533
  167SOPE   C2418793   5.840   2.210   6.806  0.0084  0.5200  0.0778
  167SOPE   H4R18794   5.766   2.271   6.861 -0.3601 -1.1261  1.4937
  167SOPE   H4S18795   5.785   2.139   6.741 -1.8445  0.5736  1.5042
  167SOPE   C2518796   5.902   2.116   6.911  0.1738  0.1367  0.4836
  167SOPE   H5R18797   5.816   2.062   6.958 -0.5465  0.3491 -0.5726
  167SOPE   H5S18798   5.968   2.042   6.861 -1.6933  0.6850 -3.0798
  167SOPE   C2618799   5.981   2.197   7.015 -0.0768 -0.6674  0.0959
  167SOPE   H6R18800   6.072   2.241   6.969  0.5783 -1.0057  1.0403
  167SOPE   H6S18801   5.914   2.281   7.044 -0.9427 -1.6812  1.1048
  167SOPE   C2718802   6.024   2.135   7.150  0.1778  1.1929  0.1271
  167SOPE   H7R18803   6.073   2.039   7.125  0.4198  0.7069  2.2762
  167SOPE   H7S18804   6.106   2.199   7.190 -0.1708  0.2225  2.5717
  167SOPE   C2818805   5.921   2.119   7.258 -0.0036  0.8483 -0.2352
  167SOPE   H8R18806   5.824   2.095   7.208 -0.1402  0.0058  0.4142
  167SOPE   H8S18807   5.933   2.030   7.323  1.5875  2.0760  1.2508
  167SOPE   C2918808   5.903   2.246   7.349 -0.4358  0.9854  0.2374
  167SOPE   H9118809   5.829   2.320   7.317 -1.2437  0.3742  0.6393
  167SOPE  C21018810   5.957   2.264   7.469 -0.2035 -0.2496  0.4541
  167SOPE  H10118811   5.943   2.364   7.512 -0.3457  0.2546 -0.7235
  167SOPE  C21118812   6.040   2.168   7.548  0.2052 -0.0088 -0.1659
  167SOPE  H11R18813   6.129   2.229   7.577 -0.7440  1.7113 -0.7273
  167SOPE  H11S18814   6.060   2.072   7.497  0.8061 -1.0931  1.9757
  167SOPE  C21218815   5.974   2.136   7.682  0.3794 -0.5483 -0.0199
  167SOPE  H12R18816   6.050   2.077   7.738 -0.4092 -2.0197 -0.4489
  167SOPE  H12S18817   5.880   2.078   7.666 -0.5489  0.8747  0.1626
  167SOPE  C21318818   5.941   2.256   7.770  0.2220 -0.0502 -0.1944
  167SOPE  H13R18819   5.853   2.309   7.729 -0.6148 -1.0964  0.2351
  167SOPE  H13S18820   6.032   2.320   7.775 -0.2441  0.6139 -0.0307
  167SOPE  C21418821   5.908   2.225   7.916  0.2801 -0.3063  0.3350
  167SOPE  H14R18822   5.976   2.149   7.960 -1.4114 -1.9737  0.2203
  167SOPE  H14S18823   5.807   2.179   7.928  0.3785 -0.4500  0.6350
  167SOPE  C21518824   5.909   2.361   7.991  0.1396 -0.0051  0.2910
  167SOPE  H15R18825   5.839   2.434   7.945  0.8831  0.9223  0.5785
  167SOPE  H15S18826   6.007   2.414   7.988  0.3318 -0.3400  0.6801
  167SOPE  C21618827   5.883   2.347   8.140  1.1240 -0.3338  0.3808
  167SOPE  H16R18828   5.966   2.283   8.178  1.2320  0.9650  2.4932
  167SOPE  H16S18829   5.787   2.291   8.153  1.0213  0.1821  2.0182
  167SOPE  C21718830   5.884   2.475   8.212 -0.6513  0.1357 -0.0097
  167SOPE  H17R18831   5.831   2.548   8.148 -1.8352 -0.8291 -0.1681
  167SOPE  H17S18832   5.991   2.502   8.225 -0.0315 -2.1101 -0.0542
  167SOPE  C21818833   5.823   2.460   8.357 -0.4858  0.1413  0.1224
  167SOPE  H18R18834   5.719   2.422   8.360 -0.0996 -1.0013 -0.4986
  167SOPE  H18S18835   5.811   2.560   8.404  2.4986  0.5780  0.1620
  167SOPE  H18T18836   5.883   2.393   8.422 -2.3167  0.3578  2.1746
  167SOPE   C3318837   6.350   2.083   6.714 -0.1523 -1.2286  0.0826
  167SOPE   H3X18838   6.285   2.173   6.726 -0.5198 -1.2818 -1.3764
  167SOPE   H3Y18839   6.444   2.109   6.661  1.1302 -2.6848  1.5513
  167SOPE   C3418840   6.382   2.046   6.861 -0.3778 -0.1210  0.4851
  167SOPE   H4X18841   6.454   1.962   6.869  1.0081  1.2036  4.1724
  167SOPE   H4Y18842   6.296   1.992   6.907 -0.0476  0.3599  1.7005
  167SOPE   C3518843   6.449   2.151   6.940 -0.1267 -0.0670 -0.2802
  167SOPE   H5X18844   6.376   2.235   6.947 -0.8899 -0.6936 -0.5757
  167SOPE   H5Y18845   6.545   2.188   6.898  0.1628  0.4573  0.7977
  167SOPE   C3618846   6.475   2.098   7.084  0.2339 -0.2076 -1.1938
  167SOPE   H6X18847   6.575   2.051   7.095  0.4890  0.3123 -1.2761
  167SOPE   H6Y18848   6.408   2.016   7.116  0.8992  0.3048  1.8684
  167SOPE   C3718849   6.468   2.208   7.185 -0.3622 -0.5121 -1.0155
  167SOPE   H7X18850   6.373   2.265   7.177  0.5642  1.1980 -0.2751
  167SOPE   H7Y18851   6.550   2.280   7.165  0.1777 -1.4064 -2.1178
  167SOPE   C3818852   6.500   2.160   7.333  0.1146  0.0349  0.5318
  167SOPE   H8X18853   6.597   2.106   7.339  0.3173  0.4068  0.6012
  167SOPE   H8Y18854   6.424   2.084   7.360  0.4820  0.3474  2.6550
  167SOPE   C3918855   6.516   2.279   7.429 -0.3011 -0.6327  0.2582
  167SOPE   H9X18856   6.451   2.358   7.385  0.1382  0.1703  1.0319
  167SOPE   H9Y18857   6.622   2.311   7.438 -1.0308  2.8547 -1.4222
  167SOPE  C31018858   6.477   2.230   7.569  0.0954  0.5157  0.2740
  167SOPE  H10X18859   6.551   2.153   7.601 -0.2091  0.3566  0.6067
  167SOPE  H10Y18860   6.385   2.167   7.565  1.0774 -0.9118 -0.7386
  167SOPE  C31118861   6.451   2.339   7.672  0.1209 -0.1695 -0.5834
  167SOPE  H11X18862   6.392   2.424   7.632  1.3755  1.3516  0.6438
  167SOPE  H11Y18863   6.552   2.375   7.702  0.8865 -2.5942 -0.0259
  167SOPE  C31218864   6.374   2.294   7.798  0.1894  0.5836 -0.0855
  167SOPE  H12X18865   6.414   2.193   7.824  0.0702  0.4337 -0.4708
  167SOPE  H12Y18866   6.270   2.268   7.770  0.1304 -1.8319  1.9524
  167SOPE  C31318867   6.375   2.380   7.922 -0.3941  0.6133  0.7661
  167SOPE  H13X18868   6.479   2.414   7.942  0.8405 -1.1315 -2.0597
  167SOPE  H13Y18869   6.346   2.314   8.007 -0.3037 -0.2798  0.1152
  167SOPE  C31418870   6.286   2.503   7.911 -0.4359  0.7128 -0.2588
  167SOPE  H14X18871   6.199   2.475   7.847 -0.2874  0.1218 -0.2090
  167SOPE  H14Y18872   6.346   2.563   7.839  1.7972 -1.5469 -0.4338
  167SOPE  C31518873   6.253   2.573   8.041  0.0945  0.2277  0.0214
  167SOPE  H15X18874   6.346   2.592   8.097  0.1023 -3.6824  1.6336
  167SOPE  H15Y18875   6.194   2.499   8.099 -0.0705  0.4890  0.1925
  167SOPE  C31618876   6.174   2.700   8.018  0.0445  0.0367 -0.8305
  167SOPE  H16X18877   6.095   2.667   7.948 -1.1011 -2.5351  1.4670
  167SOPE  H16Y18878   6.242   2.778   7.977 -1.1999  1.0196 -1.0671
  167SOPE  C31718879   6.121   2.758   8.153 -0.0013 -0.0534 -0.4455
  167SOPE  H17X18880   6.041   2.687   8.185  0.1652  0.0340  0.1716
  167SOPE  H17Y18881   6.072   2.853   8.122  0.9030  0.3263 -0.7167
  167SOPE  C31818882   6.226   2.788   8.261 -0.2377  0.2144 -0.6211
  167SOPE  H18X18883   6.323   2.824   8.221  0.3626 -1.3339 -0.6383
  167SOPE  H18Y18884   6.243   2.707   8.335  3.3697  1.3031 -0.0683
  167SOPE  H18Z18885   6.180   2.864   8.328  0.4293 -1.0272  1.3247
  168SOPE     N18886   5.823   6.710   6.387  0.0389  0.2106  0.0853
  168SOPE   HN118887   5.749   6.665   6.329 -0.6613  0.2062  0.9625
  168SOPE   HN218888   5.777   6.748   6.472 -0.4838 -2.6646  1.1989
  168SOPE   HN318889   5.873   6.790   6.345  0.1103  0.1713  0.0948
  168SOPE   C1218890   5.925   6.602   6.429  0.7092 -0.3339  0.4975
  168SOPE  H12A18891   5.859   6.517   6.458  0.7512 -0.4989  0.1146
  168SOPE  H12B18892   5.984   6.644   6.514  2.1230  1.2245 -1.1747
  168SOPE   C1118893   6.018   6.563   6.318 -0.0322  1.2891  0.1158
  168SOPE  H11A18894   5.976   6.545   6.217  2.1776  1.2556 -0.8425
  168SOPE  H11B18895   6.051   6.465   6.358 -0.4426  1.9725  2.2806
  168SOPE     P18896   6.256   6.585   6.234  0.1389  0.2731  0.0449
  168SOPE   O1318897   6.369   6.682   6.258  1.1634 -0.2994 -0.2327
  168SOPE   O1418898   6.238   6.532   6.097  0.0430  0.0228 -0.5263
  168SOPE   O1218899   6.127   6.650   6.293  0.8164  0.2753  0.2070
  168SOPE   O1118900   6.287   6.453   6.317 -0.3697  0.3483  0.7302
  168SOPE    C118901   6.385   6.445   6.426 -0.1778 -0.2278 -0.1279
  168SOPE    HA18902   6.435   6.540   6.453  2.7359 -2.0196  1.3191
  168SOPE    HB18903   6.464   6.375   6.393 -0.7205 -0.2227 -1.4730
  168SOPE    C218904   6.307   6.403   6.548  0.5283 -0.5396  0.4467
  168SOPE    HS18905   6.226   6.478   6.558  1.7929  1.2112 -1.5787
  168SOPE   O2118906   6.407   6.397   6.655 -0.6771  0.1878 -0.4991
  168SOPE   C2118907   6.361   6.446   6.772  0.6254 -0.0466 -0.3151
  168SOPE   O2218908   6.249   6.482   6.792  0.3797  0.0820  0.7279
  168SOPE   C2218909   6.465   6.456   6.880 -0.0976  0.3463 -0.3711
  168SOPE   H2R18910   6.510   6.558   6.877  2.6644 -0.7202  1.0232
  168SOPE   H2S18911   6.550   6.385   6.869 -0.6775 -0.8797  2.3592
  168SOPE    C318912   6.244   6.264   6.534  0.0722  0.6092 -0.4812
  168SOPE    HX18913   6.324   6.193   6.503 -1.1754 -0.7634 -0.6765
  168SOPE    HY18914   6.165   6.268   6.456 -2.1594  1.0907  1.6631
  168SOPE   O3118915   6.193   6.216   6.659 -0.1791 -0.3415 -0.5992
  168SOPE   C3118916   6.065   6.235   6.681 -0.2692 -0.3284  0.0900
  168SOPE   O3218917   5.992   6.305   6.610 -0.3995  1.0211  0.0802
  168SOPE   C3218918   6.005   6.176   6.813 -0.3122 -0.0149  0.5260
  168SOPE   H2X18919   5.963   6.074   6.799  1.3602 -0.6342 -0.3363
  168SOPE   H2Y18920   5.927   6.251   6.836 -2.2481 -1.2803 -1.5191
  168SOPE   C2318921   6.399   6.441   7.020 -0.5738 -0.9511  0.5284
  168SOPE   H3R18922   6.374   6.334   7.034  0.6056 -1.3439 -0.2727
  168SOPE   H3S18923   6.309   6.506   7.021 -0.4063 -0.6002 -1.8887
  168SOPE   C2418924   6.490   6.476   7.136 -0.3010  0.5830 -0.2787
  168SOPE   H4R18925   6.571   6.400   7.138 -0.2351  0.6543  1.8595
  168SOPE   H4S18926   6.536   6.575   7.115  1.8500 -0.4560 -0.8085
  168SOPE   C2518927   6.424   6.482   7.274 -0.6774  0.3022 -0.0805
  168SOPE   H5R18928   6.362   6.575   7.281  0.1200  0.8054  0.4019
  168SOPE   H5S18929   6.349   6.400   7.278 -0.3644 -0.0357 -0.9883
  168SOPE   C2618930   6.528   6.484   7.387  0.2955 -0.2239  0.1059
  168SOPE   H6R18931   6.571   6.382   7.381 -3.3004 -1.8388 -1.6903
  168SOPE   H6S18932   6.608   6.556   7.361  0.1086  0.1451  0.5527
  168SOPE   C2718933   6.472   6.516   7.525 -0.3669  0.2899  0.5624
  168SOPE   H7R18934   6.425   6.617   7.523  1.8491  1.4082  1.3773
  168SOPE   H7S18935   6.404   6.436   7.560  0.9746 -1.0542  0.2207
  168SOPE   C2818936   6.587   6.533   7.632 -0.3644 -0.3599 -0.8338
  168SOPE   H8R18937   6.654   6.444   7.629  1.9268  1.2847 -0.8012
  168SOPE   H8S18938   6.629   6.626   7.590 -1.7167  0.5005 -0.3393
  168SOPE   C2918939   6.539   6.557   7.774 -0.2615  0.2719 -0.4471
  168SOPE   H9118940   6.435   6.524   7.785  0.4343 -1.9634 -0.0433
  168SOPE  C21018941   6.592   6.624   7.877 -0.7266  0.1223  0.6320
  168SOPE  H10118942   6.524   6.619   7.963 -0.0466 -1.6820  1.1109
  168SOPE  C21118943   6.720   6.697   7.875 -0.0172  0.0768 -0.2975
  168SOPE  H11R18944   6.709   6.792   7.819  0.0513  0.9125  1.0498
  168SOPE  H11S18945   6.804   6.640   7.831 -0.2179 -0.2570 -0.2484
  168SOPE  C21218946   6.758   6.744   8.016 -0.3333  0.2326 -0.6609
  168SOPE  H12R18947   6.866   6.769   8.019 -0.8833  2.7816  0.4627
  168SOPE  H12S18948   6.754   6.657   8.085  0.3898  0.0257 -0.8679
  168SOPE  C21318949   6.672   6.857   8.073  0.3668 -0.1650  0.4320
  168SOPE  H13R18950   6.572   6.817   8.101 -0.4902  0.1952 -1.9283
  168SOPE  H13S18951   6.658   6.929   7.989 -0.9520 -2.4562 -1.4334
  168SOPE  C21418952   6.743   6.930   8.188  0.7837 -0.8761  0.3376
  168SOPE  H14R18953   6.827   6.992   8.151  0.6466 -1.3383 -0.7765
  168SOPE  H14S18954   6.776   6.850   8.258 -3.3291 -1.7352  1.5898
  168SOPE  C21518955   6.653   7.027   8.272  0.4382  0.3377  0.4290
  168SOPE  H15R18956   6.562   6.966   8.293 -0.4217  1.2931 -0.4463
  168SOPE  H15S18957   6.635   7.115   8.208  1.9103 -0.4088 -1.0967
  168SOPE  C21618958   6.716   7.076   8.408  0.0168 -0.4303  0.3443
  168SOPE  H16R18959   6.707   6.991   8.479  0.1023 -1.3481 -0.7042
  168SOPE  H16S18960   6.669   7.170   8.443 -0.5645  0.6973 -3.0834
  168SOPE  C21718961   6.862   7.109   8.390  0.2155  0.1862 -0.5776
  168SOPE  H17R18962   6.871   7.185   8.309  4.5973  3.4024  2.4402
  168SOPE  H17S18963   6.924   7.020   8.367 -0.1819 -1.5855  4.1009
  168SOPE  C21818964   6.910   7.171   8.522  0.5879 -0.0523 -0.3014
  168SOPE  H18R18965   6.939   7.085   8.586  2.1276 -0.4976 -1.5283
  168SOPE  H18S18966   6.828   7.230   8.568  1.4792  0.2006  1.0039
  168SOPE  H18T18967   6.992   7.244   8.503 -0.4479  0.5251 -3.1606
  168SOPE   C3318968   6.107   6.177   6.934 -0.0498 -0.3185  0.4836
  168SOPE   H3X18969   6.164   6.273   6.939  0.3282 -0.5234  0.2093
  168SOPE   H3Y18970   6.180   6.095   6.917  2.2599  1.9802 -1.7042
  168SOPE   C3418971   6.037   6.167   7.071  0.0563  0.6461  0.2155
  168SOPE   H4X18972   5.983   6.070   7.068 -0.2707  0.8498 -2.2863
  168SOPE   H4Y18973   5.950   6.234   7.085  0.2171  0.5032  2.1730
  168SOPE   C3518974   6.125   6.180   7.191  0.6398  0.3176  0.4326
  168SOPE   H5X18975   6.143   6.289   7.203 -0.0229  0.3587  1.1137
  168SOPE   H5Y18976   6.226   6.135   7.181  1.1887  1.8122 -1.3711
  168SOPE   C3618977   6.079   6.128   7.327  0.4890  0.0170 -0.7555
  168SOPE   H6X18978   6.059   6.020   7.314 -1.7966  0.3648 -0.5456
  168SOPE   H6Y18979   5.988   6.184   7.357  1.0706  0.1383  0.9108
  168SOPE   C3718980   6.181   6.139   7.439  0.2442  0.5495 -0.1003
  168SOPE   H7X18981   6.183   6.245   7.473  2.8279  0.5550 -0.0474
  168SOPE   H7Y18982   6.284   6.119   7.401  1.3022 -0.5764  2.9942
  168SOPE   C3818983   6.141   6.051   7.561 -0.6473 -0.1731 -0.5723
  168SOPE   H8X18984   6.141   5.942   7.536  1.5129 -0.4168  0.2497
  168SOPE   H8Y18985   6.036   6.083   7.578 -0.0167  1.4592  0.3923
  168SOPE   C3918986   6.214   6.078   7.697 -0.7440 -0.1493 -0.3555
  168SOPE   H9X18987   6.181   6.175   7.740 -0.1981  0.3860 -1.1217
  168SOPE   H9Y18988   6.323   6.077   7.681 -1.1010  0.0627 -3.1976
  168SOPE  C31018989   6.179   5.968   7.801  0.3105 -0.3048 -0.6446
  168SOPE  H10X18990   6.257   5.893   7.777  0.0388 -0.5896 -0.6455
  168SOPE  H10Y18991   6.076   5.928   7.788  0.0801  0.0973 -0.1346
  168SOPE  C31118992   6.196   6.011   7.949  0.0142  0.0605  0.6723
  168SOPE  H11X18993   6.165   5.926   8.013 -0.5813 -0.0016  0.3113
  168SOPE  H11Y18994   6.123   6.094   7.966  0.6006  0.6279  0.4715
  168SOPE  C31218995   6.336   6.069   7.971  0.2437  0.1601 -0.1652
  168SOPE  H12X18996   6.346   6.156   7.902  2.4834  0.6742  0.7362
  168SOPE  H12Y18997   6.421   6.000   7.955  0.5972  0.8364 -1.3202
  168SOPE  C31318998   6.353   6.127   8.115  0.3483 -0.5482 -0.5274
  168SOPE  H13X18999   6.387   6.046   8.183 -0.1570  0.0764  0.4880
  168SOPE  H13Y19000   6.252   6.164   8.142 -0.0930 -2.1920  0.2068
  168SOPE  C31419001   6.447   6.249   8.123 -0.0719  0.1381 -0.0725
  168SOPE  H14X19002   6.416   6.329   8.053 -1.4043  0.3555  0.7286
  168SOPE  H14Y19003   6.546   6.205   8.096 -0.0055  0.2492 -0.0108
  168SOPE  C31519004   6.474   6.298   8.264  0.1542  0.1969 -0.1954
  168SOPE  H15X19005   6.506   6.213   8.327 -1.8835 -1.0130 -0.6775
  168SOPE  H15Y19006   6.381   6.338   8.309  1.3046  0.8172  1.7121
  168SOPE  C31619007   6.583   6.410   8.260 -0.1998  0.7683  0.6406
  168SOPE  H16X19008   6.547   6.484   8.185 -0.2980  0.3882  0.3088
  168SOPE  H16Y19009   6.683   6.376   8.226 -0.2543  0.2364  1.0003
  168SOPE  C31719010   6.600   6.483   8.395 -0.0901 -0.4785  0.1382
  168SOPE  H17X19011   6.655   6.429   8.474 -1.3058  0.7604  1.8998
  168SOPE  H17Y19012   6.500   6.508   8.436  0.4454  0.1625  1.0686
  168SOPE  C31819013   6.676   6.618   8.379  0.0764 -0.0510  0.4460
  168SOPE  H18X19014   6.696   6.664   8.478 -0.7904  1.1982  0.0606
  168SOPE  H18Y19015   6.623   6.692   8.315  1.5984  1.0619  0.4022
  168SOPE  H18Z19016   6.782   6.618   8.344 -0.6454  1.0715 -1.9137
  169SOPE     N19017   0.217   1.235   6.090 -0.0016 -0.4136  0.3725
  169SOPE   HN119018   0.220   1.153   6.026 -0.5602  0.1165 -0.3424
  169SOPE   HN219019   0.149   1.303   6.049 -0.2148 -1.2451 -0.7137
  169SOPE   HN319020   0.307   1.286   6.094 -0.5259  0.5051  0.6595
  169SOPE   C1219021   0.174   1.200   6.232  0.0406  0.8764 -0.1002
  169SOPE  H12A19022   0.226   1.104   6.254 -1.7527  0.1725  1.3283
  169SOPE  H12B19023   0.068   1.170   6.222  0.3666 -0.4432  0.1823
  169SOPE   C1119024   0.208   1.298   6.343 -0.1864 -0.6016  0.2110
  169SOPE  H11A19025   0.183   1.255   6.442 -0.6291  0.7959  0.7349
  169SOPE  H11B19026   0.134   1.379   6.323 -0.1369 -0.4686  0.5608
  169SOPE     P19027   0.451   1.286   6.421 -0.1555 -0.0297 -0.1831
  169SOPE   O1319028   0.575   1.368   6.427  1.1836 -0.5019 -0.0537
  169SOPE   O1419029   0.461   1.150   6.362 -0.0449 -0.3995 -0.5088
  169SOPE   O1219030   0.339   1.356   6.338  1.0366 -0.5616  0.2202
  169SOPE   O1119031   0.393   1.280   6.570 -0.5011  0.0108 -0.2016
  169SOPE    C119032   0.431   1.358   6.674  1.1604 -0.5052  0.4719
  169SOPE    HA19033   0.346   1.370   6.744  2.4552 -1.1461  2.2163
  169SOPE    HB19034   0.441   1.462   6.637 -0.7357  0.2090  1.8380
  169SOPE    C219035   0.549   1.303   6.747 -0.7859 -0.2801 -0.1712
  169SOPE    HS19036   0.636   1.296   6.679 -0.9018  1.3203 -0.5248
  169SOPE   O2119037   0.522   1.181   6.819 -0.4199 -0.1055 -0.1044
  169SOPE   C2119038   0.623   1.097   6.831 -0.1159 -0.8626 -0.6900
  169SOPE   O2219039   0.736   1.113   6.791  0.4388 -0.0755  0.5277
  169SOPE   C2219040   0.574   0.971   6.911  0.3000 -0.6985 -0.0189
  169SOPE   H2R19041   0.606   0.889   6.845  1.5262 -0.7857  0.6556
  169SOPE   H2S19042   0.463   0.972   6.903  0.4146 -0.2469 -1.9844
  169SOPE    C319043   0.592   1.407   6.863  0.1529 -0.2105 -0.5935
  169SOPE    HX19044   0.647   1.487   6.809 -0.9333  0.1621 -1.1721
  169SOPE    HY19045   0.671   1.353   6.920 -0.2041 -0.5662 -0.4313
  169SOPE   O3119046   0.484   1.473   6.939 -0.3838  0.7037  0.6637
  169SOPE   C3119047   0.504   1.470   7.069  0.0839 -0.0946 -1.2602
  169SOPE   O3219048   0.596   1.416   7.121 -0.4844 -0.1595  0.1430
  169SOPE   C3219049   0.375   1.522   7.137 -0.0487  0.2418  0.1042
  169SOPE   H2X19050   0.304   1.438   7.151  1.7223 -0.9097  3.0987
  169SOPE   H2Y19051   0.340   1.603   7.069 -1.8157 -1.7836 -1.5392
  169SOPE   C2319052   0.633   0.969   7.053 -0.1877  0.4070  0.5509
  169SOPE   H3R19053   0.743   0.968   7.045  0.0014  1.5902  2.3702
  169SOPE   H3S19054   0.614   0.870   7.102  0.3309  0.1063  0.1559
  169SOPE   C2419055   0.583   1.077   7.147  0.2962 -0.2531  0.1809
  169SOPE   H4R19056   0.608   1.175   7.101 -2.0761  0.9057  1.1414
  169SOPE   H4S19057   0.472   1.082   7.146  0.3307  1.8031  1.2182
  169SOPE   C2519058   0.649   1.081   7.289  0.3347  0.3402  0.3036
  169SOPE   H5R19059   0.616   0.989   7.341  2.0017 -0.5671 -0.1755
  169SOPE   H5S19060   0.759   1.067   7.282  0.2825 -0.4500  0.9641
  169SOPE   C2619061   0.618   1.211   7.361 -0.5300  0.5525 -0.3530
  169SOPE   H6R19062   0.679   1.295   7.321  1.4597 -0.1886  0.9507
  169SOPE   H6S19063   0.516   1.255   7.358 -0.4291  0.8490  0.4536
  169SOPE   C2719064   0.657   1.205   7.513  0.6293 -0.2975 -0.2830
  169SOPE   H7R19065   0.616   1.114   7.561 -0.9519 -0.1676 -1.3027
  169SOPE   H7S19066   0.766   1.188   7.519  0.8061  0.5716 -0.9158
  169SOPE   C2819067   0.632   1.341   7.581  0.3094 -0.3688 -0.3416
  169SOPE   H8R19068   0.715   1.341   7.654  0.2239 -0.4992 -0.2429
  169SOPE   H8S19069   0.645   1.417   7.501  2.6375 -0.0402  0.2781
  169SOPE   C2919070   0.499   1.349   7.650  0.0177  0.5519  0.1480
  169SOPE   H9119071   0.409   1.365   7.588  0.1279 -0.5088 -0.3078
  169SOPE  C21019072   0.486   1.352   7.783 -0.0589 -0.0444 -0.7677
  169SOPE  H10119073   0.382   1.354   7.818  0.0075 -0.5767 -0.5279
  169SOPE  C21119074   0.591   1.326   7.891  0.4187 -0.1903  0.6067
  169SOPE  H11R19075   0.674   1.399   7.904  0.5830 -0.6535  2.4128
  169SOPE  H11S19076   0.642   1.236   7.850 -1.8572 -0.9843 -0.6820
  169SOPE  C21219077   0.526   1.295   8.029 -0.5700 -0.6994 -0.8047
  169SOPE  H12R19078   0.602   1.247   8.094 -1.8357  0.5026  1.7066
  169SOPE  H12S19079   0.446   1.218   8.022 -0.9877 -0.3947  0.3354
  169SOPE  C21319080   0.496   1.423   8.101 -0.8856  0.1101 -0.5582
  169SOPE  H13R19081   0.451   1.508   8.045  1.3142  2.1110  0.5081
  169SOPE  H13S19082   0.593   1.469   8.132 -1.0547 -0.0089  0.1666
  169SOPE  C21419083   0.410   1.388   8.217 -0.6025  0.2287 -0.2669
  169SOPE  H14R19084   0.467   1.308   8.270 -0.2126  0.5800 -0.1560
  169SOPE  H14S19085   0.316   1.335   8.190 -0.8879  0.2866  0.5935
  169SOPE  C21519086   0.387   1.503   8.305 -0.4513  0.6034  0.2299
  169SOPE  H15R19087   0.365   1.598   8.252 -4.2725  0.6151  1.5897
  169SOPE  H15S19088   0.487   1.511   8.354  0.6144 -0.7324 -1.5860
  169SOPE  C21619089   0.273   1.483   8.404  0.0515  0.1430 -0.4042
  169SOPE  H16R19090   0.184   1.464   8.341 -1.9418  0.4165  2.1817
  169SOPE  H16S19091   0.244   1.579   8.451  0.6069  0.5923 -0.9678
  169SOPE  C21719092   0.286   1.368   8.511  0.0402 -0.1978 -0.0952
  169SOPE  H17R19093   0.350   1.391   8.599 -0.9575  0.0601  0.5758
  169SOPE  H17S19094   0.340   1.279   8.470 -3.1914 -3.3670  1.9252
  169SOPE  C21819095   0.149   1.324   8.558  0.2553  0.0483 -0.9489
  169SOPE  H18R19096   0.118   1.397   8.635  3.2997 -1.0641  1.5562
  169SOPE  H18S19097   0.158   1.232   8.619 -0.2643 -0.2306 -1.2858
  169SOPE  H18T19098   0.074   1.301   8.480 -0.7373  0.4446 -0.1230
  169SOPE   C3319099   0.389   1.579   7.279 -0.5914 -0.2224  0.6659
  169SOPE   H3X19100   0.431   1.492   7.334 -0.3635 -2.0880 -2.2732
  169SOPE   H3Y19101   0.293   1.614   7.324 -2.4831 -3.0700 -0.8505
  169SOPE   C3419102   0.495   1.686   7.305  0.1794  0.8953  0.0407
  169SOPE   H4X19103   0.480   1.779   7.246  2.9277  1.8277  0.6803
  169SOPE   H4Y19104   0.590   1.633   7.283 -0.6606 -1.2336  1.1625
  169SOPE   C3519105   0.500   1.722   7.452  0.5178 -0.4841  0.1713
  169SOPE   H5X19106   0.602   1.753   7.484  1.1259 -2.0125 -0.1854
  169SOPE   H5Y19107   0.472   1.636   7.517  0.9935 -1.0834 -0.3943
  169SOPE   C3619108   0.405   1.846   7.485 -0.2501 -0.2108 -0.2551
  169SOPE   H6X19109   0.308   1.816   7.441 -0.3953 -0.5463  0.2907
  169SOPE   H6Y19110   0.446   1.928   7.422  0.6976 -1.0725 -0.7929
  169SOPE   C3719111   0.377   1.878   7.634 -0.2320 -0.6499  0.0789
  169SOPE   H7X19112   0.309   1.793   7.657  0.1473 -1.1455 -0.5931
  169SOPE   H7Y19113   0.310   1.965   7.651 -2.2446 -1.4239 -2.8830
  169SOPE   C3819114   0.497   1.885   7.734 -0.2226  0.7845 -0.3443
  169SOPE   H8X19115   0.542   1.785   7.719 -1.3844  0.3702 -1.1879
  169SOPE   H8Y19116   0.567   1.967   7.705 -0.7308  1.7262  0.9714
  169SOPE   C3919117   0.453   1.884   7.883 -0.2019 -0.3446 -0.7401
  169SOPE   H9X19118   0.386   1.795   7.889  0.0022 -0.6088 -2.0676
  169SOPE   H9Y19119   0.388   1.972   7.906 -0.8659 -1.3138  1.4819
  169SOPE  C31019120   0.569   1.872   7.982 -0.5587  0.5595  0.4640
  169SOPE  H10X19121   0.640   1.956   7.965  1.7550 -1.8033 -2.9803
  169SOPE  H10Y19122   0.630   1.785   7.949 -1.7899  0.4230 -1.6594
  169SOPE  C31119123   0.533   1.867   8.129  0.0490 -0.5151  0.2401
  169SOPE  H11X19124   0.455   1.793   8.159  0.0040 -1.2027 -1.4703
  169SOPE  H11Y19125   0.482   1.964   8.151 -0.6730 -0.7755 -0.2247
  169SOPE  C31219126   0.658   1.852   8.222  0.0388  0.2091 -1.0778
  169SOPE  H12X19127   0.721   1.938   8.191 -2.3101  1.6712 -2.1405
  169SOPE  H12Y19128   0.706   1.756   8.194  0.5704  0.3298 -0.5895
  169SOPE  C31319129   0.611   1.856   8.372  0.6345  0.2964  0.1051
  169SOPE  H13X19130   0.510   1.811   8.384  2.0099 -2.7641  1.1863
  169SOPE  H13Y19131   0.603   1.962   8.403 -1.3617  0.0669  0.5558
  169SOPE  C31419132   0.690   1.778   8.474  0.3608 -0.0449  0.1295
  169SOPE  H14X19133   0.796   1.806   8.457 -0.6928  2.2492 -4.0793
  169SOPE  H14Y19134   0.695   1.670   8.448  1.2269 -0.1653  0.7574
  169SOPE  C31519135   0.644   1.806   8.615 -0.1851 -0.2622 -0.7287
  169SOPE  H15X19136   0.660   1.915   8.623 -3.5301  0.6962 -4.2070
  169SOPE  H15Y19137   0.710   1.756   8.690  0.1413 -1.6857 -1.9152
  169SOPE  C31619138   0.502   1.764   8.666  0.3292  0.6808 -0.5021
  169SOPE  H16X19139   0.483   1.659   8.636  1.4677  0.3367 -0.0576
  169SOPE  H16Y19140   0.428   1.821   8.605 -2.2143 -1.5144  0.3343
  169SOPE  C31719141   0.480   1.769   8.816 -0.8091  0.1058  0.3428
  169SOPE  H17X19142   0.501   1.864   8.870 -1.4610  0.5785 -0.2163
  169SOPE  H17Y19143   0.541   1.687   8.860 -1.8818 -0.0682  1.5888
  169SOPE  C31819144   0.330   1.723   8.846 -0.2864 -0.6535  0.3251
  169SOPE  H18X19145   0.302   1.634   8.785 -1.8031 -1.0218  1.4910
  169SOPE  H18Y19146   0.257   1.793   8.799  0.0008  1.5488  2.9124
  169SOPE  H18Z19147   0.302   1.696   8.950  1.3441 -0.8162  0.7530
  170SOPE     N19148   2.219   0.160   6.418 -0.0858  0.2339  0.5888
  170SOPE   HN119149   2.237   0.058   6.407 -1.5998 -0.0239  0.2509
  170SOPE   HN219150   2.200   0.196   6.322 -0.7299 -0.9970  0.2234
  170SOPE   HN319151   2.313   0.189   6.452  1.2550  0.0107 -2.5550
  170SOPE   C1219152   2.100   0.187   6.506 -0.6380  0.0861  0.4105
  170SOPE  H12A19153   2.075   0.294   6.523  0.3504  0.1423  1.6267
  170SOPE  H12B19154   2.123   0.139   6.604 -1.4245  3.9525  2.7204
  170SOPE   C1119155   1.969   0.118   6.461  0.2747  0.2434 -0.3029
  170SOPE  H11A19156   1.891   0.134   6.539  1.8507  1.1822  1.1309
  170SOPE  H11B19157   1.991   0.009   6.453  0.4314  0.1965  0.6593
  170SOPE     P19158   1.850   0.303   6.314  0.0901  0.2541  0.2308
  170SOPE   O1319159   1.719   0.275   6.250  0.5145 -0.3069  0.1767
  170SOPE   O1419160   1.944   0.393   6.249  0.0485 -0.1869  1.0245
  170SOPE   O1219161   1.930   0.167   6.336  0.2255  0.1916  0.0395
  170SOPE   O1119162   1.821   0.355   6.458 -0.5179  0.0306  0.2817
  170SOPE    C119163   1.746   0.471   6.483 -0.7546  0.0648 -0.4424
  170SOPE    HA19164   1.713   0.524   6.391 -1.9647 -0.7316 -0.4885
  170SOPE    HB19165   1.823   0.531   6.536 -1.0644  0.4762 -0.4537
  170SOPE    C219166   1.635   0.440   6.582 -0.1714  0.4920 -0.1256
  170SOPE    HS19167   1.587   0.533   6.618  0.8182  1.4920 -1.3216
  170SOPE   O2119168   1.678   0.350   6.691 -0.5716  0.6087 -0.2172
  170SOPE   C2119169   1.736   0.414   6.784 -0.1687 -0.5851 -0.2320
  170SOPE   O2219170   1.760   0.534   6.780  0.0535 -0.3633 -0.0536
  170SOPE   C2219171   1.764   0.326   6.905  0.3288 -0.3669 -0.4384
  170SOPE   H2R19172   1.831   0.240   6.880  0.4603 -0.7820  1.2280
  170SOPE   H2S19173   1.672   0.291   6.956  2.0142  0.2932  3.4105
  170SOPE    C319174   1.518   0.370   6.508  0.0039  0.5716 -1.0008
  170SOPE    HX19175   1.560   0.279   6.460 -3.4709 -2.2081  0.7804
  170SOPE    HY19176   1.478   0.442   6.432  0.3779  0.6203 -1.1543
  170SOPE   O3119177   1.412   0.333   6.597  0.5184 -0.2490  0.3365
  170SOPE   C3119178   1.412   0.205   6.643 -0.1913 -0.0956 -0.0027
  170SOPE   O3219179   1.487   0.118   6.621  0.3490  0.4250  0.4590
  170SOPE   C3219180   1.301   0.192   6.743  0.1307 -0.4118  0.5311
  170SOPE   H2X19181   1.289   0.086   6.777  1.5170 -1.0219 -0.7792
  170SOPE   H2Y19182   1.207   0.217   6.691 -0.2669 -3.5908 -0.5316
  170SOPE   C2319183   1.827   0.408   7.025 -0.2675 -0.0491 -0.6343
  170SOPE   H3R19184   1.772   0.500   7.056 -0.2770  1.1186 -3.7092
  170SOPE   H3S19185   1.924   0.451   6.995 -0.1512  0.7627  0.8257
  170SOPE   C2419186   1.856   0.317   7.147  0.0830  0.3736 -0.3532
  170SOPE   H4R19187   1.756   0.279   7.177  1.2306 -1.5107  1.2920
  170SOPE   H4S19188   1.923   0.236   7.110  0.6681 -0.6159  2.6213
  170SOPE   C2519189   1.919   0.394   7.258 -0.9492 -0.0327 -0.0594
  170SOPE   H5R19190   2.012   0.447   7.231 -0.3145 -0.5065  1.1427
  170SOPE   H5S19191   1.839   0.468   7.278 -1.3342 -0.7798  1.2688
  170SOPE   C2619192   1.940   0.290   7.372 -0.1606  0.5307  0.1082
  170SOPE   H6R19193   1.842   0.247   7.400 -1.1909  2.4426 -0.3958
  170SOPE   H6S19194   2.011   0.207   7.352 -0.1045  1.0648 -2.1802
  170SOPE   C2719195   1.990   0.362   7.494 -0.1628 -0.2617  0.0943
  170SOPE   H7R19196   2.084   0.415   7.469  0.0208  0.8594  2.8132
  170SOPE   H7S19197   1.921   0.448   7.514 -1.6203 -1.1081 -1.0732
  170SOPE   C2819198   1.999   0.280   7.624 -0.2913  0.1452 -0.0998
  170SOPE   H8R19199   1.898   0.249   7.658 -0.1500  0.0357  0.2273
  170SOPE   H8S19200   2.054   0.187   7.596 -2.7180 -2.1195  2.1161
  170SOPE   C2919201   2.070   0.371   7.728 -0.0601  0.1548 -0.1531
  170SOPE   H9119202   2.177   0.390   7.712 -0.0556  1.5755  1.3536
  170SOPE  C21019203   2.017   0.438   7.830 -0.5501  0.2913 -0.1797
  170SOPE  H10119204   2.094   0.490   7.888 -0.1770  0.1493 -0.5453
  170SOPE  C21119205   1.877   0.443   7.877 -0.3090 -0.0497  0.1386
  170SOPE  H11R19206   1.805   0.394   7.807 -2.3061  3.5040 -0.5070
  170SOPE  H11S19207   1.839   0.543   7.905  2.1661  0.8819  0.4097
  170SOPE  C21219208   1.864   0.347   8.004 -0.3933 -0.3270 -0.6911
  170SOPE  H12R19209   1.909   0.384   8.099 -2.0069  0.0221 -0.0204
  170SOPE  H12S19210   1.900   0.244   7.985 -0.2909 -0.4948  0.3435
  170SOPE  C21319211   1.715   0.324   8.036 -0.1467 -0.1567 -0.1194
  170SOPE  H13R19212   1.664   0.249   7.972 -1.1510  0.0398  0.4305
  170SOPE  H13S19213   1.650   0.414   8.033 -0.0812 -0.1113 -0.1625
  170SOPE  C21419214   1.694   0.266   8.174  0.3235  0.3878  0.0695
  170SOPE  H14R19215   1.755   0.308   8.257 -2.3529  0.6789  2.0097
  170SOPE  H14S19216   1.708   0.156   8.179 -0.0059  0.3760  1.0845
  170SOPE  C21519217   1.547   0.288   8.221 -0.5006  0.4106  0.8406
  170SOPE  H15R19218   1.534   0.398   8.228 -1.2198  0.6328 -2.4735
  170SOPE  H15S19219   1.542   0.242   8.322  2.0663 -1.4200  0.2190
  170SOPE  C21619220   1.446   0.227   8.123  0.1294 -0.2686 -0.5939
  170SOPE  H16R19221   1.473   0.121   8.103 -2.0367 -1.1538  0.9103
  170SOPE  H16S19222   1.455   0.292   8.033 -3.3409  1.8115  0.4260
  170SOPE  C21719223   1.307   0.225   8.176  0.3147 -0.2847  0.0069
  170SOPE  H17R19224   1.276   0.321   8.222  0.7119 -0.3968  0.5241
  170SOPE  H17S19225   1.302   0.150   8.258 -2.8989 -0.9866 -0.6881
  170SOPE  C21819226   1.221   0.184   8.053  0.0581  0.4616  0.3181
  170SOPE  H18R19227   1.249   0.081   8.023 -0.7993  0.3527 -0.1377
  170SOPE  H18S19228   1.244   0.260   7.975  0.3094  0.8972  0.8087
  170SOPE  H18T19229   1.113   0.192   8.077 -0.3346 -1.0702 -0.7634
  170SOPE   C3319230   1.328   0.278   6.870  0.2817  0.5256  0.0162
  170SOPE   H3X19231   1.297   0.381   6.845 -2.2529 -0.4187 -1.0535
  170SOPE   H3Y19232   1.439   0.276   6.884  0.4741 -0.0987 -1.4001
  170SOPE   C3419233   1.246   0.234   6.988  0.4359  0.0814 -0.2561
  170SOPE   H4X19234   1.270   0.129   7.017  0.8645 -0.6427 -2.9623
  170SOPE   H4Y19235   1.141   0.244   6.951 -0.0314 -0.3809  0.8902
  170SOPE   C3519236   1.271   0.336   7.095  0.8776  0.1685  0.1689
  170SOPE   H5X19237   1.197   0.323   7.177  1.5671 -2.1599  0.5176
  170SOPE   H5Y19238   1.272   0.440   7.058 -2.8140 -0.1328 -1.1811
  170SOPE   C3619239   1.412   0.307   7.156 -0.7393  0.1382  0.0586
  170SOPE   H6X19240   1.494   0.298   7.080 -0.5711  0.3410  0.2140
  170SOPE   H6Y19241   1.404   0.216   7.218 -2.1430 -0.8702 -1.5000
  170SOPE   C3719242   1.450   0.424   7.249  0.5107  0.3343  0.4948
  170SOPE   H7X19243   1.355   0.467   7.288 -1.3289  0.9413 -4.0682
  170SOPE   H7Y19244   1.486   0.507   7.186 -0.4765  0.0265 -0.5018
  170SOPE   C3819245   1.534   0.395   7.372  0.3996  0.4385  0.0009
  170SOPE   H8X19246   1.624   0.343   7.331  1.5620  2.8532 -0.6977
  170SOPE   H8Y19247   1.485   0.329   7.446  2.3969 -0.7477  0.3375
  170SOPE   C3919248   1.602   0.520   7.444 -0.4470  0.1898 -0.1467
  170SOPE   H9X19249   1.650   0.586   7.368 -2.5128  1.6698 -0.2336
  170SOPE   H9Y19250   1.687   0.478   7.502 -1.7653 -0.6661  1.2497
  170SOPE  C31019251   1.504   0.602   7.527 -0.0025  0.4025 -0.0103
  170SOPE  H10X19252   1.406   0.597   7.476  0.6717  1.6449 -1.4953
  170SOPE  H10Y19253   1.528   0.710   7.540  1.2682 -0.0032  1.3523
  170SOPE  C31119254   1.471   0.561   7.677  0.7233  0.1599 -0.0788
  170SOPE  H11X19255   1.561   0.584   7.738 -0.7829 -0.5499  2.5600
  170SOPE  H11Y19256   1.442   0.456   7.695  0.3002  0.4693  1.1194
  170SOPE  C31219257   1.350   0.639   7.730 -0.1006  0.9894 -0.5407
  170SOPE  H12X19258   1.265   0.613   7.663 -1.1537  3.4198 -0.2597
  170SOPE  H12Y19259   1.361   0.749   7.720 -0.1259  1.3145  2.1563
  170SOPE  C31319260   1.303   0.593   7.865  0.0017  0.1080 -0.6594
  170SOPE  H13X19261   1.387   0.608   7.936 -0.4474 -0.3397 -0.0164
  170SOPE  H13Y19262   1.259   0.491   7.863 -0.8944  0.4876 -0.9499
  170SOPE  C31419263   1.189   0.675   7.920 -0.1437  0.2070  0.0149
  170SOPE  H14X19264   1.100   0.674   7.853 -1.8678 -0.0554  2.2112
  170SOPE  H14Y19265   1.232   0.777   7.928 -0.8102  0.5049 -0.2155
  170SOPE  C31519266   1.135   0.628   8.051  0.2533 -0.5263  0.4426
  170SOPE  H15X19267   1.084   0.530   8.039 -0.6327  0.0708 -0.8049
  170SOPE  H15Y19268   1.052   0.693   8.087 -0.4344 -1.4401  0.5638
  170SOPE  C31619269   1.236   0.602   8.156  0.0342  0.3137 -0.0408
  170SOPE  H16X19270   1.296   0.515   8.122 -3.2049 -1.9772 -0.4012
  170SOPE  H16Y19271   1.178   0.565   8.244  0.3507 -0.7383 -0.2566
  170SOPE  C31719272   1.318   0.725   8.203  0.8279  0.4074 -0.0883
  170SOPE  H17X19273   1.234   0.782   8.248 -1.3572  0.1311 -3.4618
  170SOPE  H17Y19274   1.362   0.772   8.113  1.5359 -1.4051 -0.7457
  170SOPE  C31819275   1.438   0.679   8.296 -0.3182  0.2821 -0.4343
  170SOPE  H18X19276   1.420   0.592   8.363  0.4220  1.6671  1.6627
  170SOPE  H18Y19277   1.478   0.762   8.357 -1.8411 -0.4161  1.6200
  170SOPE  H18Z19278   1.518   0.642   8.229  0.0610 -1.4261  0.8761
  171SOPE     N19279   3.144   4.254   6.139 -0.4759 -0.1748  0.0517
  171SOPE   HN119280   3.144   4.265   6.036  0.1861  1.3211  0.1831
  171SOPE   HN219281   3.154   4.346   6.186  0.9456 -0.1769 -0.2026
  171SOPE   HN319282   3.224   4.199   6.177 -1.0759 -3.2912 -2.7357
  171SOPE   C1219283   3.016   4.209   6.195 -0.0844 -0.0779 -0.0507
  171SOPE  H12A19284   2.981   4.123   6.134  0.4251  0.1232 -0.6377
  171SOPE  H12B19285   2.947   4.296   6.186 -0.9474 -0.6386  0.9096
  171SOPE   C1119286   3.021   4.157   6.340 -0.4320  0.8844  0.2383
  171SOPE  H11A19287   2.920   4.129   6.379 -1.7302  1.0866 -2.7321
  171SOPE  H11B19288   3.049   4.249   6.395 -3.4355  1.5712  0.8287
  171SOPE     P19289   3.072   3.901   6.308 -0.0123  0.2967 -0.1975
  171SOPE   O1319290   3.194   3.815   6.326  0.1148 -0.2805 -0.1764
  171SOPE   O1419291   3.010   3.899   6.173 -0.2841  0.3836 -0.3046
  171SOPE   O1219292   3.116   4.050   6.351  0.3237  0.0923 -0.0932
  171SOPE   O1119293   2.962   3.867   6.417 -0.0530  0.2216 -0.3438
  171SOPE    C119294   2.967   3.916   6.551 -0.3312 -0.2038 -0.2647
  171SOPE    HA19295   2.871   3.965   6.577 -0.1928 -0.0873  0.0311
  171SOPE    HB19296   3.049   3.990   6.565  0.5047 -0.8610 -1.4858
  171SOPE    C219297   2.987   3.813   6.664 -0.4476  0.0215 -0.0881
  171SOPE    HS19298   2.927   3.722   6.642 -2.3659  1.0647  0.5687
  171SOPE   O2119299   2.956   3.877   6.791  0.1777  0.3340  0.0651
  171SOPE   C2119300   2.902   3.806   6.883 -0.5044 -0.8774 -0.2548
  171SOPE   O2219301   2.871   3.692   6.883  0.1641  0.5437  0.3487
  171SOPE   C2219302   2.890   3.898   7.006 -0.0292 -0.6384 -0.1209
  171SOPE   H2R19303   2.791   3.949   7.004 -1.0954 -2.4739  1.8906
  171SOPE   H2S19304   2.966   3.978   6.998  0.6027 -1.3183 -1.1353
  171SOPE    C319305   3.136   3.755   6.664 -0.5597 -0.3286 -0.4608
  171SOPE    HX19306   3.202   3.818   6.600  0.0855 -1.3315 -0.8089
  171SOPE    HY19307   3.129   3.661   6.605  1.2562 -2.9163  3.0658
  171SOPE   O3119308   3.196   3.740   6.793  0.3943  0.0061  0.1226
  171SOPE   C3119309   3.260   3.846   6.842  0.5281  0.5513  0.3752
  171SOPE   O3219310   3.265   3.959   6.788 -0.0697  0.5753  0.5364
  171SOPE   C3219311   3.303   3.814   6.983 -0.8803 -0.1539 -0.6059
  171SOPE   H2X19312   3.408   3.785   6.963 -0.8975  0.6457 -1.9577
  171SOPE   H2Y19313   3.257   3.719   7.017  1.5426 -1.6040 -1.1313
  171SOPE   C2319314   2.883   3.813   7.144  0.1988 -0.3712  0.0749
  171SOPE   H3R19315   2.963   3.737   7.157  0.8727  0.3938  0.4768
  171SOPE   H3S19316   2.790   3.753   7.142  0.8813 -1.6544  2.8212
  171SOPE   C2419317   2.904   3.901   7.266  0.5646  0.5652  0.0017
  171SOPE   H4R19318   3.007   3.940   7.250  0.4804  0.7678 -0.0392
  171SOPE   H4S19319   2.818   3.971   7.268 -2.5386 -2.8389 -2.2456
  171SOPE   C2519320   2.932   3.822   7.392  0.2952  1.0479 -0.6373
  171SOPE   H5R19321   2.853   3.746   7.410  2.0677 -0.9885 -1.1366
  171SOPE   H5S19322   3.025   3.768   7.366 -1.1386 -1.5654 -0.5854
  171SOPE   C2619323   2.938   3.921   7.505  0.1164  0.4543 -0.0090
  171SOPE   H6R19324   3.013   4.001   7.490  0.7455  0.4461  2.5114
  171SOPE   H6S19325   2.839   3.966   7.528  0.0625 -0.2651  1.2614
  171SOPE   C2719326   2.963   3.861   7.643 -0.7459 -0.1830  0.2009
  171SOPE   H7R19327   3.051   3.794   7.630  0.2449  1.0914  0.2155
  171SOPE   H7S19328   2.986   3.935   7.723 -0.4816 -0.2039  0.1442
  171SOPE   C2819329   2.845   3.769   7.703 -0.4699  0.0171 -0.8209
  171SOPE   H8R19330   2.822   3.681   7.640  2.1917 -0.6300 -0.9917
  171SOPE   H8S19331   2.894   3.726   7.794 -0.3820 -1.0070 -1.3389
  171SOPE   C2919332   2.720   3.850   7.737 -0.3986  0.4252  0.1745
  171SOPE   H9119333   2.652   3.864   7.652  0.2286  1.7843 -0.1239
  171SOPE  C21019334   2.696   3.913   7.851 -0.2194  0.1394 -0.1037
  171SOPE  H10119335   2.604   3.974   7.859 -0.5393 -0.5624  2.5706
  171SOPE  C21119336   2.791   3.920   7.971  1.0031  0.0567  0.2788
  171SOPE  H11R19337   2.808   4.026   7.996  0.8625 -0.1686  1.3908
  171SOPE  H11S19338   2.888   3.867   7.957 -0.1077 -1.6027 -1.7896
  171SOPE  C21219339   2.721   3.861   8.098 -0.3751 -0.3798 -0.1427
  171SOPE  H12R19340   2.617   3.896   8.115 -0.2235  0.7568 -1.4368
  171SOPE  H12S19341   2.780   3.871   8.191 -0.6392  1.3942 -0.1201
  171SOPE  C21319342   2.714   3.712   8.072  0.1857 -0.4401 -0.5261
  171SOPE  H13R19343   2.812   3.660   8.070 -0.8547 -2.6110  0.7945
  171SOPE  H13S19344   2.669   3.689   7.973 -1.5273 -0.3695  0.1938
  171SOPE  C21419345   2.631   3.639   8.178  0.1992  0.9159  0.3144
  171SOPE  H14R19346   2.644   3.530   8.164  2.2178  1.2125 -0.4300
  171SOPE  H14S19347   2.523   3.661   8.168 -0.7535 -2.4927  1.6461
  171SOPE  C21519348   2.688   3.665   8.319  0.9014 -0.4378 -0.3397
  171SOPE  H15R19349   2.682   3.773   8.346 -1.2511  0.4950 -3.8560
  171SOPE  H15S19350   2.793   3.635   8.337  1.1440  1.5776  2.2253
  171SOPE  C21619351   2.603   3.585   8.427 -0.9346  0.8165  0.5226
  171SOPE  H16R19352   2.503   3.629   8.448 -2.2008 -1.6118 -0.0956
  171SOPE  H16S19353   2.667   3.601   8.516 -1.9065  0.9076  1.2201
  171SOPE  C21719354   2.598   3.436   8.411  0.7772 -0.5361 -0.0624
  171SOPE  H17R19355   2.704   3.402   8.407  1.7956  1.9945  2.1394
  171SOPE  H17S19356   2.544   3.400   8.321 -0.7612  0.0379  0.5874
  171SOPE  C21819357   2.542   3.375   8.538 -0.1222  0.2625  0.6834
  171SOPE  H18R19358   2.618   3.370   8.619  0.7016  0.8846 -0.0244
  171SOPE  H18S19359   2.524   3.269   8.511 -1.2242  0.7779 -0.7737
  171SOPE  H18T19360   2.445   3.406   8.581 -0.7338  0.4460 -0.7717
  171SOPE   C3319361   3.305   3.926   7.090 -0.2239 -0.1549 -0.2389
  171SOPE   H3X19362   3.209   3.981   7.081  0.1693  0.5245 -0.3671
  171SOPE   H3Y19363   3.383   4.004   7.077 -0.1554  0.2071  2.0096
  171SOPE   C3419364   3.311   3.860   7.233  0.5086 -0.4636 -0.4935
  171SOPE   H4X19365   3.400   3.795   7.227  0.7613 -0.0049 -2.1372
  171SOPE   H4Y19366   3.212   3.809   7.230 -1.6151  3.2335 -0.1999
  171SOPE   C3519367   3.311   3.960   7.353 -0.1502  0.3284  0.0744
  171SOPE   H5X19368   3.236   4.040   7.333 -0.8167 -0.4598 -0.6505
  171SOPE   H5Y19369   3.409   4.013   7.365  1.3885 -1.9025 -1.8362
  171SOPE   C3619370   3.305   3.886   7.484 -0.2711  0.8457 -0.6960
  171SOPE   H6X19371   3.386   3.810   7.486 -0.8756  0.2131  0.2595
  171SOPE   H6Y19372   3.211   3.829   7.501  0.2938  0.5121  1.5230
  171SOPE   C3719373   3.337   3.986   7.604 -0.2262  0.3228 -0.2268
  171SOPE   H7X19374   3.251   4.054   7.624  0.2844  1.3534 -1.3876
  171SOPE   H7Y19375   3.419   4.058   7.581 -1.0566  1.1589 -0.6261
  171SOPE   C3819376   3.359   3.913   7.741  0.1669  0.0854 -0.4987
  171SOPE   H8X19377   3.454   3.856   7.745  0.6907  0.7620 -2.1573
  171SOPE   H8Y19378   3.272   3.846   7.755  0.4559  0.1089  1.7957
  171SOPE   C3919379   3.363   4.011   7.859  1.0545 -0.1241  0.5458
  171SOPE   H9X19380   3.260   4.054   7.854  1.0293 -0.3531 -1.3513
  171SOPE   H9Y19381   3.433   4.095   7.838 -2.2061  3.3160  2.0985
  171SOPE  C31019382   3.368   3.943   7.996  0.1212  0.6747 -0.3205
  171SOPE  H10X19383   3.465   3.894   8.017 -1.6187 -1.8120  2.5670
  171SOPE  H10Y19384   3.301   3.856   7.986  0.0153  0.3469  2.4855
  171SOPE  C31119385   3.337   4.019   8.121 -0.2578  0.3490  0.0475
  171SOPE  H11X19386   3.233   4.054   8.104  0.4822  2.2043 -0.9481
  171SOPE  H11Y19387   3.402   4.105   8.145 -1.4693  1.1424  0.5254
  171SOPE  C31219388   3.319   3.939   8.246  0.4700  0.4476  0.1497
  171SOPE  H12X19389   3.411   3.889   8.284  1.0583  1.2578 -0.1730
  171SOPE  H12Y19390   3.260   3.855   8.205  3.1397 -0.9679 -1.0461
  171SOPE  C31319391   3.239   4.009   8.352 -0.1013 -0.5306 -0.4716
  171SOPE  H13X19392   3.138   4.042   8.322 -1.1640 -2.5011  0.7010
  171SOPE  H13Y19393   3.293   4.097   8.395 -0.7896 -0.2500 -0.1523
  171SOPE  C31419394   3.214   3.913   8.474 -0.6694  0.2262  0.1933
  171SOPE  H14X19395   3.144   3.964   8.544 -2.5314  1.2102 -2.2537
  171SOPE  H14Y19396   3.308   3.884   8.526  0.2384  1.8785 -0.4627
  171SOPE  C31519397   3.134   3.783   8.437 -0.1777 -0.1877 -0.1734
  171SOPE  H15X19398   3.195   3.721   8.369 -1.6816 -1.2233 -0.6232
  171SOPE  H15Y19399   3.045   3.803   8.374  0.0645 -1.7234 -1.0449
  171SOPE  C31619400   3.116   3.694   8.566 -0.2032 -0.3318 -0.2453
  171SOPE  H16X19401   3.069   3.757   8.645 -1.1441 -0.2697 -0.8269
  171SOPE  H16Y19402   3.221   3.668   8.589 -0.0088 -1.4520 -2.1336
  171SOPE  C31719403   3.054   3.563   8.534 -0.2690 -0.0577  0.7851
  171SOPE  H17X19404   3.119   3.508   8.462  1.9022  0.0726  2.5694
  171SOPE  H17Y19405   2.961   3.572   8.472  0.0604  0.2175  0.3235
  171SOPE  C31819406   3.017   3.470   8.653 -0.5064 -0.3084 -0.1724
  171SOPE  H18X19407   2.942   3.523   8.716  0.6823 -0.5235  1.4911
  171SOPE  H18Y19408   3.109   3.449   8.710 -0.9718  0.3805  0.8675
  171SOPE  H18Z19409   2.958   3.378   8.633 -1.9154 -0.4680  3.8521
  172SOPE     N19410   3.120   5.426   6.375 -0.3218 -0.1562 -0.1167
  172SOPE   HN119411   3.220   5.435   6.350 -0.3179 -1.6088 -0.7117
  172SOPE   HN219412   3.102   5.484   6.459  2.3469  3.5593 -1.8426
  172SOPE   HN319413   3.083   5.330   6.392  0.0213 -0.5956 -1.6433
  172SOPE   C1219414   3.043   5.464   6.255  0.3093 -0.0066  0.2156
  172SOPE  H12A19415   3.059   5.384   6.180  0.7740 -0.5318  0.8481
  172SOPE  H12B19416   3.080   5.564   6.224  0.3861 -0.5357 -1.4641
  172SOPE   C1119417   2.893   5.488   6.291  0.7352 -0.4340  0.0892
  172SOPE  H11A19418   2.836   5.394   6.312 -1.4607  1.3468  2.8683
  172SOPE  H11B19419   2.847   5.542   6.205 -1.6365  0.6231  1.9099
  172SOPE     P19420   2.785   5.535   6.528  0.2936 -0.3627 -0.6615
  172SOPE   O1319421   2.654   5.497   6.464  0.0023  0.1623 -0.5214
  172SOPE   O1419422   2.785   5.644   6.620  0.1344  0.4371  0.4599
  172SOPE   O1219423   2.880   5.578   6.409 -0.3675  0.0720  0.3540
  172SOPE   O1119424   2.846   5.408   6.594  0.3652 -0.4967 -0.0297
  172SOPE    C119425   2.753   5.295   6.620 -0.5523  0.1973 -0.3404
  172SOPE    HA19426   2.809   5.200   6.633  0.9523  0.6903 -2.5237
  172SOPE    HB19427   2.686   5.287   6.532 -0.2154  2.7460 -0.9129
  172SOPE    C219428   2.660   5.321   6.746 -1.1355 -0.0084  0.5056
  172SOPE    HS19429   2.613   5.416   6.714 -0.2470  0.0647 -0.6516
  172SOPE   O2119430   2.756   5.350   6.852  0.5232  0.5496 -0.9747
  172SOPE   C2119431   2.697   5.396   6.959 -0.0127 -0.1968 -0.7807
  172SOPE   O2219432   2.580   5.421   6.975 -0.0459 -0.2151  0.0042
  172SOPE   C2219433   2.807   5.403   7.065  0.5015  0.1119 -0.2901
  172SOPE   H2R19434   2.856   5.502   7.049  0.5966  0.2557  0.8261
  172SOPE   H2S19435   2.882   5.322   7.054  0.4328  0.0581 -0.3665
  172SOPE    C319436   2.564   5.201   6.780  0.6624  0.2802  0.4322
  172SOPE    HX19437   2.480   5.199   6.707  1.0005  0.4675  0.0373
  172SOPE    HY19438   2.515   5.223   6.878 -1.5188  1.8943 -0.9349
  172SOPE   O3119439   2.640   5.077   6.786 -0.2791  0.2258 -0.7317
  172SOPE   C3119440   2.571   4.976   6.823 -0.6059 -0.0460 -0.2687
  172SOPE   O3219441   2.450   4.969   6.837  0.1501 -0.5628 -0.0301
  172SOPE   C3219442   2.666   4.857   6.846 -0.5305  0.2742 -0.3787
  172SOPE   H2X19443   2.712   4.831   6.748  0.3018 -0.9058  0.2999
  172SOPE   H2Y19444   2.610   4.769   6.883 -1.1174  0.0515 -1.7126
  172SOPE   C2319445   2.751   5.404   7.210  0.3717  0.1825 -0.8890
  172SOPE   H3R19446   2.705   5.308   7.241  1.7522 -0.0981  0.4213
  172SOPE   H3S19447   2.674   5.484   7.204 -0.2858 -0.3240  0.5675
  172SOPE   C2419448   2.857   5.428   7.324  0.3877 -0.6565  0.2414
  172SOPE   H4R19449   2.925   5.340   7.332 -2.5069 -2.9988  0.9237
  172SOPE   H4S19450   2.910   5.518   7.287 -0.6727 -0.5117 -0.9993
  172SOPE   C2519451   2.788   5.464   7.456 -0.2214  0.6874 -0.1656
  172SOPE   H5R19452   2.702   5.534   7.449 -0.1860  0.9484  1.6085
  172SOPE   H5S19453   2.734   5.373   7.490  2.2184 -0.6043  0.4683
  172SOPE   C2619454   2.889   5.521   7.564  0.0880  0.0587  0.3321
  172SOPE   H6R19455   2.951   5.437   7.603  0.8375  0.4384 -0.0127
  172SOPE   H6S19456   2.968   5.579   7.511 -0.3074 -1.1043 -1.6229
  172SOPE   C2719457   2.815   5.582   7.679  0.7377 -0.2338  0.1840
  172SOPE   H7R19458   2.791   5.684   7.641 -2.6464 -1.2856 -0.8719
  172SOPE   H7S19459   2.722   5.523   7.693  0.8520 -0.8691 -1.4853
  172SOPE   C2819460   2.907   5.590   7.798 -0.1729 -0.5318 -0.6516
  172SOPE   H8R19461   2.854   5.621   7.890 -1.1140 -0.7920 -1.0967
  172SOPE   H8S19462   2.943   5.487   7.817 -0.9520 -0.6283  0.3666
  172SOPE   C2919463   3.017   5.689   7.778 -1.0866 -0.0328 -0.2333
  172SOPE   H9119464   3.020   5.751   7.688 -1.3332  0.4869  0.1138
  172SOPE  C21019465   3.127   5.689   7.863 -0.2901  0.5519  0.1287
  172SOPE  H10119466   3.217   5.745   7.836  0.1608  0.0025  0.4870
  172SOPE  C21119467   3.138   5.607   7.989 -0.0885  0.4355  0.1513
  172SOPE  H11R19468   3.206   5.519   7.983  0.4508  0.8612  0.0346
  172SOPE  H11S19469   3.041   5.552   7.998  0.6020 -0.6751  1.1536
  172SOPE  C21219470   3.134   5.678   8.126  0.1441 -0.2704  0.0222
  172SOPE  H12R19471   3.040   5.737   8.128  0.9437  1.0453  0.6294
  172SOPE  H12S19472   3.225   5.742   8.135  1.0367 -1.4252 -0.4096
  172SOPE  C21319473   3.130   5.577   8.234  0.2813 -0.0487  0.1801
  172SOPE  H13R19474   3.234   5.545   8.257  0.2451  0.5523  1.2515
  172SOPE  H13S19475   3.078   5.486   8.196  3.0355 -0.8110 -2.0869
  172SOPE  C21419476   3.056   5.620   8.363  0.5044 -0.4989  0.1160
  172SOPE  H14R19477   3.093   5.721   8.391 -2.4442  0.6824  0.1071
  172SOPE  H14S19478   3.073   5.553   8.450  1.8789 -0.2975  0.0303
  172SOPE  C21519479   2.904   5.639   8.354  0.5264  0.1081  0.1817
  172SOPE  H15R19480   2.875   5.728   8.294 -0.6965 -1.8296 -2.2399
  172SOPE  H15S19481   2.877   5.657   8.461 -1.0374  1.7706 -0.4352
  172SOPE  C21619482   2.836   5.517   8.289  0.4811  0.3742  0.0991
  172SOPE  H16R19483   2.871   5.427   8.343 -0.9682 -0.8537 -0.9493
  172SOPE  H16S19484   2.872   5.505   8.185 -1.2255  0.6126 -0.5495
  172SOPE  C21719485   2.682   5.530   8.299 -0.4438 -0.4216  0.2327
  172SOPE  H17R19486   2.662   5.638   8.313 -2.1338 -0.6462 -0.2043
  172SOPE  H17S19487   2.627   5.473   8.377 -2.3688  0.0336 -0.7184
  172SOPE  C21819488   2.614   5.502   8.158  0.2191  0.3352 -0.3689
  172SOPE  H18R19489   2.504   5.491   8.167  0.3047  0.2419  0.7522
  172SOPE  H18S19490   2.667   5.413   8.117  1.5536  1.5266 -1.3316
  172SOPE  H18T19491   2.642   5.585   8.090 -0.6620  0.5506 -0.4818
  172SOPE   C3319492   2.790   4.895   6.932  0.4002 -0.7842  0.4465
  172SOPE   H3X19493   2.842   4.980   6.884  1.2643 -2.9641 -2.8832
  172SOPE   H3Y19494   2.855   4.805   6.916  1.0093 -0.2504 -0.1555
  172SOPE   C3419495   2.755   4.928   7.081 -0.7465 -0.2605 -0.1835
  172SOPE   H4X19496   2.700   4.845   7.131 -1.4535  0.3615  0.0817
  172SOPE   H4Y19497   2.693   5.020   7.080 -0.5116 -0.0718  0.9902
  172SOPE   C3519498   2.879   4.966   7.162  0.0901  0.5120 -0.6606
  172SOPE   H5X19499   2.937   5.047   7.113  1.7302 -0.6702 -0.7593
  172SOPE   H5Y19500   2.947   4.878   7.168 -1.7273 -0.9725 -0.8668
  172SOPE   C3619501   2.836   5.020   7.301  0.1776 -0.6609 -0.3206
  172SOPE   H6X19502   2.768   4.945   7.347 -1.5028 -1.0100 -3.0808
  172SOPE   H6Y19503   2.782   5.116   7.292 -0.1331 -0.9103 -1.2524
  172SOPE   C3719504   2.942   5.025   7.417 -0.6606  0.2152  0.4840
  172SOPE   H7X19505   3.025   5.090   7.382 -1.4498  1.3537  0.6830
  172SOPE   H7Y19506   2.979   4.920   7.419 -0.3911  0.3027  0.1494
  172SOPE   C3819507   2.895   5.065   7.558 -0.1085 -0.6881 -0.0132
  172SOPE   H8X19508   2.831   4.989   7.606 -0.1438 -0.8094 -0.2518
  172SOPE   H8Y19509   2.839   5.160   7.544  0.8176  0.0024  0.8055
  172SOPE   C3919510   3.023   5.100   7.651 -0.3805 -0.2219  0.2413
  172SOPE   H9X19511   3.083   5.184   7.610 -0.7444  0.0507  0.2646
  172SOPE   H9Y19512   3.095   5.015   7.657 -1.5139 -1.6765 -3.6531
  172SOPE  C31019513   2.975   5.134   7.790 -0.1011 -0.0901  0.1803
  172SOPE  H10X19514   2.909   5.049   7.822 -0.5330  0.1665 -0.0176
  172SOPE  H10Y19515   2.902   5.217   7.778  0.5116  0.2875 -1.0301
  172SOPE  C31119516   3.084   5.177   7.883  0.0330  0.0287  0.2445
  172SOPE  H11X19517   3.130   5.272   7.848  0.4827  0.3027  1.5291
  172SOPE  H11Y19518   3.163   5.098   7.875 -0.0707  0.0361 -0.9935
  172SOPE  C31219519   3.044   5.189   8.032  0.1269  0.1850  0.1391
  172SOPE  H12X19520   2.992   5.094   8.057  1.1948 -0.3531  0.4081
  172SOPE  H12Y19521   2.975   5.275   8.023 -0.3296 -0.1593  0.3415
  172SOPE  C31319522   3.162   5.201   8.132  0.5007  0.0451  1.1302
  172SOPE  H13X19523   3.209   5.301   8.118 -0.0600  0.1445 -0.2107
  172SOPE  H13Y19524   3.238   5.124   8.104 -1.8063 -1.1286 -2.5990
  172SOPE  C31419525   3.108   5.177   8.271  0.1827  0.5384  0.3598
  172SOPE  H14X19526   3.063   5.075   8.282  1.1621  0.0834  0.2350
  172SOPE  H14Y19527   3.034   5.256   8.295 -2.0860 -1.6233  0.9028
  172SOPE  C31519528   3.219   5.174   8.379 -0.0969  0.4179 -0.9681
  172SOPE  H15X19529   3.316   5.133   8.343 -0.6136 -0.6262 -1.2329
  172SOPE  H15Y19530   3.177   5.104   8.455  1.5519  0.8213  0.3961
  172SOPE  C31619531   3.234   5.314   8.452 -0.0052  0.5314 -0.0790
  172SOPE  H16X19532   3.134   5.338   8.494  0.5983 -1.9186  3.1070
  172SOPE  H16Y19533   3.260   5.387   8.372  1.9632 -1.5948 -1.5102
  172SOPE  C31719534   3.332   5.337   8.565  0.3193  0.2566 -0.2978
  172SOPE  H17X19535   3.432   5.289   8.555  0.6831  0.0016  3.2356
  172SOPE  H17Y19536   3.292   5.301   8.662  0.0348  1.2860 -0.0150
  172SOPE  C31819537   3.368   5.485   8.585  0.4699 -0.5888  0.5687
  172SOPE  H18X19538   3.454   5.508   8.651  0.4582 -1.5405  0.9225
  172SOPE  H18Y19539   3.284   5.552   8.612  0.1917 -0.1766 -1.1636
  172SOPE  H18Z19540   3.405   5.521   8.486  1.7126 -0.6559  0.9941
  173SAPI   C1219541   4.235   4.792  10.514 -0.4591 -0.0855 -0.4193
  173SAPI    H219542   4.153   4.745  10.455  0.7583 -0.2144 -2.0624
  173SAPI    O219543   4.345   4.699  10.503 -0.3910  0.0649 -0.3162
  173SAPI   HO219544   4.325   4.626  10.444  0.3118  0.2138 -0.7538
  173SAPI   C1319545   4.264   4.919  10.440 -0.2726 -0.9076 -0.4947
  173SAPI    H319546   4.180   4.991  10.453  0.3248  0.1731 -2.2061
  173SAPI    O319547   4.283   4.903  10.298  0.0939 -0.0742 -0.0323
  173SAPI   HO319548   4.350   4.835  10.289 -0.9715 -0.9300 -2.1285
  173SAPI   C1419549   4.376   4.991  10.520  0.4089 -0.0027  0.2238
  173SAPI    H419550   4.465   4.925  10.527 -0.9872 -1.9205  0.4191
  173SAPI    O419551   4.415   5.101  10.448 -0.3218  0.2344  0.3062
  173SAPI   HO419552   4.412   5.083  10.354 -0.1040 -1.9548  0.6637
  173SAPI   C1519553   4.333   5.015  10.668  0.0214  0.4195 -0.1628
  173SAPI    H519554   4.243   5.081  10.677 -1.5082 -1.4924 -0.8236
  173SAPI    O519555   4.450   5.073  10.732 -0.1041 -0.4386  0.1220
  173SAPI   HO519556   4.433   5.082  10.826  1.6318 -0.0905  0.4509
  173SAPI   C1619557   4.293   4.886  10.737 -0.0978  0.6490 -0.1624
  173SAPI    H619558   4.382   4.820  10.742 -0.2062  0.5666  1.5132
  173SAPI    O619559   4.259   4.918  10.869  0.5788  0.5217  0.1010
  173SAPI   HO619560   4.268   4.835  10.916 -0.1977  0.2255 -0.2525
  173SAPI   C1119561   4.183   4.820  10.663 -0.0223  0.0987  0.5784
  173SAPI    H119562   4.096   4.887  10.651 -1.9959 -2.3315  0.4929
  173SAPI     P19563   3.992   4.669  10.760 -0.4773  0.4038  0.4204
  173SAPI   O1319564   3.934   4.790  10.827 -0.2573  0.2542  0.4287
  173SAPI   O1419565   3.980   4.543  10.831 -0.3482  0.4144 -0.1512
  173SAPI   O1219566   4.150   4.696  10.723 -0.2040 -0.0659 -0.4000
  173SAPI   O1119567   3.930   4.652  10.615 -0.6281 -0.2164  0.0520
  173SAPI    C119568   3.820   4.746  10.582 -0.5029  0.0063 -0.2207
  173SAPI    HA19569   3.731   4.725  10.646  0.0059  0.3453  0.6228
  173SAPI    HB19570   3.845   4.854  10.592  0.7243 -0.1233 -1.5124
  173SAPI    C219571   3.781   4.723  10.430 -0.1007  0.6804 -0.9106
  173SAPI    HS19572   3.734   4.622  10.428  0.3337  0.4839 -1.4271
  173SAPI   O2119573   3.899   4.744  10.346  0.4227 -0.7230 -0.0227
  173SAPI   C2119574   3.903   4.661  10.239  0.2704 -0.0167  0.3677
  173SAPI   O2219575   3.834   4.556  10.228  0.3599 -0.0281 -0.4082
  173SAPI   C2219576   3.993   4.718  10.126 -0.1372 -0.4450 -0.4864
  173SAPI   H2R19577   4.033   4.814  10.167  0.9104 -0.7281 -0.8148
  173SAPI   H2S19578   4.077   4.648  10.107  0.3883 -0.4223  1.5472
  173SAPI    C319579   3.671   4.823  10.396 -0.0373 -0.2783  0.0085
  173SAPI    HX19580   3.735   4.912  10.376  0.2818  0.0304  2.1368
  173SAPI    HY19581   3.600   4.844  10.478  1.1300 -2.0111  1.5567
  173SAPI   O3119582   3.604   4.774  10.281  0.5400  0.2948 -0.3888
  173SAPI   C3119583   3.485   4.819  10.253 -0.6792 -0.8049 -0.0622
  173SAPI   O3219584   3.420   4.899  10.321 -0.1547 -0.0867  0.2970
  173SAPI   C3219585   3.439   4.760  10.123  0.4692 -0.2048 -0.0594
  173SAPI   H2X19586   3.328   4.756  10.125  0.4760 -0.4499 -0.1886
  173SAPI   H2Y19587   3.486   4.662  10.102  0.2143 -0.1435 -0.9228
  173SAPI   C2319588   3.918   4.741   9.990 -0.7084 -0.2106 -0.7777
  173SAPI   H3R19589   3.824   4.795  10.014  1.5245  3.6186  0.3465
  173SAPI   H3S19590   3.890   4.647   9.939 -1.5995 -0.4122  0.0659
  173SAPI   C2419591   4.008   4.821   9.891 -0.1360  0.0554 -0.0086
  173SAPI   H4R19592   4.104   4.765   9.897 -0.2446  0.0243  2.2905
  173SAPI   H4S19593   4.033   4.918   9.939 -0.1568 -0.1770  0.4703
  173SAPI   C2519594   3.931   4.832   9.760 -0.0543  0.6294  0.3121
  173SAPI   H5R19595   3.871   4.924   9.760 -0.5712  0.3246  1.7904
  173SAPI   C2619596   3.930   4.747   9.659  0.0249 -0.2697  0.1425
  173SAPI   H6R19597   3.845   4.763   9.590  1.5929  1.3799 -1.5386
  173SAPI   C2719598   4.004   4.611   9.648 -0.7751  0.4736  0.5179
  173SAPI   H7R19599   4.082   4.607   9.727  1.8176 -2.3197 -1.9778
  173SAPI   H7S19600   4.067   4.612   9.557  0.7470 -0.9518  1.5083
  173SAPI   C2819601   3.911   4.489   9.655  0.2061  0.6891 -0.2070
  173SAPI   H8R19602   3.915   4.421   9.741  1.6042  0.1449 -0.6729
  173SAPI   C2919603   3.833   4.446   9.551 -0.0776  0.1621  0.4994
  173SAPI   H9R19604   3.752   4.372   9.565 -1.0273  1.0131 -0.2841
  173SAPI  C21019605   3.825   4.512   9.414 -0.3413  0.2121  0.7781
  173SAPI  H10R19606   3.815   4.622   9.424  0.2537  0.4741 -1.0913
  173SAPI  H10S19607   3.727   4.495   9.365 -0.7212  0.9168  1.2652
  173SAPI  C21119608   3.948   4.465   9.330 -0.1506  0.1792 -0.3493
  173SAPI  H11R19609   4.036   4.466   9.396 -1.6609  1.3497  1.7660
  173SAPI  C21219610   3.940   4.422   9.206  0.1910 -1.2799  0.0305
  173SAPI  H12R19611   4.037   4.384   9.171 -0.5752 -1.9909 -1.3878
  173SAPI  C21319612   3.826   4.420   9.103 -0.4590  0.2328  0.3660
  173SAPI  H13R19613   3.729   4.443   9.150 -0.5335 -0.4937  0.5754
  173SAPI  H13S19614   3.815   4.316   9.068  2.4711 -0.1170  0.2217
  173SAPI  C21419615   3.858   4.520   8.991  0.5398 -0.1777  0.1627
  173SAPI  H14R19616   3.918   4.608   9.017  0.0889 -0.0768  0.8759
  173SAPI  C21519617   3.833   4.496   8.866 -0.5437 -0.2654  0.2198
  173SAPI  H15R19618   3.884   4.560   8.792  1.0649 -1.7693 -0.0466
  173SAPI  C21619619   3.754   4.380   8.807 -0.2608 -0.0913 -0.0149
  173SAPI  H16R19620   3.666   4.417   8.748  1.2344  0.3499 -2.0802
  173SAPI  H16S19621   3.721   4.309   8.885 -1.2407  1.5172  1.1108
  173SAPI  C21719622   3.845   4.305   8.707 -0.3492 -0.3882  0.2823
  173SAPI  H17R19623   3.933   4.273   8.766  0.4388  3.7556  1.6819
  173SAPI  H17S19624   3.889   4.376   8.633  0.1545 -0.3650  0.6041
  173SAPI  C21819625   3.771   4.204   8.620 -0.8999  0.4030  0.5163
  173SAPI  H18R19626   3.735   4.121   8.685 -1.4856  0.2775  0.0373
  173SAPI  H18S19627   3.839   4.163   8.543 -4.2078 -2.9239 -0.9407
  173SAPI  C21919628   3.660   4.263   8.538 -0.2939  0.5939 -0.3332
  173SAPI  H19R19629   3.698   4.349   8.480 -0.9839  0.4241 -1.0576
  173SAPI  H19S19630   3.581   4.298   8.608 -0.1681  2.7363 -1.1913
  173SAPI  C22019631   3.600   4.165   8.434 -0.5493  0.3066 -0.5363
  173SAPI  H20R19632   3.691   4.120   8.389  0.8668 -0.8683  3.1466
  173SAPI  H20S19633   3.537   4.228   8.368 -2.9825  0.5641  1.8380
  173SAPI  H20T19634   3.535   4.092   8.487 -0.5367  1.4104  1.0498
  173SAPI   C3319635   3.460   4.865  10.013 -0.3455 -0.3146 -0.1173
  173SAPI   H3X19636   3.568   4.884   9.999 -0.2450  0.0985  1.1525
  173SAPI   H3Y19637   3.421   4.962  10.051 -0.6482 -0.7748  0.7669
  173SAPI   C3419638   3.404   4.829   9.880 -0.6800  0.9137  0.6448
  173SAPI   H4X19639   3.412   4.913   9.808 -1.4464  0.7497  0.3603
  173SAPI   H4Y19640   3.297   4.800   9.874 -0.8873  1.6675  0.6160
  173SAPI   C3519641   3.473   4.703   9.820  0.1995  0.2119  0.5165
  173SAPI   H5X19642   3.413   4.626   9.874 -1.4630  1.5190  0.6329
  173SAPI   H5Y19643   3.581   4.697   9.843  0.3511 -0.4283 -0.2893
  173SAPI   C3619644   3.476   4.665   9.662 -0.4236 -0.3049  0.0470
  173SAPI   H6X19645   3.376   4.622   9.639 -0.9986 -1.2404  3.7827
  173SAPI   H6Y19646   3.543   4.578   9.648  0.3705  0.1796  0.7831
  173SAPI   C3719647   3.496   4.777   9.556  0.2100 -0.1995  0.0328
  173SAPI   H7X19648   3.599   4.816   9.572  0.3655  0.2710 -1.9148
  173SAPI   H7Y19649   3.427   4.863   9.567  0.1053 -0.0630 -1.4741
  173SAPI   C3819650   3.500   4.738   9.412 -0.4689  0.1830  0.2647
  173SAPI   H8X19651   3.596   4.692   9.381  0.0089  1.1373  0.3054
  173SAPI   H8Y19652   3.506   4.838   9.365 -0.6099  0.0735  0.0115
  173SAPI   C3919653   3.366   4.674   9.366 -0.3156  0.2799  0.0148
  173SAPI   H9X19654   3.291   4.704   9.442 -3.4134  0.8580 -3.0259
  173SAPI   H9Y19655   3.375   4.564   9.382  0.6896  0.1548 -1.2239
  173SAPI  C31019656   3.313   4.716   9.219 -0.2588 -0.2183  0.1453
  173SAPI  H10X19657   3.313   4.826   9.201  0.6300 -0.4530 -1.4466
  173SAPI  H10Y19658   3.209   4.678   9.211  0.3104 -1.5345 -1.5053
  173SAPI  C31119659   3.387   4.646   9.099  0.5829  0.2111 -0.2496
  173SAPI  H11X19660   3.316   4.657   9.014  1.2597  1.5684 -0.6728
  173SAPI  H11Y19661   3.398   4.541   9.134  0.5658  0.5408  0.7861
  173SAPI  C31219662   3.518   4.710   9.068 -0.4492 -0.5946  0.2036
  173SAPI  H12X19663   3.578   4.653   8.995  1.6245 -1.7743  2.6676
  173SAPI  H12Y19664   3.583   4.711   9.159 -3.5463  2.5444  2.6991
  173SAPI  C31319665   3.513   4.855   9.017  0.1878 -1.0093 -0.5343
  173SAPI  H13X19666   3.529   4.921   9.105 -0.9560  1.8042 -2.2886
  173SAPI  H13Y19667   3.408   4.870   8.983  0.3246 -0.7333 -0.8458
  173SAPI  C31419668   3.616   4.897   8.911 -0.0649  0.5803 -0.3192
  173SAPI  H14X19669   3.583   4.829   8.829  0.1377 -1.7220  1.3979
  173SAPI  H14Y19670   3.722   4.873   8.936 -0.2413  0.9861  0.8242
  173SAPI  C31519671   3.605   5.044   8.877 -0.3665 -1.2892 -0.9857
  173SAPI  H15X19672   3.607   5.087   8.980 -2.8467  0.8531 -1.7261
  173SAPI  H15Y19673   3.506   5.068   8.834  0.1250 -0.6695 -1.8091
  173SAPI  C31619674   3.719   5.108   8.783  0.0656  0.4437  0.6001
  173SAPI  H16X19675   3.813   5.077   8.834  0.7671  0.8946 -0.3759
  173SAPI  H16Y19676   3.706   5.218   8.788 -0.3130  0.6065 -2.1621
  173SAPI  C31719677   3.725   5.051   8.641  0.4453  0.0885  0.3527
  173SAPI  H17X19678   3.650   5.096   8.573 -1.1313 -0.7687  1.4620
  173SAPI  H17Y19679   3.692   4.945   8.642  0.5913 -0.0051  2.7972
  173SAPI  C31819680   3.869   5.053   8.587  0.0433 -0.1750  0.6461
  173SAPI  H18X19681   3.895   5.156   8.556  0.0864 -0.2354  0.4842
  173SAPI  H18Y19682   3.881   4.990   8.497 -1.0093  0.3572  0.1171
  173SAPI  H18Z19683   3.930   5.011   8.671 -1.2092  2.6412  3.1326
  174SAPI   C1219684   1.475   5.805  10.657  0.2535  0.2413  0.0582
  174SAPI    H219685   1.421   5.833  10.750 -1.0741  1.3368 -0.9967
  174SAPI    O219686   1.584   5.724  10.698  0.2329  1.4973  0.1663
  174SAPI   HO219687   1.635   5.793  10.742  0.2691  1.6911 -0.1727
  174SAPI   C1319688   1.383   5.733  10.558 -0.0571 -0.3774  0.4911
  174SAPI    H319689   1.296   5.802  10.551  0.2390 -0.1317 -1.6664
  174SAPI    O319690   1.327   5.615  10.610  0.3650  0.1031  0.1125
  174SAPI   HO319691   1.239   5.602  10.573 -0.0352  5.2622 -1.6825
  174SAPI   C1419692   1.448   5.712  10.422 -0.2220 -0.2716  0.2932
  174SAPI    H419693   1.530   5.643  10.448 -0.1886  0.0140  0.9789
  174SAPI    O419694   1.351   5.653  10.337  0.4755 -0.3015  0.0361
  174SAPI   HO419695   1.341   5.558  10.352  0.7925 -0.6299 -1.6791
  174SAPI   C1519696   1.501   5.840  10.363 -0.1178 -0.2039 -0.4853
  174SAPI    H519697   1.413   5.900  10.332 -0.4406 -1.3220 -1.8057
  174SAPI    O519698   1.576   5.822  10.247 -0.0925 -0.2690 -0.1347
  174SAPI   HO519699   1.626   5.904  10.240 -1.0623  1.1951  5.3857
  174SAPI   C1619700   1.589   5.909  10.465 -0.1563  0.1022  0.1626
  174SAPI    H619701   1.678   5.847  10.483 -0.3351  0.2689  1.7474
  174SAPI    O619702   1.621   6.033  10.413 -0.0315  0.2318  0.2382
  174SAPI   HO619703   1.580   6.103  10.465 -1.3017  0.8145 -1.4600
  174SAPI   C1119704   1.513   5.929  10.591  0.8791 -0.8108 -0.2848
  174SAPI    H119705   1.420   5.986  10.571  0.3857 -1.0457  1.1657
  174SAPI     P19706   1.552   6.149  10.742 -0.2114 -0.1015 -0.3479
  174SAPI   O1319707   1.645   6.187  10.848  0.0380 -0.4720 -0.7362
  174SAPI   O1419708   1.410   6.157  10.753 -0.6206 -0.3480  0.1606
  174SAPI   O1219709   1.583   5.997  10.690 -0.1739 -0.6775 -0.3107
  174SAPI   O1119710   1.598   6.227  10.614 -0.7493 -0.7787 -0.3965
  174SAPI    C119711   1.556   6.362  10.600 -0.1857  0.2994 -0.1338
  174SAPI    HA19712   1.519   6.413  10.692 -0.6953 -1.4342  0.6519
  174SAPI    HB19713   1.645   6.420  10.567 -0.5090 -0.6057 -2.9229
  174SAPI    C219714   1.456   6.379  10.485  0.3019  0.1824  0.7279
  174SAPI    HS19715   1.358   6.341  10.522 -0.9721  3.3117  0.8263
  174SAPI   O2119716   1.497   6.298  10.364  0.2170  0.1338 -0.1759
  174SAPI   C2119717   1.397   6.286  10.273  0.0746  0.2582 -0.5122
  174SAPI   O2219718   1.290   6.335  10.282  0.1528 -0.9033  0.1670
  174SAPI   C2219719   1.432   6.187  10.161 -0.3382 -0.5782 -0.1854
  174SAPI   H2R19720   1.461   6.090  10.205  0.2089 -0.8146 -1.0428
  174SAPI   H2S19721   1.345   6.170  10.094 -0.6041  0.9198 -0.2541
  174SAPI    C319722   1.442   6.533  10.439  0.4306  0.4532  0.2454
  174SAPI    HX19723   1.402   6.578  10.532 -0.6463 -2.1763  1.1628
  174SAPI    HY19724   1.368   6.568  10.364  0.1409  2.1800  1.2778
  174SAPI   O3119725   1.572   6.592  10.408 -0.0398  0.4713 -0.2309
  174SAPI   C3119726   1.577   6.717  10.415  0.5197  0.0028 -0.1795
  174SAPI   O3219727   1.484   6.791  10.444  0.0963  0.1872  0.0252
  174SAPI   C3219728   1.716   6.769  10.384 -0.1038  0.0922 -0.7311
  174SAPI   H2X19729   1.786   6.703  10.439 -1.4846  1.1161  2.5199
  174SAPI   H2Y19730   1.726   6.874  10.419 -0.9406 -0.3617  0.9713
  174SAPI   C2319731   1.549   6.238  10.072  0.2988  0.8622 -0.2554
  174SAPI   H3R19732   1.582   6.159  10.001 -0.3791  1.5034 -1.3209
  174SAPI   H3S19733   1.638   6.246  10.137 -1.4174 -0.0535  2.3947
  174SAPI   C2419734   1.514   6.356   9.983 -0.0310 -0.6645 -0.0753
  174SAPI   H4R19735   1.468   6.440  10.040  0.9231 -1.0430  1.2910
  174SAPI   H4S19736   1.449   6.331   9.896  0.5714  0.1350 -0.7739
  174SAPI   C2519737   1.644   6.420   9.946  0.0216  0.2808  0.6356
  174SAPI   H5R19738   1.712   6.429  10.032 -0.4690 -0.5186  1.1100
  174SAPI   C2619739   1.684   6.456   9.819 -0.7573 -0.3665 -0.1408
  174SAPI   H6R19740   1.782   6.504   9.810 -1.0120 -0.2190 -2.8428
  174SAPI   C2719741   1.625   6.447   9.685  0.1213  0.2653  0.0223
  174SAPI   H7R19742   1.632   6.545   9.633  0.0302  0.6334  0.7007
  174SAPI   H7S19743   1.517   6.421   9.688  0.1980 -0.0374  3.2420
  174SAPI   C2819744   1.701   6.343   9.599  0.2048  0.7023  0.0490
  174SAPI   H8R19745   1.736   6.254   9.653  2.0122  2.4392  1.9347
  174SAPI   C2919746   1.733   6.349   9.468 -0.4871 -0.2306 -0.8627
  174SAPI   H9R19747   1.769   6.257   9.418 -1.9171 -0.6056 -1.2520
  174SAPI  C21019748   1.700   6.463   9.366 -0.2265  0.0838  0.0794
  174SAPI  H10R19749   1.755   6.553   9.401  1.7404 -0.2942 -1.8078
  174SAPI  H10S19750   1.591   6.484   9.364 -0.0980  0.7269 -1.9078
  174SAPI  C21119751   1.740   6.425   9.223  0.0618 -0.2425 -0.4633
  174SAPI  H11R19752   1.848   6.443   9.216  0.1080  0.4451  1.3833
  174SAPI  C21219753   1.661   6.403   9.111  0.7423 -0.3067 -0.2755
  174SAPI  H12R19754   1.697   6.395   9.007 -1.0566  0.6382 -1.0153
  174SAPI  C21319755   1.513   6.396   9.105  0.0297 -0.4711 -0.2217
  174SAPI  H13R19756   1.461   6.455   9.184 -2.7635 -2.7849 -0.1377
  174SAPI  H13S19757   1.477   6.296   9.137  0.7441  0.4669  4.0889
  174SAPI  C21419758   1.451   6.433   8.970  0.0105  0.1374  0.4918
  174SAPI  H14R19759   1.420   6.538   8.960 -0.7848 -0.1775 -0.5255
  174SAPI  C21519760   1.432   6.353   8.864  0.2212  0.1968 -0.0615
  174SAPI  H15R19761   1.382   6.382   8.770 -0.9441  0.9555  0.7615
  174SAPI  C21619762   1.476   6.210   8.865  0.5077  0.3173 -0.4444
  174SAPI  H16R19763   1.415   6.159   8.943  1.2258  1.6040  1.0124
  174SAPI  H16S19764   1.576   6.203   8.914  0.0618  0.6497  0.5405
  174SAPI  C21719765   1.460   6.121   8.742 -0.0871 -0.2749  0.4639
  174SAPI  H17R19766   1.356   6.124   8.703 -0.3989  2.2903  1.3262
  174SAPI  H17S19767   1.471   6.015   8.774 -4.6106 -1.6512 -1.7504
  174SAPI  C21819768   1.564   6.145   8.637  0.3588 -0.6278  0.3303
  174SAPI  H18R19769   1.558   6.063   8.563 -3.6080  0.6351 -0.9782
  174SAPI  H18S19770   1.665   6.138   8.685  0.7351  2.7508  0.2959
  174SAPI  C21919771   1.559   6.278   8.552  1.0323 -0.3437  0.6192
  174SAPI  H19R19772   1.572   6.370   8.614 -2.1381 -0.2567  1.3159
  174SAPI  H19S19773   1.456   6.289   8.512  1.3658  1.7536  0.1989
  174SAPI  C22019774   1.655   6.259   8.441 -0.1000  0.0105 -0.3141
  174SAPI  H20R19775   1.653   6.321   8.349 -0.7274 -1.1670 -1.1198
  174SAPI  H20S19776   1.662   6.158   8.396 -0.7400  0.1613 -0.7707
  174SAPI  H20T19777   1.757   6.283   8.478 -0.8938  3.2284  0.1197
  174SAPI   C3319778   1.746   6.740  10.235  0.0686 -0.0713  0.8066
  174SAPI   H3X19779   1.673   6.794  10.172 -4.0673 -4.1510  1.5954
  174SAPI   H3Y19780   1.728   6.636  10.200 -3.7769  0.8882 -0.4594
  174SAPI   C3419781   1.893   6.782  10.204  0.1027 -0.1195  0.1765
  174SAPI   H4X19782   1.963   6.702  10.237 -1.5108 -2.1603 -1.1148
  174SAPI   H4Y19783   1.925   6.870  10.264 -2.2777  0.7405  0.2778
  174SAPI   C3519784   1.930   6.797  10.055  0.0951 -0.0105  0.0822
  174SAPI   H5X19785   1.922   6.700  10.002 -0.1518  0.4799 -0.8077
  174SAPI   H5Y19786   2.035   6.832  10.054  0.4789 -1.0665  1.0858
  174SAPI   C3619787   1.833   6.895   9.972  0.0425  0.0551 -0.7917
  174SAPI   H6X19788   1.822   6.992  10.024 -0.9299 -0.4289 -0.0560
  174SAPI   H6Y19789   1.732   6.848   9.975  1.0557 -2.2223 -0.3867
  174SAPI   C3719790   1.880   6.920   9.823  0.3391  0.4264 -0.6393
  174SAPI   H7X19791   1.991   6.928   9.826  0.2381  2.0150  0.8089
  174SAPI   H7Y19792   1.848   7.020   9.785  0.0826  0.4517 -0.3662
  174SAPI   C3819793   1.843   6.807   9.725  0.1192  0.0951  0.0680
  174SAPI   H8X19794   1.733   6.795   9.715  0.2750  0.0896 -2.2038
  174SAPI   H8Y19795   1.884   6.711   9.761  3.4741  1.7133  1.0558
  174SAPI   C3919796   1.890   6.836   9.583  0.0551 -1.0271  0.5713
  174SAPI   H9X19797   1.877   6.745   9.521 -0.8820  0.9984 -2.4532
  174SAPI   H9Y19798   1.995   6.867   9.602 -0.7993  0.4182  3.5725
  174SAPI  C31019799   1.806   6.948   9.507  0.4476  0.0823  0.1624
  174SAPI  H10X19800   1.778   7.019   9.588 -1.3652  1.1348 -1.3017
  174SAPI  H10Y19801   1.711   6.906   9.467 -1.4117  4.0714 -0.1267
  174SAPI  C31119802   1.891   7.023   9.398  0.0564 -0.5161 -1.4412
  174SAPI  H11X19803   1.976   7.078   9.444 -1.9376  1.6471 -0.1627
  174SAPI  H11Y19804   1.825   7.103   9.360 -2.1199 -0.8974  1.2840
  174SAPI  C31219805   1.940   6.929   9.297 -0.2789  0.3195  0.1026
  174SAPI  H12X19806   1.850   6.878   9.258  0.9231 -2.0292  0.1654
  174SAPI  H12Y19807   2.009   6.849   9.334 -1.5428 -0.3111  1.1590
  174SAPI  C31319808   2.019   7.010   9.187  0.4930  0.4758  0.1601
  174SAPI  H13X19809   2.108   7.056   9.236 -0.4690  1.9403  0.6236
  174SAPI  H13Y19810   1.958   7.090   9.141 -1.7910 -0.4564  1.4072
  174SAPI  C31419811   2.067   6.921   9.073 -0.0698 -0.4152 -0.4398
  174SAPI  H14X19812   1.979   6.860   9.043 -1.2003  0.4475  0.9923
  174SAPI  H14Y19813   2.149   6.867   9.125  0.3238  0.2616 -0.3487
  174SAPI  C31519814   2.134   6.994   8.951 -0.0790  0.1538 -0.7227
  174SAPI  H15X19815   2.215   7.061   8.987 -0.2135  0.6211 -1.2648
  174SAPI  H15Y19816   2.066   7.060   8.893  0.0421  1.5553  0.6650
  174SAPI  C31619817   2.186   6.892   8.857 -0.3280  0.1664 -0.3428
  174SAPI  H16X19818   2.235   6.811   8.915  1.4902  1.1342 -0.4641
  174SAPI  H16Y19819   2.270   6.933   8.797  0.7689  0.8415  1.5610
  174SAPI  C31719820   2.081   6.831   8.754 -0.0655 -0.3956 -0.2038
  174SAPI  H17X19821   2.021   6.916   8.714 -0.1639 -0.7153 -0.7450
  174SAPI  H17Y19822   2.005   6.761   8.796  0.0723 -2.0543 -2.5326
  174SAPI  C31819823   2.144   6.757   8.635 -0.1629 -0.1118 -0.0354
  174SAPI  H18X19824   2.067   6.727   8.561  0.0703 -1.2679  0.1716
  174SAPI  H18Y19825   2.197   6.670   8.680 -2.2145 -0.8270  1.1237
  174SAPI  H18Z19826   2.215   6.828   8.588 -3.9630  3.2188 -1.2598
  175SAPI   C1219827   4.702   1.640   6.075 -0.9474 -0.5268  0.2030
  175SAPI    H219828   4.738   1.569   6.153 -0.4408 -1.0499 -0.4887
  175SAPI    O219829   4.735   1.777   6.106 -0.3822  0.1855 -0.0977
  175SAPI   HO219830   4.661   1.808   6.159 -0.6816  2.5657 -1.7246
  175SAPI   C1319831   4.763   1.590   5.940 -0.0032  0.2783  0.1712
  175SAPI    H319832   4.743   1.482   5.925 -0.2895  0.0341  2.0506
  175SAPI    O319833   4.907   1.605   5.950  0.5469  0.3511 -0.2057
  175SAPI   HO319834   4.955   1.532   5.911  1.6506  0.6017  0.6614
  175SAPI   C1419835   4.705   1.666   5.824  0.1820  0.4365 -0.1554
  175SAPI    H419836   4.736   1.773   5.820 -1.2581  0.9859  1.9881
  175SAPI    O419837   4.757   1.612   5.700 -0.1480  0.0123  0.2964
  175SAPI   HO419838   4.738   1.683   5.638  0.2703  0.0730  0.2308
  175SAPI   C1519839   4.555   1.656   5.833  0.2531  0.0646  1.2839
  175SAPI    H519840   4.525   1.549   5.825  2.1335 -0.3734 -2.9693
  175SAPI    O519841   4.488   1.722   5.721  0.1618  0.7910 -0.3348
  175SAPI   HO519842   4.477   1.816   5.736 -5.0211  0.3367  0.7364
  175SAPI   C1619843   4.493   1.703   5.964  0.5742 -0.5705  0.0851
  175SAPI    H619844   4.516   1.811   5.975 -4.4202  0.9511 -1.9527
  175SAPI    O619845   4.350   1.702   5.967  0.5655 -0.1680  0.2427
  175SAPI   HO619846   4.327   1.733   6.055  0.9916 -0.3038  0.4056
  175SAPI   C1119847   4.550   1.620   6.080  0.1938  0.3279  0.7067
  175SAPI    H119848   4.536   1.512   6.058  1.0743  0.2664  0.3647
  175SAPI     P19849   4.533   1.591   6.357  0.4326 -0.0788 -0.0403
  175SAPI   O1319850   4.600   1.687   6.444  0.0886  0.1998 -0.3543
  175SAPI   O1419851   4.595   1.454   6.333  0.4304 -0.8873 -0.0237
  175SAPI   O1219852   4.507   1.666   6.211  0.7855  0.6462 -0.2190
  175SAPI   O1119853   4.379   1.573   6.403  0.0511  0.4129  0.5075
  175SAPI    C119854   4.308   1.688   6.452  0.4195 -0.0852 -0.6550
  175SAPI    HA19855   4.357   1.781   6.416 -0.9138  1.2549  0.8550
  175SAPI    HB19856   4.207   1.689   6.406  0.0680  0.0516  0.1097
  175SAPI    C219857   4.291   1.678   6.608  0.0832 -0.4772 -0.3286
  175SAPI    HS19858   4.212   1.754   6.631  1.3738  1.1522 -1.0890
  175SAPI   O2119859   4.414   1.703   6.675  0.6408 -0.5775 -0.8452
  175SAPI   C2119860   4.449   1.830   6.683 -0.3424  0.5138 -0.5786
  175SAPI   O2219861   4.386   1.929   6.651  0.3347  0.3813 -0.2098
  175SAPI   C2219862   4.585   1.839   6.751 -0.1305  0.3404  0.3960
  175SAPI   H2R19863   4.631   1.738   6.759 -0.9584 -0.1362 -0.6526
  175SAPI   H2S19864   4.645   1.894   6.675 -0.8388  0.6609  0.0677
  175SAPI    C319865   4.240   1.534   6.658 -0.5327 -0.6230  0.2296
  175SAPI    HX19866   4.325   1.464   6.662  0.2358  0.3176  0.8696
  175SAPI    HY19867   4.175   1.506   6.572  1.8640 -1.7125 -1.3109
  175SAPI   O3119868   4.165   1.538   6.785  0.2430 -0.7597 -0.4147
  175SAPI   C3119869   4.229   1.510   6.894 -0.3666  1.1965  0.5362
  175SAPI   O3219870   4.352   1.512   6.908  0.3285  0.0224  0.8420
  175SAPI   C3219871   4.131   1.481   7.007 -0.1624  0.3826  0.2122
  175SAPI   H2X19872   4.091   1.378   7.009 -0.6575  0.5657 -0.0579
  175SAPI   H2Y19873   4.041   1.546   7.005 -0.6179 -0.2610 -1.2298
  175SAPI   C2319874   4.594   1.921   6.879 -0.9274 -0.0015  0.5274
  175SAPI   H3R19875   4.542   1.860   6.957 -1.9761 -0.3451 -0.4110
  175SAPI   H3S19876   4.540   2.017   6.865 -0.1124  0.3739 -0.1218
  175SAPI   C2419877   4.734   1.955   6.928 -0.2322 -0.0721 -0.2973
  175SAPI   H4R19878   4.789   1.992   6.839  1.3177 -0.7440  0.3485
  175SAPI   H4S19879   4.786   1.862   6.961  0.0406  1.2522  3.5074
  175SAPI   C2519880   4.745   2.056   7.042 -0.2991  0.4844 -0.1189
  175SAPI   H5R19881   4.769   2.161   7.019 -0.2122  0.6011  0.4917
  175SAPI   C2619882   4.715   2.024   7.171  0.7231 -0.0003 -0.4731
  175SAPI   H6R19883   4.690   2.100   7.247  1.0767 -0.6661  0.3173
  175SAPI   C2719884   4.673   1.890   7.222 -0.6855 -0.8197 -0.7463
  175SAPI   H7R19885   4.707   1.809   7.153  0.0465 -1.3663  0.2301
  175SAPI   H7S19886   4.564   1.900   7.241 -0.0674  2.7597  2.1127
  175SAPI   C2819887   4.740   1.860   7.355  0.0109 -0.2225  0.2537
  175SAPI   H8R19888   4.835   1.810   7.333 -0.3478 -1.4054  1.2718
  175SAPI   C2919889   4.699   1.869   7.485  0.6289  0.2050 -0.0047
  175SAPI   H9R19890   4.770   1.833   7.561  1.0547 -2.2349 -1.4495
  175SAPI  C21019891   4.566   1.925   7.524 -0.7220 -1.2379 -1.1447
  175SAPI  H10R19892   4.505   1.969   7.442 -0.4744 -0.3178 -0.8417
  175SAPI  H10S19893   4.600   2.010   7.587  3.1568 -0.3287 -4.0932
  175SAPI  C21119894   4.477   1.823   7.581  0.2541 -0.0120  0.7122
  175SAPI  H11R19895   4.483   1.730   7.523 -1.5098  0.9296 -1.1341
  175SAPI  C21219896   4.379   1.833   7.678 -0.5660  0.2912  0.5680
  175SAPI  H12R19897   4.328   1.740   7.707 -2.0202  0.3236 -1.6189
  175SAPI  C21319898   4.340   1.945   7.771  0.0469  0.1399  0.0971
  175SAPI  H13R19899   4.415   2.027   7.772  0.2470 -0.0368  1.1992
  175SAPI  H13S19900   4.343   1.905   7.875  0.3278 -0.6276 -0.1966
  175SAPI  C21419901   4.208   2.009   7.735  0.1352 -0.1985  0.2470
  175SAPI  H14R19902   4.199   2.014   7.625  2.0831  3.2459  0.0739
  175SAPI  C21519903   4.126   2.075   7.823  0.2592  0.4710  0.4282
  175SAPI  H15R19904   4.032   2.124   7.792 -1.4278 -2.9713 -0.3340
  175SAPI  C21619905   4.160   2.110   7.968 -0.3265  0.2331  0.5570
  175SAPI  H16R19906   4.261   2.082   8.006 -0.5152  1.7001  2.2223
  175SAPI  H16S19907   4.098   2.045   8.033 -1.8242  1.2891  0.2470
  175SAPI  C21719908   4.117   2.247   8.008 -0.1512 -0.7076 -0.3648
  175SAPI  H17R19909   4.017   2.265   7.964 -0.5490  0.9184  1.0961
  175SAPI  H17S19910   4.188   2.309   7.949  0.0922 -0.5856  0.0541
  175SAPI  C21819911   4.135   2.292   8.151  0.3038  0.5798  0.2585
  175SAPI  H18R19912   4.241   2.287   8.185 -0.2906 -0.1105  2.1644
  175SAPI  H18S19913   4.094   2.215   8.220 -0.4309  1.8077  1.2162
  175SAPI  C21919914   4.080   2.429   8.162 -0.0805 -0.5116  1.1046
  175SAPI  H19R19915   3.983   2.432   8.109  0.2825 -0.8645  0.4044
  175SAPI  H19S19916   4.148   2.494   8.102 -0.0401 -1.3582  0.2025
  175SAPI  C22019917   4.060   2.479   8.314  0.2068  0.6975  0.0878
  175SAPI  H20R19918   4.015   2.581   8.317 -2.0215 -0.1576 -1.2976
  175SAPI  H20S19919   4.155   2.474   8.371 -0.9779 -0.2891  2.0862
  175SAPI  H20T19920   3.992   2.405   8.362  0.3969  0.4352 -0.0423
  175SAPI   C3319921   4.203   1.493   7.148  0.6224 -0.3897 -0.3581
  175SAPI   H3X19922   4.263   1.586   7.136 -0.5739  0.1722 -2.6148
  175SAPI   H3Y19923   4.276   1.411   7.165 -1.1871 -2.7868 -3.2657
  175SAPI   C3419924   4.105   1.523   7.254  0.1406  0.0698  0.0215
  175SAPI   H4X19925   4.032   1.441   7.270 -0.5006  0.5946 -0.1153
  175SAPI   H4Y19926   4.049   1.618   7.239  0.0373  0.1045  0.5793
  175SAPI   C3519927   4.182   1.534   7.384 -0.3154 -0.3168 -0.5482
  175SAPI   H5X19928   4.208   1.639   7.408 -0.3435 -0.5953  0.7807
  175SAPI   H5Y19929   4.266   1.463   7.400  0.6735  1.1531  1.1672
  175SAPI   C3619930   4.082   1.491   7.495 -0.1257  0.1178 -0.3046
  175SAPI   H6X19931   4.057   1.382   7.497  1.4847 -0.3067 -1.3932
  175SAPI   H6Y19932   3.989   1.543   7.465  1.0974  1.9081 -1.1568
  175SAPI   C3719933   4.119   1.529   7.641 -0.3032 -0.1559  0.9822
  175SAPI   H7X19934   4.128   1.638   7.661  2.0896 -0.5524  2.5363
  175SAPI   H7Y19935   4.221   1.489   7.658  0.4710  0.5410 -1.6368
  175SAPI   C3819936   4.011   1.484   7.739 -0.5230  0.1146 -0.4140
  175SAPI   H8X19937   3.988   1.377   7.723 -1.7201  0.0047  1.6675
  175SAPI   H8Y19938   3.919   1.540   7.713 -2.2989 -1.6318  1.7364
  175SAPI   C3919939   4.053   1.517   7.880  0.1751 -0.3813  0.0000
  175SAPI   H9X19940   4.157   1.485   7.907  0.6985  1.4595  0.2944
  175SAPI   H9Y19941   3.979   1.476   7.953 -0.9196 -0.1547 -0.9653
  175SAPI  C31019942   4.068   1.673   7.905 -0.0058  0.6522 -0.3745
  175SAPI  H10X19943   3.992   1.726   7.843  0.2968  0.7821 -0.6383
  175SAPI  H10Y19944   4.169   1.714   7.883 -0.1886  0.3930 -1.7809
  175SAPI  C31119945   4.037   1.714   8.054  0.3269 -0.4953  0.3053
  175SAPI  H11X19946   3.946   1.656   8.082 -0.7569 -0.2676 -2.4291
  175SAPI  H11Y19947   4.032   1.825   8.060  0.1345 -0.5298  0.8624
  175SAPI  C31219948   4.156   1.681   8.145  0.0169 -0.2850  0.6758
  175SAPI  H12X19949   4.251   1.699   8.091 -0.7534  2.0142 -0.0096
  175SAPI  H12Y19950   4.149   1.572   8.167  0.7792 -0.7634 -1.2619
  175SAPI  C31319951   4.156   1.764   8.275 -0.3199 -0.1377 -0.2288
  175SAPI  H13X19952   4.159   1.873   8.256 -0.0503 -0.1633 -0.3296
  175SAPI  H13Y19953   4.235   1.734   8.347 -0.5844 -0.2215  0.0300
  175SAPI  C31419954   4.026   1.742   8.353 -0.2573  0.1714 -0.4099
  175SAPI  H14X19955   3.939   1.768   8.289  0.5588  1.0845 -1.1758
  175SAPI  H14Y19956   4.026   1.804   8.445  0.9552  1.1306 -1.0171
  175SAPI  C31519957   4.006   1.595   8.392 -0.2556  0.2067  0.3031
  175SAPI  H15X19958   4.099   1.551   8.433  0.4235 -1.0393 -2.4036
  175SAPI  H15Y19959   3.969   1.550   8.297 -1.2174  0.9142  0.3201
  175SAPI  C31619960   3.893   1.566   8.495  0.1504  0.8051  0.2644
  175SAPI  H16X19961   3.913   1.612   8.594  0.4512 -0.5198  0.8521
  175SAPI  H16Y19962   3.909   1.457   8.515  1.0799  0.7404 -0.7105
  175SAPI  C31719963   3.751   1.588   8.432  0.2430  0.0325 -0.1470
  175SAPI  H17X19964   3.759   1.529   8.337  1.7849  0.4934 -0.3400
  175SAPI  H17Y19965   3.742   1.694   8.400 -0.0642  0.3725  1.0232
  175SAPI  C31819966   3.635   1.536   8.514  0.3887 -0.3837  0.2726
  175SAPI  H18X19967   3.537   1.575   8.478 -0.2469 -1.3086  0.9733
  175SAPI  H18Y19968   3.636   1.571   8.619  0.5839  1.4536 -0.3068
  175SAPI  H18Z19969   3.636   1.425   8.520  0.6110 -0.6311 -2.8110
  176SAPI   C1219970   2.713   0.444   6.263 -0.8400 -0.1436  0.2009
  176SAPI    H219971   2.698   0.499   6.359  1.7339 -0.7505  1.0571
  176SAPI    O219972   2.610   0.352   6.248  0.3260  0.4387 -0.3433
  176SAPI   HO219973   2.649   0.267   6.269 -1.7743 -0.9508 -1.6077
  176SAPI   C1319974   2.720   0.542   6.142 -0.3524 -0.4218  0.0458
  176SAPI    H319975   2.795   0.622   6.163 -0.6309  0.2014 -1.2271
  176SAPI    O319976   2.602   0.620   6.129 -0.2655 -0.1261  0.1970
  176SAPI   HO319977   2.531   0.556   6.121 -0.9282  0.5774  0.3306
  176SAPI   C1419978   2.766   0.471   6.020  0.0545 -0.4073  0.2673
  176SAPI    H419979   2.696   0.388   5.993  1.3048 -1.4434  0.1167
  176SAPI    O419980   2.759   0.566   5.909  0.4091  0.4119 -0.0968
  176SAPI   HO419981   2.819   0.533   5.842  0.3291  2.0380 -1.0346
  176SAPI   C1519982   2.903   0.405   6.033  0.5259  0.5174 -0.1111
  176SAPI    H519983   2.985   0.476   6.055  0.8228  0.5521 -1.2595
  176SAPI    O519984   2.932   0.339   5.910  0.6058 -0.1382  0.1482
  176SAPI   HO519985   3.017   0.294   5.916  1.1338  0.6817 -0.7974
  176SAPI   C1619986   2.892   0.306   6.150  0.1001  0.8914  0.9426
  176SAPI    H619987   2.818   0.229   6.121 -0.7126  1.2003  2.1072
  176SAPI    O619988   3.021   0.243   6.172  0.6139  0.1444 -1.0068
  176SAPI   HO619989   3.063   0.299   6.238 -2.8849  1.7568  0.1114
  176SAPI   C1119990   2.851   0.374   6.277 -0.0267  0.3258 -0.3450
  176SAPI    H119991   2.927   0.453   6.289  0.3986 -0.1088 -0.1507
  176SAPI     P19992   2.863   0.347   6.540  0.0776  0.4811 -0.1937
  176SAPI   O1319993   2.906   0.486   6.541 -0.1240 -0.2050  0.2374
  176SAPI   O1419994   2.927   0.261   6.644  0.1400  0.0294 -0.3460
  176SAPI   O1219995   2.841   0.285   6.390 -0.2027  0.2685 -0.0323
  176SAPI   O1119996   2.708   0.351   6.568  0.1438  0.0997 -0.4442
  176SAPI    C119997   2.645   0.456   6.635  0.1348  0.0883  0.0451
  176SAPI    HA19998   2.693   0.555   6.622 -1.1667  0.6419 -0.6399
  176SAPI    HB19999   2.541   0.466   6.598  0.6087 -0.5651 -1.5709
  176SAPI    C220000   2.636   0.435   6.793 -0.8047  0.0070  0.0877
  176SAPI    HS20001   2.559   0.506   6.831 -0.6238 -0.2429  0.9389
  176SAPI   O2120002   2.760   0.443   6.857 -0.3806  0.0497 -0.5064
  176SAPI   C2120003   2.807   0.568   6.863 -0.2744 -0.2184 -0.8677
  176SAPI   O2220004   2.745   0.667   6.836 -0.4331 -0.1388 -0.0256
  176SAPI   C2220005   2.952   0.569   6.904 -0.5092 -0.1875 -0.0789
  176SAPI   H2R20006   3.002   0.469   6.910 -0.3266 -0.0496  0.9012
  176SAPI   H2S20007   3.006   0.610   6.816 -1.8007 -0.5078 -1.0497
  176SAPI    C320008   2.578   0.297   6.829 -0.3145 -0.1310  0.3065
  176SAPI    HX20009   2.623   0.207   6.782 -0.1727  0.7224 -1.3021
  176SAPI    HY20010   2.474   0.303   6.789 -0.7527  0.0108  1.4441
  176SAPI   O3120011   2.577   0.269   6.968  0.1937 -0.0163 -0.8234
  176SAPI   C3120012   2.463   0.208   7.010  0.1113  0.1348  0.0598
  176SAPI   O3220013   2.373   0.166   6.934 -0.7367  0.0610 -0.1792
  176SAPI   C3220014   2.456   0.205   7.160  0.2032 -0.4362 -0.8304
  176SAPI   H2X20015   2.481   0.305   7.202  2.3590 -0.3858 -2.0697
  176SAPI   H2Y20016   2.534   0.134   7.195 -0.3943 -0.7103  0.0044
  176SAPI   C2320017   2.980   0.661   7.019  0.6751  0.5450 -0.0440
  176SAPI   H3R20018   2.943   0.765   7.007 -1.5843  0.3080  3.2629
  176SAPI   H3S20019   3.091   0.672   7.019  1.1886 -3.3320 -1.1664
  176SAPI   C2420020   2.922   0.624   7.159  0.1318  0.0534  0.2614
  176SAPI   H4R20021   2.952   0.698   7.236  0.9086 -0.6325  0.6414
  176SAPI   H4S20022   2.968   0.525   7.180  0.3641 -0.3568 -1.9188
  176SAPI   C2520023   2.772   0.620   7.165  0.2545 -0.1344 -0.0552
  176SAPI   H5R20024   2.717   0.702   7.117  1.2039  0.5333 -0.0264
  176SAPI   C2620025   2.687   0.526   7.230 -0.3576 -0.4050  0.4375
  176SAPI   H6R20026   2.579   0.544   7.222 -0.1161  0.7146 -0.6230
  176SAPI   C2720027   2.722   0.402   7.302 -0.2171  0.1384 -0.7117
  176SAPI   H7R20028   2.806   0.355   7.246 -0.5198 -2.3432  0.7860
  176SAPI   H7S20029   2.646   0.323   7.289  0.2650 -0.3687 -0.4928
  176SAPI   C2820030   2.747   0.423   7.450 -1.0001 -0.0189  0.1492
  176SAPI   H8R20031   2.842   0.471   7.478 -1.1347  0.1970  0.2391
  176SAPI   C2920032   2.672   0.370   7.554 -0.9374  0.3283 -0.1756
  176SAPI   H9R20033   2.699   0.396   7.658 -1.0677  1.7730 -0.4893
  176SAPI  C21020034   2.539   0.291   7.552  0.1499  0.0227 -0.1889
  176SAPI  H10R20035   2.496   0.296   7.449 -0.3543 -1.0264 -0.0455
  176SAPI  H10S20036   2.465   0.350   7.609  0.5005 -1.4116  1.8573
  176SAPI  C21120037   2.551   0.149   7.589 -0.3410 -0.2273 -0.0381
  176SAPI  H11R20038   2.618   0.091   7.525 -1.7305 -2.3416  0.3087
  176SAPI  C21220039   2.496   0.089   7.690 -0.4085  0.3154 -0.5160
  176SAPI  H12R20040   2.529  -0.011   7.723 -0.4526  0.4703  0.0179
  176SAPI  C21320041   2.402   0.152   7.793 -0.5194 -0.2130 -0.4280
  176SAPI  H13R20042   2.350   0.236   7.742 -1.6701 -0.8029 -0.2542
  176SAPI  H13S20043   2.469   0.194   7.871 -0.4454 -0.6541 -0.2521
  176SAPI  C21420044   2.295   0.053   7.843 -0.0521  0.1955  0.8226
  176SAPI  H14R20045   2.247   0.002   7.759  0.3472  0.9024  0.1517
  176SAPI  C21520046   2.261   0.027   7.968 -0.5262  0.4696 -0.8976
  176SAPI  H15R20047   2.186  -0.050   7.991 -1.2044  1.5375  0.6179
  176SAPI  C21620048   2.335   0.092   8.091  0.5106 -0.8341 -0.6762
  176SAPI  H16R20049   2.405   0.175   8.070 -2.8890  2.3783 -0.3006
  176SAPI  H16S20050   2.394   0.020   8.153 -0.2175 -0.1477  0.8636
  176SAPI  C21720051   2.234   0.177   8.179  0.2048  0.1385  0.5811
  176SAPI  H17R20052   2.146   0.114   8.203 -0.9733  1.5634  0.1195
  176SAPI  H17S20053   2.198   0.267   8.126 -1.7922 -1.0663 -0.2210
  176SAPI  C21820054   2.298   0.216   8.314 -0.4413 -0.6210 -0.7704
  176SAPI  H18R20055   2.397   0.265   8.301 -0.6886 -0.5848 -2.7639
  176SAPI  H18S20056   2.306   0.123   8.375 -1.0482 -1.1178 -1.4281
  176SAPI  C21920057   2.208   0.318   8.386  0.1888 -0.3709  0.4891
  176SAPI  H19R20058   2.163   0.399   8.325 -3.1556  0.7496  4.0352
  176SAPI  H19S20059   2.262   0.365   8.472  2.6581 -2.9652  0.4872
  176SAPI  C22020060   2.083   0.249   8.444 -0.0512  0.4304  0.5460
  176SAPI  H20R20061   2.128   0.166   8.501 -1.0082  1.1792  2.4654
  176SAPI  H20S20062   2.014   0.213   8.365 -2.5505 -1.6799  3.4930
  176SAPI  H20T20063   2.034   0.314   8.520  0.5041  1.7508 -0.1865
  176SAPI   C3320064   2.318   0.162   7.213 -0.0763 -0.1501  0.1009
  176SAPI   H3X20065   2.235   0.219   7.166  0.9369 -0.7230 -2.5526
  176SAPI   H3Y20066   2.314   0.185   7.322  1.7542 -0.6978  0.3243
  176SAPI   C3420067   2.296   0.008   7.200  0.1404  1.2170  0.8118
  176SAPI   H4X20068   2.377  -0.034   7.264 -0.3570 -1.2940 -0.0841
  176SAPI   H4Y20069   2.327  -0.007   7.095 -0.5428 -0.6969  0.8403
  176SAPI   C3520070   2.156  -0.044   7.230  0.2327  0.0984 -0.4357
  176SAPI   H5X20071   2.149  -0.145   7.183 -0.2157 -0.9593  1.7714
  176SAPI   H5Y20072   2.075   0.024   7.197  0.6150  0.7216 -0.0953
  176SAPI   C3620073   2.145  -0.065   7.380 -0.0268  0.8194 -0.1860
  176SAPI   H6X20074   2.080   0.014   7.423 -1.9537  0.0190 -1.4762
  176SAPI   H6Y20075   2.244  -0.077   7.429  0.5828  2.2876 -1.0128
  176SAPI   C3720076   2.057  -0.184   7.419 -0.0682 -0.3323 -0.4095
  176SAPI   H7X20077   2.104  -0.274   7.375  3.2001  1.1079 -0.0994
  176SAPI   H7Y20078   1.960  -0.181   7.365 -0.0820 -3.5033 -0.7363
  176SAPI   C3820079   2.035  -0.197   7.571 -0.2952  0.1624  0.9957
  176SAPI   H8X20080   1.957  -0.126   7.608 -1.1085  0.7755 -1.6211
  176SAPI   H8Y20081   2.127  -0.174   7.627 -0.2608 -0.5457  1.2383
  176SAPI   C3920082   1.979  -0.336   7.606  0.1273  0.3360  0.1555
  176SAPI   H9X20083   2.060  -0.411   7.592 -1.0755 -1.0296  0.2528
  176SAPI   H9Y20084   1.892  -0.362   7.543 -1.1618  1.3095  1.4766
  176SAPI  C31020085   1.934  -0.323   7.752  0.0747 -0.0298  0.5924
  176SAPI  H10X20086   1.893  -0.418   7.791 -2.2003  0.7186  0.2284
  176SAPI  H10Y20087   1.851  -0.249   7.749 -0.2248 -0.3809  0.1004
  176SAPI  C31120088   2.044  -0.275   7.858 -0.5895  0.0132 -0.0301
  176SAPI  H11X20089   2.081  -0.176   7.823 -3.3952  0.6133 -1.6172
  176SAPI  H11Y20090   2.125  -0.348   7.879  0.3645  1.2763  0.7955
  176SAPI  C31220091   1.978  -0.256   7.993  0.3709  0.0844 -0.6115
  176SAPI  H12X20092   2.059  -0.218   8.058 -1.7587  1.0828  1.6281
  176SAPI  H12Y20093   1.943  -0.354   8.034  1.1353 -0.4142 -1.1173
  176SAPI  C31320094   1.850  -0.166   7.995 -0.9483 -0.5795 -1.0520
  176SAPI  H13X20095   1.774  -0.212   7.929 -1.5632 -1.2521  0.0803
  176SAPI  H13Y20096   1.879  -0.069   7.951 -3.3060  0.3658 -0.6533
  176SAPI  C31420097   1.784  -0.135   8.127  0.0624 -0.1373 -0.4353
  176SAPI  H14X20098   1.750  -0.237   8.153 -0.4689 -0.0724 -0.8576
  176SAPI  H14Y20099   1.694  -0.076   8.099  0.2515  1.4238  2.0273
  176SAPI  C31520100   1.870  -0.081   8.243 -0.0373 -0.3614 -0.2896
  176SAPI  H15X20101   1.943  -0.010   8.197 -2.0565  0.9351 -1.6432
  176SAPI  H15Y20102   1.932  -0.167   8.276 -0.9261 -1.4821 -1.4524
  176SAPI  C31620103   1.789  -0.028   8.357  0.1887 -0.7388 -0.3005
  176SAPI  H16X20104   1.700   0.024   8.314  1.0474 -0.3605 -1.7037
  176SAPI  H16Y20105   1.845   0.053   8.409  0.5913 -1.8799  1.1000
  176SAPI  C31720106   1.742  -0.144   8.448  0.1177 -0.1769 -0.1665
  176SAPI  H17X20107   1.825  -0.204   8.492 -0.5293 -0.7430  0.3033
  176SAPI  H17Y20108   1.675  -0.215   8.396 -0.0411  0.5048 -0.9292
  176SAPI  C31820109   1.656  -0.106   8.566  0.2883 -0.9095 -0.2517
  176SAPI  H18X20110   1.560  -0.069   8.525  1.6491  3.0615 -0.3117
  176SAPI  H18Y20111   1.702  -0.022   8.623  0.3897  0.9111 -2.8613
  176SAPI  H18Z20112   1.638  -0.200   8.623  1.5651 -1.4064 -0.6235
  177SLPC     N20113   2.172   0.117  10.927 -0.2314 -0.9614  0.7777
  177SLPC   C1320114   2.072   0.226  10.914 -0.1173  0.0755  0.2802
  177SLPC  H13A20115   2.116   0.324  10.920  0.4038  0.3985 -4.6659
  177SLPC  H13B20116   2.029   0.221  10.815  1.0943 -0.2779 -0.2427
  177SLPC  H13C20117   1.987   0.217  10.980 -0.1824  4.3519  1.0462
  177SLPC   C1420118   2.122  -0.005  10.863 -0.3372 -0.3965 -0.0675
  177SLPC  H14A20119   2.189  -0.085  10.890  1.2662  1.4242  1.7192
  177SLPC  H14B20120   2.024  -0.033  10.898 -0.1414  0.1321  0.9377
  177SLPC  H14C20121   2.105   0.005  10.757  2.2962 -0.4590 -0.5503
  177SLPC   C1520122   2.199   0.089  11.074  1.1352 -0.4229 -0.1167
  177SLPC  H15A20123   2.173   0.179  11.127 -1.8550 -0.5879 -1.1511
  177SLPC  H15B20124   2.132   0.017  11.118  0.0966  1.6578  1.9058
  177SLPC  H15C20125   2.290   0.036  11.098 -0.8702 -5.5671 -2.4328
  177SLPC   C1220126   2.301   0.160  10.858  0.1757 -0.5661  0.0233
  177SLPC  H12A20127   2.274   0.188  10.757  1.7276 -2.0487 -0.8700
  177SLPC  H12B20128   2.362   0.072  10.844  0.6382  0.1626 -3.2676
  177SLPC   C1120129   2.388   0.276  10.912 -0.1466  0.2622  0.2806
  177SLPC  H11A20130   2.479   0.272  10.848 -2.3964  0.7568 -3.2290
  177SLPC  H11B20131   2.409   0.271  11.021 -1.7966 -1.5685  0.5511
  177SLPC     P20132   2.395   0.546  10.870  0.2822  0.2823 -0.6002
  177SLPC   O1320133   2.362   0.627  10.984  0.4004 -0.3205  0.0750
  177SLPC   O1420134   2.539   0.529  10.838  0.3015  0.2721  0.1391
  177SLPC   O1220135   2.320   0.402  10.892  0.0705  0.0427 -0.7470
  177SLPC   O1120136   2.320   0.606  10.747  0.2996 -0.1850 -0.4221
  177SLPC    C120137   2.198   0.551  10.696  0.0709 -0.3230 -0.0056
  177SLPC    HA20138   2.195   0.441  10.687 -2.7967 -0.1789 -2.2562
  177SLPC    HB20139   2.111   0.584  10.757 -1.1741 -0.2728 -1.7246
  177SLPC    C220140   2.169   0.614  10.554  0.5265  0.1968 -0.2591
  177SLPC    HS20141   2.079   0.568  10.508 -0.4644  1.8140  0.0232
  177SLPC   O2120142   2.278   0.596  10.464 -0.9923  0.2066  0.0572
  177SLPC   C2120143   2.299   0.464  10.421  0.5410 -0.4097  0.1594
  177SLPC   O2220144   2.219   0.374  10.447  0.4880  0.4071  0.7286
  177SLPC   C2220145   2.432   0.435  10.354 -0.9130  0.1766 -0.4586
  177SLPC   H2R20146   2.495   0.520  10.388 -0.0164 -0.9658  0.8367
  177SLPC   H2S20147   2.478   0.347  10.404  0.6284 -0.1238 -2.2866
  177SLPC    C320148   2.134   0.759  10.570  0.0793  0.1255  0.0244
  177SLPC    HX20149   2.196   0.798  10.653  1.1294  1.0762 -1.1642
  177SLPC    HY20150   2.029   0.760  10.606  0.4122 -0.5143  1.0653
  177SLPC   O3120151   2.135   0.844  10.449  0.9235 -0.5407  0.3004
  177SLPC   C3120152   2.252   0.894  10.424 -0.1068 -0.2604 -0.2418
  177SLPC   O3220153   2.345   0.871  10.495 -0.4217 -0.1337 -1.1172
  177SLPC   C3220154   2.258   0.989  10.303  0.6104  0.0054  0.0371
  177SLPC   H2X20155   2.248   1.093  10.339 -0.1239  0.7568 -2.1509
  177SLPC   H2Y20156   2.159   0.974  10.256  0.4770 -2.2505  0.8885
  177SLPC   C2320157   2.422   0.406  10.202 -0.7203  0.0868  0.0213
  177SLPC   H3R20158   2.515   0.447  10.156  1.2626 -0.0285  3.5429
  177SLPC   H3S20159   2.336   0.456  10.152  0.3583 -0.3178 -2.3997
  177SLPC   C2420160   2.417   0.249  10.172 -0.0461 -0.3737  0.3350
  177SLPC   H4R20161   2.317   0.206  10.191 -0.8672  1.4042  0.2274
  177SLPC   H4S20162   2.490   0.200  10.240 -1.0115 -2.1398  0.1694
  177SLPC   C2520163   2.451   0.226  10.025 -0.2524 -0.3234 -0.1124
  177SLPC   H5R20164   2.540   0.282   9.989  0.6706 -0.7202  1.4696
  177SLPC   H5S20165   2.381   0.282   9.959  1.0267  1.6980  0.1633
  177SLPC   C2620166   2.466   0.076   9.992  0.1455 -0.7869  0.2819
  177SLPC   H6R20167   2.368   0.028  10.011 -0.2518 -0.0091  0.2028
  177SLPC   H6S20168   2.532   0.032  10.069 -0.6763 -2.0988  0.2652
  177SLPC   C2720169   2.525   0.042   9.854  0.3026  1.0120  0.7516
  177SLPC   H7R20170   2.457   0.091   9.781  1.1026  0.4091 -0.4316
  177SLPC   H7S20171   2.529  -0.069   9.851  1.0450  1.0080  1.5370
  177SLPC   C2820172   2.670   0.094   9.812 -0.8420  0.3069 -0.4310
  177SLPC   H8R20173   2.657   0.204   9.815 -0.5510  0.3130  1.7617
  177SLPC   H8S20174   2.683   0.076   9.703 -0.7867  0.7661 -0.5028
  177SLPC   C2920175   2.776   0.045   9.912  0.5034  0.0768 -0.3951
  177SLPC   H9R20176   2.733   0.053  10.014  1.9730 -1.2440  0.3726
  177SLPC  C21020177   2.901   0.000   9.892  0.2838  0.0836  0.6487
  177SLPC  H10R20178   2.952  -0.037   9.982  1.5170  0.9964  0.3532
  177SLPC  C21120179   2.977  -0.013   9.762  0.2666 -0.4951  0.3988
  177SLPC  H11R20180   3.082  -0.042   9.781  0.4901  0.6011  0.9182
  177SLPC  H11S20181   2.921  -0.082   9.694 -0.9619  0.1215  0.7586
  177SLPC  C21220182   2.999   0.123   9.697 -0.6229 -0.5412  0.0536
  177SLPC  H12R20183   3.058   0.198   9.751 -0.1201  0.1271 -1.3898
  177SLPC  C21320184   2.975   0.152   9.566 -0.0554 -0.3100 -0.2436
  177SLPC  H13R20185   3.002   0.253   9.532  0.9228 -0.3775  0.2974
  177SLPC  C21420186   2.915   0.055   9.461  0.7525  0.0025  0.4981
  177SLPC  H14R20187   2.805   0.063   9.464  0.2212 -3.9870 -1.5052
  177SLPC  H14S20188   2.927  -0.054   9.479 -2.0837 -0.6147 -0.8276
  177SLPC  C21520189   2.965   0.084   9.315  0.2123  0.1277 -0.8039
  177SLPC  H15R20190   3.075   0.064   9.317  0.2052  0.0978 -0.7099
  177SLPC  H15S20191   2.943   0.183   9.268  0.0157 -0.6379 -2.3995
  177SLPC  C21620192   2.916  -0.021   9.211 -0.4829 -0.0900 -0.6941
  177SLPC  H16R20193   2.807  -0.000   9.199 -0.2438 -0.1215 -3.4246
  177SLPC  H16S20194   2.935  -0.118   9.263 -1.8813  0.2487  0.5095
  177SLPC  C21720195   2.980  -0.007   9.076 -0.2586  0.5688 -0.5406
  177SLPC  H17R20196   3.091  -0.009   9.085 -0.2822  1.8456  0.2380
  177SLPC  H17S20197   2.964   0.096   9.037 -4.0500  0.3085  0.0432
  177SLPC  C21820198   2.922  -0.095   8.971 -0.1588  0.2885 -0.7052
  177SLPC  H18R20199   2.981  -0.098   8.876 -1.0334  0.0645 -1.2573
  177SLPC  H18S20200   2.821  -0.059   8.942 -1.0290 -0.9212  0.7128
  177SLPC  H18T20201   2.910  -0.200   9.004 -0.5303  0.0730 -1.5027
  177SLPC   C3320202   2.380   0.967  10.210  0.0240  0.0821  0.5115
  177SLPC   H3X20203   2.470   0.962  10.275 -0.1297  0.7363  0.7874
  177SLPC   H3Y20204   2.385   1.058  10.147  0.4675 -0.4574 -0.2390
  177SLPC   C3420205   2.380   0.837  10.138 -0.5397 -0.1788 -0.0834
  177SLPC   H4X20206   2.277   0.798  10.125 -0.4465 -0.3276 -0.3942
  177SLPC   H4Y20207   2.423   0.751  10.193 -1.2126 -1.9774 -2.2437
  177SLPC   C3520208   2.469   0.830  10.013  0.1197  0.1096  0.4511
  177SLPC   H5X20209   2.433   0.746   9.950 -3.9186  1.5265  0.6229
  177SLPC   H5Y20210   2.570   0.802  10.051  1.3072  1.6393 -1.3938
  177SLPC   C3620211   2.487   0.959   9.933 -0.3484  0.1225 -1.5415
  177SLPC   H6X20212   2.558   1.025   9.988 -0.7815 -1.4063  0.9498
  177SLPC   H6Y20213   2.390   1.012   9.941 -0.1647  0.1138  2.1298
  177SLPC   C3720214   2.546   0.929   9.794 -0.2364 -0.1714 -0.9068
  177SLPC   H7X20215   2.458   0.905   9.730 -0.3674  0.9119 -1.1532
  177SLPC   H7Y20216   2.600   0.832   9.784 -1.7972 -0.9836 -1.9254
  177SLPC   C3820217   2.627   1.044   9.731  0.1439 -0.0109 -0.6977
  177SLPC   H8X20218   2.732   1.015   9.754  0.0855  0.8142  0.7708
  177SLPC   H8Y20219   2.599   1.145   9.768  0.0672 -0.0796 -0.5662
  177SLPC   C3920220   2.606   1.050   9.579 -0.6029 -0.0158 -0.1505
  177SLPC   H9X20221   2.498   1.063   9.554 -0.4529  0.4402 -0.5743
  177SLPC   H9Y20222   2.634   0.963   9.517  0.1265  0.3771 -0.3736
  177SLPC  C31020223   2.680   1.176   9.518  0.1508  0.0522  0.7056
  177SLPC  H10X20224   2.791   1.171   9.524  0.1373 -2.3406 -0.1383
  177SLPC  H10Y20225   2.646   1.266   9.573 -0.9534 -1.0289  1.8539
  177SLPC  C31120226   2.647   1.210   9.368 -0.4101  0.0224 -0.6581
  177SLPC  H11X20227   2.649   1.320   9.356  0.5473 -0.0066 -0.8114
  177SLPC  H11Y20228   2.543   1.180   9.342 -0.2168 -3.6801  2.0000
  177SLPC  C31220229   2.743   1.167   9.259  0.5050 -0.2224  0.7985
  177SLPC  H12X20230   2.729   1.056   9.255  1.2501 -0.4274  2.9331
  177SLPC  H12Y20231   2.844   1.197   9.292  0.6568 -0.1274  0.2663
  177SLPC  C31320232   2.709   1.245   9.130  0.1079 -0.3337 -0.2514
  177SLPC  H13X20233   2.742   1.351   9.124  3.0926 -1.1598 -0.5005
  177SLPC  H13Y20234   2.600   1.236   9.115 -0.1404  2.1113 -0.1643
  177SLPC  C31420235   2.774   1.177   9.007 -0.4012  0.0646  0.6614
  177SLPC  H14X20236   2.765   1.067   9.009 -1.9939  0.0601 -2.1560
  177SLPC  H14Y20237   2.882   1.203   9.019 -0.2738  0.8150 -1.6756
  177SLPC  C31520238   2.722   1.234   8.872 -0.4268  0.2107 -0.6864
  177SLPC  H15X20239   2.763   1.337   8.873 -0.7578  0.4554  3.0958
  177SLPC  H15Y20240   2.611   1.241   8.874 -0.3395  1.7763  0.2386
  177SLPC  C31620241   2.749   1.153   8.747  0.0317 -0.0932 -0.1196
  177SLPC  H16X20242   2.757   1.045   8.770  0.0185 -1.0486 -4.0001
  177SLPC  H16Y20243   2.847   1.179   8.702 -0.1143 -0.2409 -0.5293
  177SLPC  C31720244   2.629   1.161   8.651  0.1111 -1.2896 -0.1637
  177SLPC  H17X20245   2.549   1.088   8.675  0.2128 -2.1768 -2.2701
  177SLPC  H17Y20246   2.666   1.133   8.550 -0.7556 -0.2813 -0.7966
  177SLPC  C31820247   2.572   1.301   8.630 -0.6243  0.4136 -0.5903
  177SLPC  H18X20248   2.517   1.339   8.719  0.7372 -0.6813  0.7697
  177SLPC  H18Y20249   2.504   1.291   8.543  0.3485 -1.9934 -1.1744
  177SLPC  H18Z20250   2.656   1.370   8.609  0.8103 -1.2634 -0.5350
  178SLPC     N20251   2.361   1.032  10.914  0.2523  0.2937 -0.4137
  178SLPC   C1320252   2.223   1.040  10.857  0.6523  0.0772 -0.1290
  178SLPC  H13A20253   2.169   0.947  10.871  1.5397 -0.3490  0.6227
  178SLPC  H13B20254   2.164   1.110  10.914 -0.5197 -1.0888  0.1670
  178SLPC  H13C20255   2.218   1.070  10.754 -0.5531  1.1635  0.2203
  178SLPC   C1420256   2.360   1.015  11.064  0.6272  0.2249  0.0174
  178SLPC  H14A20257   2.301   1.098  11.099 -0.2696 -0.1702 -0.5275
  178SLPC  H14B20258   2.312   0.920  11.081  0.5975 -0.0326 -1.4293
  178SLPC  H14C20259   2.457   1.030  11.110  0.7531 -1.2480  0.2787
  178SLPC   C1520260   2.429   1.159  10.877 -0.0172  0.1610  0.2591
  178SLPC  H15A20261   2.417   1.180  10.772  0.6227 -0.6082  0.0206
  178SLPC  H15B20262   2.412   1.234  10.953  2.7896  3.5791 -2.1397
  178SLPC  H15C20263   2.537   1.148  10.884  0.0244 -1.2577 -1.8751
  178SLPC   C1220264   2.435   0.913  10.842  0.7703 -0.2025 -0.3674
  178SLPC  H12A20265   2.430   0.930  10.735  0.4251  0.0576 -0.3117
  178SLPC  H12B20266   2.390   0.818  10.865  2.3581 -0.8035  0.4161
  178SLPC   C1120267   2.581   0.886  10.870  0.3154 -0.5013 -0.2018
  178SLPC  H11A20268   2.616   0.786  10.838  3.4900  0.0571  1.1581
  178SLPC  H11B20269   2.615   0.883  10.976 -1.9439  1.1645  0.6497
  178SLPC     P20270   2.818   0.999  10.838  0.1484  0.3050  0.7583
  178SLPC   O1320271   2.837   1.120  10.920  0.5534  0.4502 -0.0749
  178SLPC   O1420272   2.865   0.870  10.889 -0.5229 -0.1758  0.6882
  178SLPC   O1220273   2.659   0.988  10.802  0.3134  0.0439 -0.7009
  178SLPC   O1120274   2.875   1.032  10.692 -0.5117 -0.4901  0.2151
  178SLPC    C120275   2.805   0.980  10.572  0.5825 -0.3859  0.3960
  178SLPC    HA20276   2.705   1.029  10.570  1.5681  1.7739  0.6563
  178SLPC    HB20277   2.860   1.013  10.481  0.7961 -0.6490  0.4286
  178SLPC    C220278   2.791   0.827  10.566  0.1363  0.5683  0.2747
  178SLPC    HS20279   2.738   0.800  10.660  2.1329  2.5355  2.0856
  178SLPC   O2120280   2.917   0.777  10.549 -0.7925 -0.3826  0.1037
  178SLPC   C2120281   2.925   0.648  10.565  0.5590  0.2511  0.5627
  178SLPC   O2220282   2.832   0.576  10.598 -0.1435 -0.2311  0.5717
  178SLPC   C2220283   3.070   0.605  10.536  0.8292 -0.7482 -0.3436
  178SLPC   H2R20284   3.135   0.633  10.622  0.6720 -1.1491 -0.0927
  178SLPC   H2S20285   3.061   0.495  10.525 -1.7616 -0.5675 -0.6479
  178SLPC    C320286   2.685   0.786  10.452 -0.3807  0.4525 -0.0390
  178SLPC    HX20287   2.582   0.800  10.489 -1.2593  1.6436 -2.6673
  178SLPC    HY20288   2.691   0.676  10.435  0.2028 -0.0517  2.9261
  178SLPC   O3120289   2.699   0.870  10.336  0.0864  0.0920  0.5761
  178SLPC   C3120290   2.797   0.839  10.247  0.2483  0.1903  0.0247
  178SLPC   O3220291   2.854   0.730  10.246 -0.8160 -0.9214  0.3934
  178SLPC   C3220292   2.821   0.963  10.160  0.8621 -0.2257 -0.0330
  178SLPC   H2X20293   2.813   1.059  10.216  1.7395 -0.6194  0.8109
  178SLPC   H2Y20294   2.748   0.957  10.077 -0.2542 -0.5302  0.9389
  178SLPC   C2320295   3.141   0.679  10.417 -0.1973 -0.0293  0.9497
  178SLPC   H3R20296   3.124   0.789  10.424  0.7530  0.1287  0.9645
  178SLPC   H3S20297   3.099   0.641  10.321 -0.7648 -0.5375  1.3970
  178SLPC   C2420298   3.293   0.646  10.419  0.0275 -0.0517  0.5098
  178SLPC   H4R20299   3.314   0.538  10.432  1.9024  0.0838 -1.0287
  178SLPC   H4S20300   3.339   0.695  10.508 -0.5709 -0.5539  1.1029
  178SLPC   C2520301   3.365   0.692  10.298  0.7927  0.0096 -0.5327
  178SLPC   H5R20302   3.473   0.693  10.323  0.8184  2.2099 -0.5165
  178SLPC   H5S20303   3.331   0.796  10.278  0.0239 -0.2024 -0.3444
  178SLPC   C2620304   3.338   0.610  10.163 -0.7717  0.1506 -0.4574
  178SLPC   H6R20305   3.229   0.613  10.142 -1.2499  0.6343  1.8325
  178SLPC   H6S20306   3.373   0.507  10.183  0.6704  0.2491 -2.2496
  178SLPC   C2720307   3.417   0.658  10.040  0.2148 -0.1493  0.1217
  178SLPC   H7R20308   3.523   0.664  10.072 -0.1404  1.0239  1.1632
  178SLPC   H7S20309   3.389   0.764  10.021  1.6479 -0.0899 -2.0248
  178SLPC   C2820310   3.413   0.567   9.912  0.1446  0.1719  0.6974
  178SLPC   H8R20311   3.490   0.488   9.915  0.9268  0.8277 -1.2336
  178SLPC   H8S20312   3.443   0.634   9.829 -0.0133  1.5686  1.7285
  178SLPC   C2920313   3.279   0.502   9.888 -0.0569 -0.4679  0.5129
  178SLPC   H9R20314   3.204   0.517   9.968 -1.4205 -0.0975 -0.7944
  178SLPC  C21020315   3.237   0.441   9.778 -0.0785 -0.3571  0.7570
  178SLPC  H10R20316   3.132   0.406   9.775 -0.1923 -0.0009 -0.8059
  178SLPC  C21120317   3.312   0.426   9.645  0.7049 -0.6270  0.1832
  178SLPC  H11R20318   3.290   0.325   9.605 -1.3220 -0.0714 -0.1970
  178SLPC  H11S20319   3.419   0.438   9.676  0.7384 -1.3977  0.3974
  178SLPC  C21220320   3.276   0.544   9.551 -0.5689  0.2814 -0.0909
  178SLPC  H12R20321   3.279   0.643   9.600 -0.8650  0.0911  0.3228
  178SLPC  C21320322   3.266   0.539   9.413 -0.8740  0.5043 -0.1937
  178SLPC  H13R20323   3.249   0.632   9.356 -1.1308 -0.2178 -1.3431
  178SLPC  C21420324   3.278   0.415   9.330  0.2265  0.0303 -0.0966
  178SLPC  H14R20325   3.184   0.357   9.329  0.3264 -0.1196 -0.8743
  178SLPC  H14S20326   3.348   0.342   9.376 -0.1648  0.1516  0.7190
  178SLPC  C21520327   3.320   0.439   9.186  0.5964 -0.3263 -0.7949
  178SLPC  H15R20328   3.411   0.502   9.196  1.2178 -1.3444  0.2766
  178SLPC  H15S20329   3.238   0.498   9.140 -0.5586 -0.1549  1.3531
  178SLPC  C21620330   3.339   0.303   9.117 -0.2734 -0.1950  0.3856
  178SLPC  H16R20331   3.253   0.242   9.149 -1.0133  0.3345 -0.5320
  178SLPC  H16S20332   3.436   0.258   9.148  0.5759  1.1375 -0.2126
  178SLPC  C21720333   3.332   0.338   8.963 -0.2106 -0.3924 -0.2046
  178SLPC  H17R20334   3.431   0.376   8.929 -2.1620  3.4571 -2.1737
  178SLPC  H17S20335   3.258   0.419   8.946 -0.2918 -0.2668  0.7100
  178SLPC  C21820336   3.302   0.220   8.869  0.1071 -0.0864  0.3218
  178SLPC  H18R20337   3.209   0.171   8.907  0.9368 -1.8710  0.1505
  178SLPC  H18S20338   3.375   0.138   8.883  0.7126  0.5799  1.1745
  178SLPC  H18T20339   3.279   0.242   8.763 -0.6119  1.6571  0.7906
  178SLPC   C3320340   2.967   0.959  10.101 -0.5659  0.3437 -0.5040
  178SLPC   H3X20341   2.990   0.858  10.060  1.5675  0.9749 -0.9851
  178SLPC   H3Y20342   3.034   0.967  10.190  0.1608  2.0381 -1.1518
  178SLPC   C3420343   2.992   1.066   9.997 -0.0131  0.0294  0.3009
  178SLPC   H4X20344   2.974   1.166  10.041  1.0801  0.9862 -1.3082
  178SLPC   H4Y20345   2.921   1.046   9.914  0.6641 -0.4656 -0.1760
  178SLPC   C3520346   3.132   1.070   9.925 -0.0132 -0.3440 -0.4308
  178SLPC   H5X20347   3.200   1.088  10.011  0.9336  0.5237 -1.3553
  178SLPC   H5Y20348   3.147   1.150   9.851 -0.7014 -0.4494 -0.6966
  178SLPC   C3620349   3.172   0.941   9.859 -0.6637 -0.5184  0.9599
  178SLPC   H6X20350   3.191   0.855   9.927  2.7603 -2.7680 -2.3960
  178SLPC   H6Y20351   3.274   0.960   9.817 -1.2045 -2.6540 -1.6629
  178SLPC   C3720352   3.082   0.890   9.744 -0.1630 -0.7379  0.1442
  178SLPC   H7X20353   2.978   0.906   9.781  0.5206 -0.0395  1.8271
  178SLPC   H7Y20354   3.115   0.785   9.728  2.2013 -0.1279  0.7118
  178SLPC   C3820355   3.100   0.974   9.622 -0.8186  0.3609  0.6247
  178SLPC   H8X20356   3.208   0.993   9.606 -0.6085 -1.7941 -0.9158
  178SLPC   H8Y20357   3.053   1.071   9.650  0.8512  1.3379  0.1596
  178SLPC   C3920358   3.035   0.920   9.495 -0.3730 -0.6495 -1.0549
  178SLPC   H9X20359   2.926   0.922   9.515 -0.2335 -1.7136 -0.0492
  178SLPC   H9Y20360   3.069   0.817   9.470 -0.2966 -0.9388  0.1939
  178SLPC  C31020361   3.065   1.026   9.385  0.4385  0.1539  0.3656
  178SLPC  H10X20362   3.174   1.050   9.390  0.5016 -0.2318  1.0542
  178SLPC  H10Y20363   3.018   1.120   9.420  0.4700  0.0479  0.7009
  178SLPC  C31120364   3.023   0.991   9.244  0.3496  0.7916 -0.9462
  178SLPC  H11X20365   3.013   1.089   9.192 -0.3200  2.4166  1.9967
  178SLPC  H11Y20366   2.922   0.945   9.239 -0.5482  2.5853 -0.3249
  178SLPC  C31220367   3.126   0.895   9.174 -0.4049  0.7829  0.2686
  178SLPC  H12X20368   3.112   0.787   9.196  1.3777 -0.1546 -2.6756
  178SLPC  H12Y20369   3.229   0.932   9.194 -1.1225  2.1137  1.7815
  178SLPC  C31320370   3.098   0.905   9.021  0.6701 -0.0456 -1.0211
  178SLPC  H13X20371   3.118   1.010   8.990  2.2948 -0.2306 -0.6861
  178SLPC  H13Y20372   2.993   0.874   9.000  0.6202 -1.3116  0.8846
  178SLPC  C31420373   3.180   0.798   8.942  0.2574 -0.0746  1.0710
  178SLPC  H14X20374   3.178   0.699   8.991  1.5183 -0.7176 -0.1032
  178SLPC  H14Y20375   3.282   0.841   8.936 -0.4863  1.9451  1.9502
  178SLPC  C31520376   3.133   0.776   8.803  0.3420  0.1703  0.2804
  178SLPC  H15X20377   3.043   0.711   8.805 -0.7691  1.5070 -1.7996
  178SLPC  H15Y20378   3.117   0.875   8.754 -0.0458  0.3318  0.7360
  178SLPC  C31620379   3.241   0.693   8.712  0.3742  0.2411  0.6417
  178SLPC  H16X20380   3.223   0.591   8.753  0.8843  0.2234  0.8332
  178SLPC  H16Y20381   3.340   0.740   8.730  0.3911  1.0920 -1.4398
  178SLPC  C31720382   3.218   0.696   8.559  0.3976 -0.6446 -0.9335
  178SLPC  H17X20383   3.194   0.799   8.526  1.6641 -0.7366 -2.2181
  178SLPC  H17Y20384   3.132   0.628   8.537 -0.2379 -0.5008  0.8713
  178SLPC  C31820385   3.334   0.645   8.476  0.3653  0.1175 -0.5722
  178SLPC  H18X20386   3.412   0.723   8.459 -0.6635  1.5093  0.7610
  178SLPC  H18Y20387   3.298   0.603   8.380 -1.7734 -1.4398  0.8084
  178SLPC  H18Z20388   3.391   0.565   8.526 -1.1618 -0.3698  0.4660
  179SLPC     N20389   5.674   3.953  10.278 -0.2872 -0.4730 -0.1083
  179SLPC   C1320390   5.598   4.043  10.185 -0.0550 -0.0689  0.6881
  179SLPC  H13A20391   5.559   4.123  10.246 -2.6055 -0.7910  0.1174
  179SLPC  H13B20392   5.644   4.093  10.100  0.7276 -1.3938  0.3061
  179SLPC  H13C20393   5.512   3.994  10.143  0.4492  0.6624 -1.3480
  179SLPC   C1420394   5.569   3.869  10.350  0.4661  0.5686 -0.2479
  179SLPC  H14A20395   5.611   3.771  10.369  2.1229  0.7519 -2.5589
  179SLPC  H14B20396   5.528   3.910  10.441 -0.8320  0.3477 -0.7120
  179SLPC  H14C20397   5.490   3.841  10.282  0.5759  1.7118 -0.8730
  179SLPC   C1520398   5.742   4.027  10.390 -0.8601 -0.0838 -0.2716
  179SLPC  H15A20399   5.682   4.106  10.433 -1.6835 -0.7832 -0.1244
  179SLPC  H15B20400   5.765   3.956  10.468 -0.4881  0.5515  0.2164
  179SLPC  H15C20401   5.840   4.058  10.356 -0.7762 -0.8495 -0.7510
  179SLPC   C1220402   5.762   3.867  10.191  0.3496 -0.0207 -0.5843
  179SLPC  H12A20403   5.824   3.931  10.130 -0.7017  0.1938 -1.4480
  179SLPC  H12B20404   5.691   3.810  10.134 -1.4644 -0.0309  1.5651
  179SLPC   C1120405   5.856   3.762  10.260  0.8972  0.5930  0.1254
  179SLPC  H11A20406   5.892   3.693  10.181  0.6952 -0.9929  1.3792
  179SLPC  H11B20407   5.790   3.698  10.323 -2.4372  0.2903 -3.3339
  179SLPC     P20408   6.074   3.905  10.299  0.5297  0.2001  0.0255
  179SLPC   O1320409   6.100   4.002  10.412  0.3193 -0.9889 -0.1185
  179SLPC   O1420410   6.194   3.828  10.264  0.0840  0.1686 -0.0350
  179SLPC   O1220411   5.965   3.805  10.345  0.0473 -0.8877  0.2043
  179SLPC   O1120412   6.023   3.970  10.177  0.0414  0.4737  0.4135
  179SLPC    C120413   6.009   4.108  10.158  0.3920 -0.0473 -0.0848
  179SLPC    HA20414   5.929   4.153  10.220 -0.3870  0.0396 -1.1238
  179SLPC    HB20415   6.101   4.156  10.195 -0.0812  1.6644 -1.0344
  179SLPC    C220416   5.973   4.154  10.023  0.4036 -0.0108  0.3291
  179SLPC    HS20417   5.864   4.135  10.012  0.8325 -1.7773 -1.4385
  179SLPC   O2120418   6.050   4.087   9.917 -0.0588  0.1227 -0.2860
  179SLPC   C2120419   5.993   3.974   9.872  1.1568  0.1385  0.4609
  179SLPC   O2220420   5.882   3.931   9.907  0.1072 -0.0494  0.7392
  179SLPC   C2220421   6.078   3.912   9.762 -0.4058 -0.4244 -0.2986
  179SLPC   H2R20422   6.186   3.937   9.773 -1.0606  3.3515 -1.1063
  179SLPC   H2S20423   6.074   3.801   9.757 -0.8182 -0.5134  1.4738
  179SLPC    C320424   5.986   4.307   9.999 -0.2790  0.7782  0.8385
  179SLPC    HX20425   6.093   4.326  10.026  0.2861 -0.2558 -0.5278
  179SLPC    HY20426   5.914   4.359  10.066 -1.9773  1.6543 -1.5309
  179SLPC   O3120427   5.952   4.346   9.867  0.3057  0.7132 -0.1309
  179SLPC   C3120428   6.055   4.385   9.794  0.6297  0.0703  0.9686
  179SLPC   O3220429   6.174   4.399   9.829 -0.1459 -0.2089  0.1810
  179SLPC   C3220430   6.019   4.416   9.653 -0.0813 -0.3150  0.0260
  179SLPC   H2X20431   5.959   4.336   9.604 -0.2343 -0.1607 -0.0392
  179SLPC   H2Y20432   6.114   4.407   9.596  0.2365  0.4211  0.4207
  179SLPC   C2320433   6.048   3.963   9.619 -0.6877  0.1544  0.8223
  179SLPC   H3R20434   6.046   4.074   9.625  0.8555  0.3401 -1.1787
  179SLPC   H3S20435   5.943   3.935   9.595 -0.6390  0.1730  0.5951
  179SLPC   C2420436   6.135   3.917   9.499 -0.8894 -0.0937 -0.3446
  179SLPC   H4R20437   6.189   3.824   9.527  0.0920  0.3170 -0.8397
  179SLPC   H4S20438   6.223   3.981   9.477  0.1015 -1.2277  0.2102
  179SLPC   C2520439   6.070   3.891   9.364  0.2673  0.4945 -0.1249
  179SLPC   H5R20440   6.002   3.977   9.344 -0.4941  0.1296  0.7844
  179SLPC   H5S20441   6.021   3.792   9.378  2.1648 -0.5346 -0.4513
  179SLPC   C2620442   6.172   3.875   9.252  0.1011  0.4435 -0.1935
  179SLPC   H6R20443   6.236   3.791   9.286 -1.3431 -1.0012 -0.9531
  179SLPC   H6S20444   6.235   3.967   9.257 -0.0587  0.6626 -1.7261
  179SLPC   C2720445   6.138   3.845   9.106  0.1221  0.0015  0.3070
  179SLPC   H7R20446   6.072   3.757   9.096 -2.3005  1.4079  2.6795
  179SLPC   H7S20447   6.224   3.816   9.041  0.3777  0.3866  0.4673
  179SLPC   C2820448   6.050   3.959   9.034 -0.1497  0.5397 -0.1380
  179SLPC   H8R20449   5.988   3.988   9.122  2.2597  1.2232  1.4168
  179SLPC   H8S20450   5.997   3.902   8.955 -0.6884  1.5845 -0.5505
  179SLPC   C2920451   6.142   4.067   8.994 -0.4275  0.0441  0.3778
  179SLPC   H9R20452   6.210   4.098   9.075  1.8489 -1.2109 -0.9207
  179SLPC  C21020453   6.164   4.116   8.867  0.0170  0.1738  0.7708
  179SLPC  H10R20454   6.240   4.195   8.854  0.2182 -0.1376  0.0015
  179SLPC  C21120455   6.095   4.065   8.739  0.6027 -0.4546 -0.9339
  179SLPC  H11R20456   5.998   4.025   8.775 -0.0085  1.3985 -0.4145
  179SLPC  H11S20457   6.151   3.979   8.695  0.6705 -1.5122  1.1045
  179SLPC  C21220458   6.078   4.164   8.627 -0.0967 -0.1392 -0.6489
  179SLPC  H12R20459   6.155   4.243   8.619  0.0175  0.0924  1.8430
  179SLPC  C21320460   5.980   4.149   8.534 -0.2360 -0.2572 -0.4901
  179SLPC  H13R20461   5.976   4.226   8.456  0.8228 -0.8044 -1.1124
  179SLPC  C21420462   5.872   4.036   8.525 -1.0757 -0.7100  0.0448
  179SLPC  H14R20463   5.774   4.081   8.550  0.6173  2.3904  1.6798
  179SLPC  H14S20464   5.897   3.971   8.612  2.3237  1.1712  0.6716
  179SLPC  C21520465   5.868   3.955   8.393 -0.0140 -0.0981 -0.4434
  179SLPC  H15R20466   5.796   3.871   8.404 -1.0782  0.8921  0.4072
  179SLPC  H15S20467   5.972   3.918   8.389  0.6777  0.9420  3.4055
  179SLPC  C21620468   5.817   4.023   8.260  0.4707  0.8418 -0.1241
  179SLPC  H16R20469   5.867   4.122   8.248  2.9053  0.0728  2.5868
  179SLPC  H16S20470   5.708   4.043   8.274  0.9096  2.3803  1.6558
  179SLPC  C21720471   5.829   3.937   8.132  0.2452  0.6749 -0.2079
  179SLPC  H17R20472   5.755   3.975   8.057 -0.0063  0.3622 -0.1203
  179SLPC  H17S20473   5.802   3.833   8.159 -0.3496  1.1179  0.9449
  179SLPC  C21820474   5.961   3.947   8.061  0.2388  0.1333  0.0738
  179SLPC  H18R20475   6.044   3.914   8.127  1.0478 -2.1499 -1.9452
  179SLPC  H18S20476   5.976   4.047   8.014 -1.8961 -0.0851 -1.2427
  179SLPC  H18T20477   5.960   3.879   7.973 -0.1456  0.1091  0.0952
  179SLPC   C3320478   5.966   4.560   9.623  0.4414  0.0699 -0.1923
  179SLPC   H3X20479   6.021   4.634   9.685  0.6137 -1.0487  1.0289
  179SLPC   H3Y20480   5.861   4.563   9.658  0.9480  0.7964  1.3248
  179SLPC   C3420481   5.970   4.601   9.476  0.0672  0.7184 -0.0455
  179SLPC   H4X20482   6.075   4.600   9.441  1.1026 -0.2567  2.8334
  179SLPC   H4Y20483   5.940   4.708   9.471 -0.7973  0.4490 -0.8386
  179SLPC   C3520484   5.888   4.506   9.386 -0.5596 -0.0040 -0.5813
  179SLPC   H5X20485   5.786   4.507   9.431  0.1629 -1.1943  1.1981
  179SLPC   H5Y20486   5.922   4.401   9.394  2.0507  0.6714 -1.8465
  179SLPC   C3620487   5.873   4.540   9.237 -1.2202  0.2347 -0.0328
  179SLPC   H6X20488   5.835   4.644   9.235 -0.6903  0.6909  3.9512
  179SLPC   H6Y20489   5.800   4.475   9.186  0.4338  0.4186 -2.8131
  179SLPC   C3720490   6.007   4.531   9.167  0.1334  0.8917  0.8308
  179SLPC   H7X20491   6.038   4.425   9.154 -0.9878  0.7618 -1.0867
  179SLPC   H7Y20492   6.095   4.567   9.225  2.8475 -2.6164 -0.7400
  179SLPC   C3820493   6.018   4.579   9.019 -0.0907  0.0616 -0.6591
  179SLPC   H8X20494   6.128   4.575   9.002  0.1093 -0.4051  0.6325
  179SLPC   H8Y20495   5.993   4.686   9.004 -3.0673 -0.0518  2.2476
  179SLPC   C3920496   5.945   4.498   8.913 -0.3016  0.5086  0.0406
  179SLPC   H9X20497   5.836   4.514   8.927 -0.4728  0.7756 -1.4905
  179SLPC   H9Y20498   5.970   4.390   8.920  0.4990  0.6370 -0.6045
  179SLPC  C31020499   5.996   4.558   8.779 -0.0663 -0.5148 -0.0332
  179SLPC  H10X20500   6.106   4.549   8.762  0.3230  2.3632  0.3603
  179SLPC  H10Y20501   5.986   4.669   8.784 -1.4057 -0.6622  3.2904
  179SLPC  C31120502   5.920   4.512   8.663  0.6094  0.0201  0.6438
  179SLPC  H11X20503   5.814   4.546   8.673  0.2416 -0.0606 -2.0522
  179SLPC  H11Y20504   5.932   4.402   8.655  0.2469  0.0970 -1.8681
  179SLPC  C31220505   5.957   4.579   8.526 -0.0404  0.4954  0.5275
  179SLPC  H12X20506   6.056   4.538   8.498 -1.7027 -3.1345 -0.6434
  179SLPC  H12Y20507   5.954   4.690   8.534 -0.3263  0.4432  1.2364
  179SLPC  C31320508   5.853   4.528   8.428 -0.5692  0.0940 -0.3126
  179SLPC  H13X20509   5.755   4.568   8.461 -1.1095  0.5625 -2.3206
  179SLPC  H13Y20510   5.840   4.418   8.426  1.5809 -0.2086 -1.6609
  179SLPC  C31420511   5.883   4.591   8.289  0.3816 -0.2423 -0.0427
  179SLPC  H14X20512   5.977   4.541   8.258 -0.1624 -2.5166  1.7174
  179SLPC  H14Y20513   5.887   4.702   8.297 -0.7921 -0.1449 -0.6206
  179SLPC  C31520514   5.791   4.552   8.164 -0.1692 -0.1797 -0.2715
  179SLPC  H15X20515   5.790   4.633   8.088  0.2038 -0.4361 -0.5509
  179SLPC  H15Y20516   5.690   4.560   8.209 -0.0129  1.9479 -0.1571
  179SLPC  C31620517   5.802   4.413   8.111  0.1053  1.0354  0.9381
  179SLPC  H16X20518   5.801   4.348   8.201  0.7826  1.5073  1.3005
  179SLPC  H16Y20519   5.897   4.399   8.056 -0.4846 -0.9120  0.3524
  179SLPC  C31720520   5.684   4.388   8.010 -0.1002  0.4515 -0.1911
  179SLPC  H17X20521   5.594   4.422   8.064  1.2945  0.9231  1.9469
  179SLPC  H17Y20522   5.681   4.278   7.995 -1.2790 -0.1635  3.6366
  179SLPC  C31820523   5.680   4.464   7.878  0.4931  0.7738 -0.4304
  179SLPC  H18X20524   5.757   4.418   7.812 -1.2289  0.6138 -2.4411
  179SLPC  H18Y20525   5.702   4.572   7.896 -2.3823  1.3159  0.3974
  179SLPC  H18Z20526   5.583   4.458   7.825 -0.1200 -0.7979  0.7817
  180SLPC     N20527   6.151   2.090  10.836  0.5512 -0.0374  0.1569
  180SLPC   C1320528   6.277   2.060  10.907 -0.2192  0.3897 -0.0229
  180SLPC  H13A20529   6.265   1.976  10.975 -4.5298 -0.1801 -1.1714
  180SLPC  H13B20530   6.362   2.042  10.843 -0.4880 -0.2353 -0.2154
  180SLPC  H13C20531   6.297   2.151  10.962 -1.7830 -0.1423  1.5318
  180SLPC   C1420532   6.052   2.123  10.946  0.0060  0.0618  0.2660
  180SLPC  H14A20533   6.079   2.217  10.992 -1.6971 -0.3562  2.2828
  180SLPC  H14B20534   5.951   2.145  10.915  0.2748  1.2325  0.1781
  180SLPC  H14C20535   6.047   2.039  11.015  0.1252  0.6519  1.0101
  180SLPC   C1520536   6.103   1.981  10.753 -0.1607  0.3506  0.2035
  180SLPC  H15A20537   6.159   1.966  10.662 -1.0382  2.9295 -0.8687
  180SLPC  H15B20538   6.102   1.889  10.810 -0.9283  1.3104  1.8402
  180SLPC  H15C20539   6.003   2.004  10.720 -0.7014 -1.9146  0.0934
  180SLPC   C1220540   6.178   2.215  10.744  0.2561  0.5953 -0.4732
  180SLPC  H12A20541   6.209   2.295  10.810  0.6660 -0.0946  0.1800
  180SLPC  H12B20542   6.089   2.261  10.704  1.7391  0.9091 -3.7291
  180SLPC   C1120543   6.275   2.204  10.624 -0.4290  0.2764  0.0981
  180SLPC  H11A20544   6.279   2.301  10.570  2.0481  1.2883  1.9155
  180SLPC  H11B20545   6.232   2.130  10.553  0.7674  0.3531 -0.7336
  180SLPC     P20546   6.470   2.043  10.572 -0.0112 -0.1837 -0.0005
  180SLPC   O1320547   6.614   2.061  10.575 -0.0042  0.4789  0.0767
  180SLPC   O1420548   6.412   1.921  10.623  0.1959  0.1627 -0.1368
  180SLPC   O1220549   6.401   2.162  10.662 -0.3484 -0.4417  0.2639
  180SLPC   O1120550   6.429   2.064  10.423  0.4865  0.1180  0.1974
  180SLPC    C120551   6.519   2.023  10.316  0.3209 -0.5292 -0.0484
  180SLPC    HA20552   6.610   1.969  10.351  1.2744  0.1822 -1.3741
  180SLPC    HB20553   6.461   1.956  10.249 -1.0043  0.0006  0.5307
  180SLPC    C220554   6.570   2.152  10.244  0.8149 -0.2704  0.7638
  180SLPC    HS20555   6.572   2.234  10.319  1.8740  1.0520 -0.6396
  180SLPC   O2120556   6.487   2.184  10.131 -0.1467 -0.5875 -0.2317
  180SLPC   C2120557   6.523   2.299  10.083  0.2770 -0.0496  0.0824
  180SLPC   O2220558   6.597   2.383  10.129  0.2372 -0.8237  0.2708
  180SLPC   C2220559   6.458   2.319   9.950 -0.4001 -0.0528 -0.1983
  180SLPC   H2R20560   6.372   2.252   9.934  0.1125 -0.4842 -1.2284
  180SLPC   H2S20561   6.433   2.427   9.944  2.1228  0.6625  0.5987
  180SLPC    C320562   6.725   2.130  10.208 -0.0754 -0.6108 -0.0760
  180SLPC    HX20563   6.779   2.090  10.296  2.5286  1.7460 -0.4405
  180SLPC    HY20564   6.764   2.234  10.197 -1.5609  0.2910  2.3455
  180SLPC   O3120565   6.740   2.042  10.091 -0.1383 -0.5128 -0.1436
  180SLPC   C3120566   6.830   2.076  10.008  0.4905 -0.4281  0.4430
  180SLPC   O3220567   6.895   2.182  10.016  0.1091 -0.0400  0.4392
  180SLPC   C3220568   6.854   1.965   9.917  0.2903 -0.1089 -0.0464
  180SLPC   H2X20569   6.831   1.873   9.974 -0.0510 -1.4234 -2.1630
  180SLPC   H2Y20570   6.958   1.963   9.878  0.0207  0.4995 -0.8432
  180SLPC   C2320571   6.560   2.290   9.842 -0.6169  0.3002  0.8111
  180SLPC   H3R20572   6.587   2.183   9.854 -3.0417 -0.4980 -0.1956
  180SLPC   H3S20573   6.646   2.360   9.848 -0.4553  0.1468  0.3541
  180SLPC   C2420574   6.509   2.310   9.694 -0.3472  0.1948  0.2255
  180SLPC   H4R20575   6.484   2.415   9.669  1.4894  0.6392  0.1371
  180SLPC   H4S20576   6.411   2.257   9.687 -1.3226  2.0320 -0.9128
  180SLPC   C2520577   6.600   2.244   9.590  0.3689  0.1628 -0.4752
  180SLPC   H5R20578   6.607   2.133   9.601 -0.5932 -0.0830 -2.0729
  180SLPC   H5S20579   6.701   2.287   9.606  1.3003 -2.0100 -0.1709
  180SLPC   C2620580   6.559   2.270   9.450 -0.1862 -0.5452 -0.3383
  180SLPC   H6R20581   6.613   2.208   9.376 -0.4919 -0.9827 -0.1986
  180SLPC   H6S20582   6.591   2.372   9.421  1.4432 -1.1985 -0.9329
  180SLPC   C2720583   6.408   2.249   9.419  0.0409  0.4920  0.6338
  180SLPC   H7R20584   6.350   2.312   9.490 -0.7797 -2.9995  3.3403
  180SLPC   H7S20585   6.384   2.147   9.454  0.8291 -0.7535 -2.1992
  180SLPC   C2820586   6.362   2.269   9.269 -0.5319  0.9630 -0.1238
  180SLPC   H8R20587   6.256   2.236   9.265 -0.6609  1.2600  0.6796
  180SLPC   H8S20588   6.420   2.199   9.205 -0.1938  0.3266  0.8447
  180SLPC   C2920589   6.370   2.415   9.242 -0.2652 -0.0678  0.4403
  180SLPC   H9R20590   6.312   2.482   9.307  0.9634  1.1409  0.3103
  180SLPC  C21020591   6.440   2.464   9.134 -0.3950 -0.4257 -0.0874
  180SLPC  H10R20592   6.456   2.573   9.132  0.8252 -0.5981 -0.3739
  180SLPC  C21120593   6.520   2.390   9.033 -0.5619 -0.1535 -0.6242
  180SLPC  H11R20594   6.548   2.307   9.102 -2.2270  0.3037  0.6566
  180SLPC  H11S20595   6.613   2.449   9.018 -0.0025 -1.0104 -0.6283
  180SLPC  C21220596   6.462   2.311   8.920  0.7079  0.0085 -0.7548
  180SLPC  H12R20597   6.371   2.257   8.953  1.6963  0.2255  2.7641
  180SLPC  C21320598   6.511   2.303   8.796  0.2872  0.3134  0.5089
  180SLPC  H13R20599   6.448   2.256   8.719 -0.7102 -0.5772  1.8241
  180SLPC  C21420600   6.639   2.367   8.756  0.3246 -0.3287  0.3516
  180SLPC  H14R20601   6.718   2.339   8.829 -0.1967  1.7177  1.7832
  180SLPC  H14S20602   6.624   2.477   8.755 -0.8301 -0.4724  0.0259
  180SLPC  C21520603   6.682   2.329   8.612 -0.1939 -0.1099  0.1515
  180SLPC  H15R20604   6.733   2.230   8.617  0.0905 -0.0586 -1.4478
  180SLPC  H15S20605   6.760   2.405   8.590 -1.2565  0.7407 -0.7686
  180SLPC  C21620606   6.576   2.338   8.507 -0.3693  0.2666 -0.2656
  180SLPC  H16R20607   6.518   2.430   8.527  0.7650  1.2886 -1.4922
  180SLPC  H16S20608   6.503   2.254   8.509 -1.4042  1.1405  1.4542
  180SLPC  C21720609   6.635   2.355   8.365  0.3420  0.3656 -0.5338
  180SLPC  H17R20610   6.682   2.255   8.352 -0.0766  0.2151 -0.9133
  180SLPC  H17S20611   6.714   2.434   8.372  0.9600 -0.2482 -0.5256
  180SLPC  C21820612   6.528   2.401   8.257  0.0714  0.1608 -0.0811
  180SLPC  H18R20613   6.450   2.324   8.241 -1.4911  2.2684 -3.8185
  180SLPC  H18S20614   6.587   2.405   8.163  0.1062 -1.0497 -0.1286
  180SLPC  H18T20615   6.485   2.500   8.285 -1.6735 -0.9947  1.5667
  180SLPC   C3320616   6.760   1.959   9.795 -0.8679 -0.1658  0.1124
  180SLPC   H3X20617   6.772   2.038   9.718 -0.7317  0.5573  0.8680
  180SLPC   H3Y20618   6.651   1.952   9.816 -0.8342  0.5359  0.5710
  180SLPC   C3420619   6.808   1.838   9.705 -0.0795  0.2664 -0.0162
  180SLPC   H4X20620   6.809   1.747   9.769  1.1049 -0.7917 -1.4489
  180SLPC   H4Y20621   6.912   1.853   9.670  0.0572 -0.3618  0.1083
  180SLPC   C3520622   6.720   1.801   9.586  0.6533 -0.4317  0.0321
  180SLPC   H5X20623   6.709   1.889   9.519  0.0652 -2.3927 -2.6090
  180SLPC   H5Y20624   6.611   1.786   9.605  0.1261  1.0747 -1.5429
  180SLPC   C3620625   6.773   1.690   9.505  0.4926  0.3591  0.0285
  180SLPC   H6X20626   6.776   1.600   9.571  0.5686 -0.5415 -1.1631
  180SLPC   H6Y20627   6.876   1.715   9.471  1.0449 -0.8628  0.7236
  180SLPC   C3720628   6.695   1.668   9.378  0.4427 -0.2063  0.0875
  180SLPC   H7X20629   6.714   1.759   9.317  0.3844 -0.6563 -0.6087
  180SLPC   H7Y20630   6.585   1.667   9.396  0.7770 -0.8263  2.5390
  180SLPC   C3820631   6.731   1.545   9.293 -0.5725 -0.4693  0.0067
  180SLPC   H8X20632   6.732   1.457   9.361  0.7489  0.8498  1.7970
  180SLPC   H8Y20633   6.835   1.567   9.260 -0.6340  0.4795  0.4219
  180SLPC   C3920634   6.644   1.530   9.170  0.4949  0.2515  1.2052
  180SLPC   H9X20635   6.667   1.612   9.098  0.1786  0.0094  0.8222
  180SLPC   H9Y20636   6.539   1.539   9.203  0.0918  4.3616 -0.5913
  180SLPC  C31020637   6.675   1.404   9.098  0.3632  0.2661  0.2050
  180SLPC  H10X20638   6.642   1.317   9.158  0.1018 -0.1331 -0.5048
  180SLPC  H10Y20639   6.782   1.393   9.070  0.4252  4.3200 -1.9508
  180SLPC  C31120640   6.592   1.394   8.965 -0.3691 -0.5536  0.2512
  180SLPC  H11X20641   6.589   1.493   8.914 -1.2487  0.1158  1.5209
  180SLPC  H11Y20642   6.484   1.395   8.990 -0.9770 -0.8885 -2.1084
  180SLPC  C31220643   6.621   1.285   8.870 -0.8200 -0.0799 -0.7224
  180SLPC  H12X20644   6.598   1.188   8.920 -2.4908 -0.3807 -1.9983
  180SLPC  H12Y20645   6.731   1.275   8.853 -0.5147 -1.0000  1.3840
  180SLPC  C31320646   6.530   1.290   8.752 -0.1829  0.3788  0.0227
  180SLPC  H13X20647   6.537   1.379   8.685  1.9378 -1.6716 -2.7367
  180SLPC  H13Y20648   6.422   1.279   8.774 -0.3680 -1.0887 -1.3830
  180SLPC  C31420649   6.576   1.170   8.659  0.2646 -0.1067 -0.4367
  180SLPC  H14X20650   6.582   1.079   8.722 -2.1960 -2.8174 -3.7645
  180SLPC  H14Y20651   6.678   1.189   8.621  1.3959 -2.2306  1.3075
  180SLPC  C31520652   6.482   1.152   8.550  0.0424  0.3086 -0.0898
  180SLPC  H15X20653   6.374   1.147   8.577 -0.4929  1.0501 -1.9135
  180SLPC  H15Y20654   6.512   1.056   8.502  1.8917 -0.9091  3.2170
  180SLPC  C31620655   6.498   1.266   8.446 -0.0031 -0.1198 -0.3608
  180SLPC  H16X20656   6.469   1.362   8.494 -0.6744 -0.1601 -0.6798
  180SLPC  H16Y20657   6.421   1.248   8.368 -1.9749 -0.4843  1.5895
  180SLPC  C31720658   6.633   1.284   8.381  0.4362  0.2499  0.0480
  180SLPC  H17X20659   6.677   1.185   8.356  0.9655  0.5240 -0.1186
  180SLPC  H17Y20660   6.705   1.328   8.453 -0.6667  2.9295 -0.3894
  180SLPC  C31820661   6.636   1.371   8.259 -0.0470 -0.6895  0.4057
  180SLPC  H18X20662   6.732   1.369   8.203 -0.2479  1.5644 -0.1135
  180SLPC  H18Y20663   6.630   1.480   8.278 -1.5743 -0.5009 -0.9792
  180SLPC  H18Z20664   6.560   1.361   8.179  1.9743  1.1171 -1.9279
  181SLPC     N20665   3.507   0.028  10.981  0.5968 -0.0395  1.0238
  181SLPC   C1320666   3.637   0.074  10.906  0.1553 -1.0516 -0.2930
  181SLPC  H13A20667   3.630   0.021  10.812  0.0349 -0.5851 -0.5502
  181SLPC  H13B20668   3.643   0.182  10.901 -1.9737 -0.9575 -2.4279
  181SLPC  H13C20669   3.728   0.040  10.954  1.6292  1.0674 -1.4048
  181SLPC   C1420670   3.485   0.085  11.113  0.0883 -1.2364 -0.0946
  181SLPC  H14A20671   3.496   0.192  11.109 -0.2070 -1.0966  1.8593
  181SLPC  H14B20672   3.393   0.052  11.159 -0.3087 -1.7272 -1.2093
  181SLPC  H14C20673   3.560   0.046  11.181 -1.0139 -1.4250  1.0651
  181SLPC   C1520674   3.510  -0.117  10.994 -0.3452  0.0780 -0.5648
  181SLPC  H15A20675   3.418  -0.156  11.036 -0.6098 -0.5394 -1.6828
  181SLPC  H15B20676   3.518  -0.166  10.899 -1.8608  0.8713 -1.1317
  181SLPC  H15C20677   3.596  -0.150  11.050 -0.6335 -0.5484 -0.4860
  181SLPC   C1220678   3.384   0.071  10.893  0.3962 -0.1052  0.0469
  181SLPC  H12A20679   3.366   0.177  10.887  0.6561  0.1605  2.6202
  181SLPC  H12B20680   3.298   0.018  10.931  0.3628 -1.4849 -1.8016
  181SLPC   C1120681   3.378   0.007  10.751 -0.5133 -0.0249  0.2194
  181SLPC  H11A20682   3.469   0.042  10.698 -0.5974  0.3027  0.2919
  181SLPC  H11B20683   3.293   0.053  10.696  1.8494  0.8994 -2.9433
  181SLPC     P20684   3.253  -0.216  10.795 -0.2217  0.0219  0.3306
  181SLPC   O1320685   3.280  -0.359  10.822 -1.0023  0.1327  0.7648
  181SLPC   O1420686   3.204  -0.145  10.916  0.2478 -0.5392  0.0747
  181SLPC   O1220687   3.381  -0.140  10.755 -0.0047 -0.7183 -0.1018
  181SLPC   O1120688   3.156  -0.186  10.683  0.2709 -0.4181 -0.1092
  181SLPC    C120689   3.158  -0.236  10.551  0.2390 -0.4191  0.5113
  181SLPC    HA20690   3.252  -0.203  10.501  0.3517 -1.8457 -0.2652
  181SLPC    HB20691   3.158  -0.347  10.548 -0.5812 -0.4066 -0.3498
  181SLPC    C220692   3.044  -0.172  10.468 -0.7627 -0.1078 -0.5070
  181SLPC    HS20693   2.950  -0.228  10.488 -0.1384 -0.6932  0.9196
  181SLPC   O2120694   3.081  -0.187  10.335 -0.1311 -0.1579  0.1554
  181SLPC   C2120695   3.083  -0.311  10.286 -0.5980 -0.3840  0.2265
  181SLPC   O2220696   3.047  -0.409  10.347  0.1773 -0.0672 -0.8819
  181SLPC   C2220697   3.175  -0.303  10.155  0.5488 -0.0251 -0.2683
  181SLPC   H2R20698   3.143  -0.205  10.113  1.2465  0.8265  1.1190
  181SLPC   H2S20699   3.281  -0.304  10.187  0.8882 -2.6274 -1.2255
  181SLPC    C320700   3.028  -0.025  10.502 -0.1292 -0.5912  0.1010
  181SLPC    HX20701   3.129   0.020  10.489 -0.6696  0.6185 -0.0598
  181SLPC    HY20702   3.014  -0.002  10.610  1.1444  4.3049 -0.5553
  181SLPC   O3120703   2.928   0.043  10.419  0.4532 -0.2854 -0.2090
  181SLPC   C3120704   2.922   0.172  10.451  0.0806 -0.6326  0.7106
  181SLPC   O3220705   3.003   0.223  10.524  0.2640 -0.3128 -0.0629
  181SLPC   C3220706   2.801   0.233  10.372 -0.3127  0.3743  0.3819
  181SLPC   H2X20707   2.759   0.321  10.425 -1.5194 -0.3934  0.7481
  181SLPC   H2Y20708   2.716   0.165  10.392 -0.9021  0.7645 -0.7132
  181SLPC   C2320709   3.135  -0.422  10.060 -0.2061 -0.3472 -0.5575
  181SLPC   H3R20710   3.025  -0.413  10.048 -0.4835  3.5956  2.8966
  181SLPC   H3S20711   3.164  -0.516  10.113  0.9555  0.3655  0.1160
  181SLPC   C2420712   3.190  -0.414   9.915 -0.4945 -0.0950  0.4883
  181SLPC   H4R20713   3.300  -0.426   9.920 -0.4018  0.3072 -0.4073
  181SLPC   H4S20714   3.180  -0.311   9.874 -1.4963 -0.4132 -0.1060
  181SLPC   C2520715   3.132  -0.507   9.804  0.6414 -0.3114  0.5336
  181SLPC   H5R20716   3.022  -0.494   9.794  0.5637 -0.5540  1.0741
  181SLPC   H5S20717   3.140  -0.613   9.836 -0.4118 -1.1983 -1.8772
  181SLPC   C2620718   3.183  -0.481   9.661  0.3832 -0.1227 -0.2222
  181SLPC   H6R20719   3.294  -0.475   9.664  0.4015 -0.6911  0.4814
  181SLPC   H6S20720   3.138  -0.389   9.617 -2.0588  0.2562  2.7486
  181SLPC   C2720721   3.151  -0.593   9.562  0.3536 -0.4858 -0.2065
  181SLPC   H7R20722   3.045  -0.625   9.571  0.2390  0.2798  1.6922
  181SLPC   H7S20723   3.209  -0.685   9.583  3.8584  1.4859 -0.3761
  181SLPC   C2820724   3.190  -0.552   9.411  0.6879 -0.2393  0.6070
  181SLPC   H8R20725   3.231  -0.648   9.370  0.8535 -0.7574  1.9333
  181SLPC   H8S20726   3.268  -0.474   9.401  2.4456 -1.6525  2.4236
  181SLPC   C2920727   3.073  -0.493   9.340 -0.3932 -0.3491  0.0203
  181SLPC   H9R20728   2.992  -0.463   9.408 -0.8687 -0.7993 -0.3487
  181SLPC  C21020729   3.063  -0.477   9.206  0.0837 -0.2256  0.1987
  181SLPC  H10R20730   2.976  -0.428   9.160  2.4154  1.5553 -2.6673
  181SLPC  C21120731   3.158  -0.523   9.101 -0.2770  0.1196 -0.1513
  181SLPC  H11R20732   3.148  -0.634   9.092  1.4242  0.0159 -1.0475
  181SLPC  H11S20733   3.263  -0.506   9.132  0.4350 -0.8426 -1.8959
  181SLPC  C21220734   3.132  -0.448   8.970 -1.0295  0.0197 -0.4059
  181SLPC  H12R20735   3.191  -0.355   8.962 -3.4301  1.5530 -1.6560
  181SLPC  C21320736   3.048  -0.484   8.867 -0.7511  0.3955  0.0715
  181SLPC  H13R20737   3.033  -0.419   8.779  2.6965 -1.3933 -2.0666
  181SLPC  C21420738   2.968  -0.614   8.861 -0.0711  0.1875 -0.4521
  181SLPC  H14R20739   2.863  -0.582   8.877  0.6281  1.4959  2.1719
  181SLPC  H14S20740   3.003  -0.682   8.942  2.3122 -3.1877 -3.9630
  181SLPC  C21520741   2.980  -0.695   8.727  0.4076  0.1116  0.1003
  181SLPC  H15R20742   2.951  -0.623   8.648  1.8348  2.2388  1.4211
  181SLPC  H15S20743   2.907  -0.779   8.725 -0.2299  0.6675 -0.3330
  181SLPC  C21620744   3.124  -0.732   8.694 -0.0453 -0.3337 -0.0232
  181SLPC  H16R20745   3.169  -0.783   8.782  0.6367 -0.9131 -0.6982
  181SLPC  H16S20746   3.187  -0.649   8.654  0.9734 -2.1154 -2.3088
  181SLPC  C21720747   3.129  -0.821   8.575  0.9904  0.2408 -0.3046
  181SLPC  H17R20748   3.079  -0.766   8.492 -3.6009  2.8848  3.7156
  181SLPC  H17S20749   3.076  -0.918   8.593  1.0015  0.0995 -0.9773
  181SLPC  C21820750   3.270  -0.874   8.528  0.8402  0.0385  0.2919
  181SLPC  H18R20751   3.343  -0.875   8.612  1.5304  1.5103 -0.2609
  181SLPC  H18S20752   3.293  -0.795   8.454 -0.4713 -1.4507 -1.8111
  181SLPC  H18T20753   3.265  -0.972   8.474 -1.3552 -0.6530  1.6187
  181SLPC   C3320754   2.813   0.258  10.223  0.1775 -0.0741  0.3540
  181SLPC   H3X20755   2.714   0.271  10.175 -0.5817  1.6642  2.2512
  181SLPC   H3Y20756   2.872   0.177  10.176 -2.0410 -0.2086 -2.4345
  181SLPC   C3420757   2.894   0.389  10.201  0.4792  0.2193  0.1772
  181SLPC   H4X20758   2.997   0.353  10.223  1.1728  0.6111 -2.1778
  181SLPC   H4Y20759   2.865   0.469  10.272 -0.0899 -1.2884  1.7276
  181SLPC   C3520760   2.905   0.428  10.050  0.0834 -0.5008  0.1510
  181SLPC   H5X20761   2.913   0.342   9.980 -1.3198  0.0464 -0.7290
  181SLPC   H5Y20762   3.002   0.482  10.047 -0.4349  0.5653  1.6053
  181SLPC   C3620763   2.788   0.516  10.003 -0.5921  0.0506  0.0892
  181SLPC   H6X20764   2.804   0.623  10.031  0.0434  0.0834 -0.3804
  181SLPC   H6Y20765   2.697   0.484  10.059 -0.9630  0.1792 -0.4311
  181SLPC   C3720766   2.746   0.500   9.854  0.0736 -0.0907 -0.3976
  181SLPC   H7X20767   2.644   0.543   9.851 -0.1661 -0.6384 -0.2527
  181SLPC   H7Y20768   2.745   0.392   9.828 -0.4145 -0.0308 -0.6238
  181SLPC   C3820769   2.840   0.582   9.759  0.1565  0.1426 -0.0258
  181SLPC   H8X20770   2.935   0.527   9.742 -0.5961 -1.2415  0.1125
  181SLPC   H8Y20771   2.855   0.685   9.797 -2.1178  0.1534  0.9838
  181SLPC   C3920772   2.778   0.601   9.617  0.1136 -0.2685 -0.2729
  181SLPC   H9X20773   2.763   0.708   9.590  1.0783 -0.9024 -3.7775
  181SLPC   H9Y20774   2.673   0.567   9.627  0.5563 -1.2855  1.2825
  181SLPC  C31020775   2.845   0.522   9.510 -0.7586  0.1351  0.3345
  181SLPC  H10X20776   2.845   0.413   9.529 -0.0734 -0.1726 -1.2838
  181SLPC  H10Y20777   2.951   0.556   9.509 -0.5403 -0.4204 -2.3472
  181SLPC  C31120778   2.797   0.560   9.363 -0.2264 -0.1783 -0.3535
  181SLPC  H11X20779   2.796   0.670   9.348  0.9831 -0.0171  0.5586
  181SLPC  H11Y20780   2.694   0.527   9.339 -0.1587  0.3880 -1.4729
  181SLPC  C31220781   2.875   0.490   9.256  0.3548  0.2396  0.3168
  181SLPC  H12X20782   2.859   0.383   9.280  1.0069  0.2062  0.6176
  181SLPC  H12Y20783   2.981   0.519   9.272 -0.1375  1.2768  1.8755
  181SLPC  C31320784   2.812   0.521   9.115 -0.5355 -0.4533  0.3146
  181SLPC  H13X20785   2.796   0.631   9.113  1.3522 -0.1619 -1.0147
  181SLPC  H13Y20786   2.710   0.478   9.109 -0.2699 -0.8939 -1.4557
  181SLPC  C31420787   2.885   0.456   9.001  0.4106 -0.2089 -0.9457
  181SLPC  H14X20788   2.876   0.347   9.019  0.2696 -0.4360 -2.3058
  181SLPC  H14Y20789   2.992   0.480   9.017 -0.2644  1.9648  0.9983
  181SLPC  C31520790   2.835   0.506   8.864  0.3237  0.8841 -0.2201
  181SLPC  H15X20791   2.826   0.615   8.886  0.0261  0.3036  2.9120
  181SLPC  H15Y20792   2.733   0.465   8.849  0.0393  1.8905 -1.1822
  181SLPC  C31620793   2.923   0.439   8.756 -0.2317 -0.1791  0.3666
  181SLPC  H16X20794   3.028   0.469   8.774 -0.5022 -0.4415  2.6489
  181SLPC  H16Y20795   2.886   0.483   8.661 -2.0181 -1.0310  0.6305
  181SLPC  C31720796   2.910   0.287   8.740 -0.3600  1.2140  0.1236
  181SLPC  H17X20797   2.886   0.227   8.830  0.6197  2.2876  1.1366
  181SLPC  H17Y20798   3.006   0.247   8.701  0.0619 -0.2340  2.4978
  181SLPC  C31820799   2.797   0.247   8.638 -0.0007  0.3527 -0.3603
  181SLPC  H18X20800   2.780   0.137   8.628 -3.6558  0.7414  0.3727
  181SLPC  H18Y20801   2.823   0.286   8.537 -0.1827 -0.1931 -0.6242
  181SLPC  H18Z20802   2.698   0.295   8.651 -0.5395 -0.6122 -0.8028
  182SLPC     N20803   1.714   1.526  10.978 -0.5149  0.5026 -0.0953
  182SLPC   C1320804   1.672   1.408  11.063  0.7806 -0.8755 -0.2226
  182SLPC  H13A20805   1.755   1.352  11.105  1.6025 -0.4536 -1.2298
  182SLPC  H13B20806   1.617   1.439  11.151  1.6980 -0.9181  0.3947
  182SLPC  H13C20807   1.621   1.337  11.000 -3.1175  1.6160 -0.2039
  182SLPC   C1420808   1.759   1.632  11.083  0.0765 -0.8180  0.5867
  182SLPC  H14A20809   1.675   1.676  11.136 -0.9868 -1.0325 -0.8533
  182SLPC  H14B20810   1.817   1.584  11.160 -1.8277 -3.1096  0.7294
  182SLPC  H14C20811   1.816   1.712  11.038  2.4349 -0.2794  4.1420
  182SLPC   C1520812   1.587   1.579  10.910  0.1752  0.5603  0.5082
  182SLPC  H15A20813   1.605   1.662  10.843 -1.2809 -1.2925 -2.3883
  182SLPC  H15B20814   1.544   1.504  10.845 -1.0962  1.8337 -0.1835
  182SLPC  H15C20815   1.509   1.603  10.980  0.1560 -0.8786  1.0252
  182SLPC   C1220816   1.830   1.476  10.889 -0.0152  0.0640  1.2793
  182SLPC  H12A20817   1.911   1.451  10.956  0.2437 -2.0031  0.2591
  182SLPC  H12B20818   1.858   1.560  10.826 -1.9550 -0.0361  0.2127
  182SLPC   C1120819   1.806   1.358  10.795 -0.3892 -0.2270  0.3914
  182SLPC  H11A20820   1.893   1.348  10.727 -1.9609  1.1446 -1.9469
  182SLPC  H11B20821   1.713   1.369  10.736  1.1703 -1.3245 -2.5103
  182SLPC     P20822   1.773   1.101  10.803  0.0695 -0.0309  0.4202
  182SLPC   O1320823   1.864   1.017  10.879  0.0452  0.0942 -0.7720
  182SLPC   O1420824   1.631   1.059  10.783  0.2198 -0.0330 -0.5829
  182SLPC   O1220825   1.782   1.241  10.871 -0.1180  0.0330  0.0105
  182SLPC   O1120826   1.841   1.132  10.663 -0.3155  0.3395  0.0072
  182SLPC    C120827   1.897   1.031  10.577  0.3239 -0.3388  0.2126
  182SLPC    HA20828   1.975   1.070  10.509  0.2922  0.3463  0.5663
  182SLPC    HB20829   1.948   0.947  10.629  1.2377  0.2357  0.2475
  182SLPC    C220830   1.781   0.965  10.498  0.1139 -0.0147 -0.1893
  182SLPC    HS20831   1.714   0.910  10.567  1.3211  0.5747  1.5139
  182SLPC   O2120832   1.854   0.886  10.392  0.2649 -0.0205 -0.3811
  182SLPC   C2120833   1.784   0.788  10.351  0.3731  0.0704 -0.0093
  182SLPC   O2220834   1.671   0.752  10.380  0.5660  0.0755 -0.0940
  182SLPC   C2220835   1.869   0.707  10.248 -0.5600 -0.4041  1.0885
  182SLPC   H2R20836   1.833   0.742  10.149  2.8770  2.0151  0.5037
  182SLPC   H2S20837   1.974   0.740  10.269 -0.4062  0.4641 -0.8011
  182SLPC    C320838   1.700   1.080  10.423 -0.6378 -0.1912 -0.3091
  182SLPC    HX20839   1.774   1.146  10.371  0.8086 -2.2419 -1.0209
  182SLPC    HY20840   1.647   1.142  10.498  1.7813  1.1451  0.4035
  182SLPC   O3120841   1.609   1.032  10.322  0.1864 -0.1846 -0.1076
  182SLPC   C3120842   1.482   1.016  10.360  0.4792  0.1623 -0.0080
  182SLPC   O3220843   1.446   1.009  10.478  0.2790  0.1268  0.1407
  182SLPC   C3220844   1.383   1.012  10.242 -0.4322 -0.3842 -0.2463
  182SLPC   H2X20845   1.321   1.104  10.243  3.2102  2.3314  0.5465
  182SLPC   H2Y20846   1.325   0.919  10.259  0.2137 -1.1601 -2.0130
  182SLPC   C2320847   1.857   0.550  10.267  0.5554  0.0288 -0.1613
  182SLPC   H3R20848   1.756   0.518  10.235  0.9133 -0.8752 -0.4442
  182SLPC   H3S20849   1.868   0.526  10.375  2.0727 -0.0831 -0.3056
  182SLPC   C2420850   1.976   0.475  10.192 -0.3951 -0.0596  0.4624
  182SLPC   H4R20851   1.996   0.383  10.251 -0.9636  0.2474  1.1626
  182SLPC   H4S20852   2.072   0.529  10.204  1.1705 -1.7716 -3.1297
  182SLPC   C2520853   1.961   0.427  10.043  0.1765  0.0240 -0.1332
  182SLPC   H5R20854   1.902   0.333  10.048 -2.3798  1.4832 -0.4875
  182SLPC   H5S20855   2.061   0.391  10.012  0.4935  0.4153  0.4217
  182SLPC   C2620856   1.911   0.525   9.946  0.3488  0.4747  0.6269
  182SLPC   H6R20857   1.979   0.612   9.960  1.4163 -0.4889  1.6225
  182SLPC   H6S20858   1.807   0.560   9.961 -0.3107 -1.7121  1.5699
  182SLPC   C2720859   1.924   0.479   9.800  0.0847 -0.2068  0.1045
  182SLPC   H7R20860   1.911   0.563   9.729  1.0619 -0.5721 -0.5370
  182SLPC   H7S20861   1.848   0.405   9.767 -0.5670  0.7952 -0.6911
  182SLPC   C2820862   2.059   0.413   9.754 -0.1469  0.5209  0.5060
  182SLPC   H8R20863   2.033   0.401   9.646 -3.4864  1.9465  1.0283
  182SLPC   H8S20864   2.085   0.318   9.805  0.7945  2.0107  2.9582
  182SLPC   C2920865   2.173   0.499   9.783  0.0686  0.3139 -0.4356
  182SLPC   H9R20866   2.166   0.594   9.837 -2.9534 -1.2526  2.2455
  182SLPC  C21020867   2.305   0.468   9.756  0.8111 -0.0270 -0.2971
  182SLPC  H10R20868   2.376   0.537   9.804  0.2920 -0.1280  0.6456
  182SLPC  C21120869   2.355   0.340   9.691  0.5011 -0.2540  0.4680
  182SLPC  H11R20870   2.283   0.260   9.721 -0.9481  1.5580  2.1033
  182SLPC  H11S20871   2.463   0.332   9.713  1.1087 -0.1483 -2.2486
  182SLPC  C21220872   2.332   0.356   9.536  0.1955  0.6131 -0.0695
  182SLPC  H12R20873   2.271   0.439   9.496  0.2827  0.7373  0.0545
  182SLPC  C21320874   2.406   0.302   9.440 -0.0891  0.4139  0.0608
  182SLPC  H13R20875   2.383   0.339   9.339  0.3758  0.3558 -0.0678
  182SLPC  C21420876   2.513   0.197   9.446  0.2822  0.5751 -0.5060
  182SLPC  H14R20877   2.490   0.136   9.536 -0.7991 -1.2462 -1.9527
  182SLPC  H14S20878   2.610   0.250   9.458 -0.0638  1.2094 -0.4747
  182SLPC  C21520879   2.523   0.106   9.319  0.0952  0.2988 -0.3752
  182SLPC  H15R20880   2.429   0.049   9.307  0.6197 -0.4828 -0.8768
  182SLPC  H15S20881   2.603   0.031   9.338 -0.2672 -0.1006 -0.3979
  182SLPC  C21620882   2.564   0.194   9.196  0.0210  0.3313 -0.6157
  182SLPC  H16R20883   2.667   0.230   9.215 -0.6384  1.2607  1.5905
  182SLPC  H16S20884   2.496   0.283   9.198 -1.6149 -0.8261 -1.7728
  182SLPC  C21720885   2.552   0.146   9.052  0.0855 -0.2957 -0.3623
  182SLPC  H17R20886   2.443   0.128   9.044 -0.2344  1.0328  0.6738
  182SLPC  H17S20887   2.603   0.049   9.031 -1.7161 -1.3841  0.1007
  182SLPC  C21820888   2.584   0.253   8.950  0.0965  0.2795 -0.3680
  182SLPC  H18R20889   2.554   0.214   8.851  4.9704  1.2786 -2.5538
  182SLPC  H18S20890   2.694   0.265   8.936 -0.0855  0.5212 -1.6675
  182SLPC  H18T20891   2.531   0.350   8.963  0.0233  0.7033 -3.1554
  182SLPC   C3320892   1.461   1.010  10.105 -0.1352  0.4533  0.0890
  182SLPC   H3X20893   1.525   0.919  10.109 -1.8263 -0.7603  1.3026
  182SLPC   H3Y20894   1.521   1.103  10.090  3.4213 -1.6746 -0.0312
  182SLPC   C3420895   1.355   0.991   9.991  0.0887 -0.5249  0.6039
  182SLPC   H4X20896   1.309   1.092   9.985 -0.3396 -0.7178  0.6611
  182SLPC   H4Y20897   1.272   0.923  10.018 -1.4999  0.2330 -2.0336
  182SLPC   C3520898   1.407   0.963   9.852 -0.1912  0.2869 -0.5733
  182SLPC   H5X20899   1.331   1.014   9.789 -0.5378  1.5894  0.8249
  182SLPC   H5Y20900   1.406   0.853   9.838  0.3478 -0.1339  2.1553
  182SLPC   C3620901   1.545   1.016   9.811  0.6610  0.2613  0.5679
  182SLPC   H6X20902   1.621   0.963   9.872  0.9328 -2.5741 -1.9787
  182SLPC   H6Y20903   1.543   1.126   9.817 -0.9049  0.2234  1.0286
  182SLPC   C3720904   1.579   0.966   9.666 -0.3743 -0.2417 -0.3145
  182SLPC   H7X20905   1.559   0.857   9.661 -0.0931 -0.2682 -0.9839
  182SLPC   H7Y20906   1.690   0.966   9.661 -0.2031  0.1208  2.2419
  182SLPC   C3820907   1.529   1.053   9.551  0.3078  0.0314 -0.1780
  182SLPC   H8X20908   1.584   1.148   9.571  1.9580 -0.6300 -1.3128
  182SLPC   H8Y20909   1.422   1.083   9.546  1.0616  3.4090  1.0613
  182SLPC   C3920910   1.561   1.003   9.412  0.4184  0.0853 -0.3058
  182SLPC   H9X20911   1.492   0.921   9.385  1.3430 -0.8691  0.1625
  182SLPC   H9Y20912   1.661   0.955   9.414 -0.4290 -1.7161  0.5083
  182SLPC  C31020913   1.546   1.112   9.301  0.4205  0.6406 -0.1383
  182SLPC  H10X20914   1.466   1.178   9.342 -2.4132 -1.4144 -1.9634
  182SLPC  H10Y20915   1.500   1.075   9.207  0.5928  0.0773 -0.0064
  182SLPC  C31120916   1.680   1.189   9.275  0.1043 -0.6420 -0.1221
  182SLPC  H11X20917   1.738   1.206   9.368 -0.2269 -1.3897  0.2253
  182SLPC  H11Y20918   1.650   1.290   9.240 -0.7957 -1.9185 -3.4106
  182SLPC  C31220919   1.769   1.124   9.174 -0.1375 -0.0183 -0.2157
  182SLPC  H12X20920   1.770   1.016   9.203 -0.5718  0.6291  2.4606
  182SLPC  H12Y20921   1.871   1.165   9.190  0.4090 -1.1038 -0.7821
  182SLPC  C31320922   1.715   1.149   9.037  0.2644  0.3476 -0.6894
  182SLPC  H13X20923   1.678   1.254   9.042  1.6371  0.9481 -2.1267
  182SLPC  H13Y20924   1.639   1.071   9.015 -0.0948  0.8252 -1.2033
  182SLPC  C31420925   1.826   1.157   8.929 -0.5376  0.7373  0.3014
  182SLPC  H14X20926   1.889   1.249   8.936 -0.0878  0.4190  0.5025
  182SLPC  H14Y20927   1.769   1.170   8.835 -0.7979 -1.2900  0.1447
  182SLPC  C31520928   1.921   1.037   8.927 -0.0963 -0.5224 -0.0219
  182SLPC  H15X20929   1.854   0.949   8.919 -1.0177  0.0872  0.7015
  182SLPC  H15Y20930   1.968   1.045   9.027 -0.5521  0.8510  0.1050
  182SLPC  C31620931   2.019   1.036   8.808 -0.1649  0.7156 -0.2879
  182SLPC  H16X20932   1.983   1.023   8.703 -1.5618 -0.9509  0.3561
  182SLPC  H16Y20933   2.079   0.945   8.830 -2.1151 -0.3858  0.7480
  182SLPC  C31720934   2.105   1.156   8.807  0.1837  0.8378 -0.6815
  182SLPC  H17X20935   2.165   1.167   8.900  0.7787  0.4683 -1.0144
  182SLPC  H17Y20936   2.042   1.247   8.797 -1.2550 -0.1744 -1.2948
  182SLPC  C31820937   2.217   1.159   8.698 -0.6239 -0.4892  0.0598
  182SLPC  H18X20938   2.286   1.245   8.712  0.9119 -1.5010 -0.8664
  182SLPC  H18Y20939   2.185   1.167   8.592  2.5956  0.5531 -0.9693
  182SLPC  H18Z20940   2.281   1.069   8.715 -0.8239 -0.5892  0.2750
  183SLPC     N20941   3.867   0.941  10.790 -0.2869  0.5336  0.2922
  183SLPC   C1320942   3.885   1.095  10.794 -0.1670 -0.5878 -0.4851
  183SLPC  H13A20943   3.987   1.130  10.794 -0.2051 -0.4740 -0.5490
  183SLPC  H13B20944   3.832   1.138  10.711  0.6303 -1.2885 -1.3767
  183SLPC  H13C20945   3.846   1.141  10.884 -4.5458 -0.7518 -2.0370
  183SLPC   C1420946   3.726   0.916  10.742 -0.0474  0.2678 -0.2518
  183SLPC  H14A20947   3.715   0.946  10.639 -1.0041  3.4316  0.6750
  183SLPC  H14B20948   3.714   0.808  10.742  1.5130  0.0546  1.1696
  183SLPC  H14C20949   3.648   0.962  10.801  1.0254  1.6559  0.1174
  183SLPC   C1520950   3.875   0.884  10.929  0.6021 -0.2338  0.2663
  183SLPC  H15A20951   3.798   0.909  11.000 -0.0557 -0.9799 -0.1739
  183SLPC  H15B20952   3.864   0.777  10.928  0.2918 -0.2011  0.1897
  183SLPC  H15C20953   3.968   0.902  10.982  0.9596 -3.2084  0.7999
  183SLPC   C1220954   3.968   0.872  10.696  0.2894 -0.6555  0.1143
  183SLPC  H12A20955   4.054   0.915  10.745  0.1821 -0.1929 -0.0920
  183SLPC  H12B20956   3.955   0.919  10.599  0.8336  1.2586  0.9155
  183SLPC   C1120957   3.964   0.719  10.680 -0.3354 -0.8475 -0.0476
  183SLPC  H11A20958   4.058   0.696  10.626 -0.4052 -3.3337  0.7645
  183SLPC  H11B20959   3.875   0.694  10.618 -2.5149  1.2680  2.0246
  183SLPC     P20960   3.890   0.504  10.813 -0.2088  0.1726 -0.0245
  183SLPC   O1320961   3.978   0.423  10.901 -0.0335  0.4293 -0.6629
  183SLPC   O1420962   3.749   0.521  10.846  0.1828 -0.3476 -0.9541
  183SLPC   O1220963   3.959   0.648  10.802 -0.1008  0.1131 -0.2713
  183SLPC   O1120964   3.903   0.437  10.672 -0.1157 -0.5820 -0.2267
  183SLPC    C120965   3.815   0.327  10.639  0.6866 -0.3013 -0.2753
  183SLPC    HA20966   3.816   0.245  10.715  0.7015  1.1792  1.4057
  183SLPC    HB20967   3.709   0.358  10.639 -0.1978 -3.0068  1.6665
  183SLPC    C220968   3.850   0.268  10.498 -0.5891 -0.5896  0.0011
  183SLPC    HS20969   3.961   0.263  10.495 -0.4212  1.8273  0.2770
  183SLPC   O2120970   3.814   0.366  10.396  0.3204  0.1397  0.0148
  183SLPC   C2120971   3.876   0.346  10.284 -0.5799  0.6565  0.1793
  183SLPC   O2220972   3.961   0.262  10.265 -0.6343  0.6548 -0.9389
  183SLPC   C2220973   3.818   0.433  10.176 -0.2398  0.1380 -0.2077
  183SLPC   H2R20974   3.713   0.462  10.202 -0.9701 -2.5985  0.2328
  183SLPC   H2S20975   3.882   0.522  10.159 -0.4468  0.1954 -0.7094
  183SLPC    C320976   3.789   0.125  10.477  0.1321  0.0922  0.4562
  183SLPC    HX20977   3.820   0.074  10.571 -0.1048  2.6135  2.0021
  183SLPC    HY20978   3.822   0.060  10.393 -0.9272 -0.2768  0.3033
  183SLPC   O3120979   3.641   0.130  10.472 -0.1604  0.0211 -0.7087
  183SLPC   C3120980   3.586   0.144  10.345 -0.3529 -0.5020 -0.0683
  183SLPC   O3220981   3.652   0.143  10.244 -0.1972  0.5372  0.0941
  183SLPC   C3220982   3.443   0.199  10.357 -0.0079 -0.9812 -0.0583
  183SLPC   H2X20983   3.455   0.297  10.409 -0.9547 -1.2703  0.7405
  183SLPC   H2Y20984   3.388   0.126  10.420 -0.1205 -0.7914  0.0656
  183SLPC   C2320985   3.822   0.358  10.037 -0.6401 -0.6056  0.1931
  183SLPC   H3R20986   3.740   0.283  10.039  1.0723 -2.6042 -1.2387
  183SLPC   H3S20987   3.921   0.312  10.021 -1.7310 -2.7042 -0.9922
  183SLPC   C2420988   3.803   0.451   9.919  0.2244 -0.6868 -0.0145
  183SLPC   H4R20989   3.890   0.513   9.887 -1.4318  1.1584 -1.2073
  183SLPC   H4S20990   3.726   0.527   9.944  2.9008  2.5016 -0.6722
  183SLPC   C2520991   3.758   0.382   9.788  0.3886 -0.0282 -0.4513
  183SLPC   H5R20992   3.659   0.333   9.803 -0.0567  0.8421 -0.4699
  183SLPC   H5S20993   3.823   0.296   9.764 -1.2889 -2.1236  1.9540
  183SLPC   C2620994   3.766   0.474   9.669 -0.3078 -0.6417 -0.0650
  183SLPC   H6R20995   3.871   0.508   9.671 -0.5245  0.0456 -0.2367
  183SLPC   H6S20996   3.692   0.556   9.686  0.9727  0.5738 -0.1786
  183SLPC   C2720997   3.727   0.390   9.542  0.3458 -0.2954  0.2530
  183SLPC   H7R20998   3.621   0.360   9.548  0.5792 -1.2559 -0.2956
  183SLPC   H7S20999   3.783   0.294   9.542  2.0605  0.6513 -0.1546
  183SLPC   C2821000   3.760   0.475   9.413 -0.1651  0.2472 -0.3185
  183SLPC   H8R21001   3.732   0.412   9.327  2.8391 -1.0317 -0.5004
  183SLPC   H8S21002   3.868   0.493   9.397 -0.1622 -0.0537 -0.6347
  183SLPC   C2921003   3.701   0.613   9.409  0.0167 -0.4886 -0.1598
  183SLPC   H9R21004   3.705   0.672   9.501  2.7750 -2.0032  0.8211
  183SLPC  C21021005   3.662   0.674   9.296  0.3866  0.3225 -0.3526
  183SLPC  H10R21006   3.623   0.776   9.313 -1.1640 -0.3804  0.4450
  183SLPC  C21121007   3.662   0.630   9.149  0.0018  0.5396 -0.0394
  183SLPC  H11R21008   3.627   0.525   9.143  2.1078 -0.2553  0.4513
  183SLPC  H11S21009   3.768   0.612   9.119  0.7848 -1.9238  3.5583
  183SLPC  C21221010   3.589   0.714   9.044  0.8875 -0.4032  1.2278
  183SLPC  H12R21011   3.490   0.756   9.067 -0.5758 -2.0403 -1.5473
  183SLPC  C21321012   3.633   0.735   8.916  0.5298  0.0283 -0.1926
  183SLPC  H13R21013   3.575   0.801   8.850 -0.4977 -1.4649 -0.8473
  183SLPC  C21421014   3.747   0.673   8.834  0.1926 -0.2828 -0.8657
  183SLPC  H14R21015   3.840   0.682   8.893  1.8734 -2.5482 -2.9422
  183SLPC  H14S21016   3.765   0.738   8.746 -2.9699  0.9440 -0.7408
  183SLPC  C21521017   3.720   0.524   8.793  0.4568 -0.5307 -0.1793
  183SLPC  H15R21018   3.699   0.473   8.890  2.2188  0.7987  0.9782
  183SLPC  H15S21019   3.810   0.476   8.749  1.9905  2.0500 -0.0569
  183SLPC  C21621020   3.601   0.509   8.695 -0.0668  0.4631 -0.3405
  183SLPC  H16R21021   3.615   0.573   8.605  1.4609 -1.2611 -1.3937
  183SLPC  H16S21022   3.504   0.537   8.740 -0.1151 -0.7961  0.3857
  183SLPC  C21721023   3.578   0.364   8.653 -0.7043  0.2238 -0.6540
  183SLPC  H17R21024   3.486   0.354   8.593 -2.2136 -0.9197  1.6904
  183SLPC  H17S21025   3.565   0.302   8.745 -1.3890  0.5222 -0.5474
  183SLPC  C21821026   3.683   0.299   8.565 -0.0220 -0.3533 -0.2708
  183SLPC  H18R21027   3.672   0.191   8.539 -1.4077  0.0822 -1.6709
  183SLPC  H18S21028   3.786   0.320   8.601  0.4959 -1.4650 -1.0235
  183SLPC  H18T21029   3.671   0.350   8.467 -2.8379 -2.8776 -1.4327
  183SLPC   C3321030   3.367   0.222  10.226 -0.0125 -0.7557 -0.8268
  183SLPC   H3X21031   3.438   0.274  10.158 -0.7546 -1.0276 -1.8238
  183SLPC   H3Y21032   3.283   0.294  10.237 -1.2109 -2.1936 -0.1675
  183SLPC   C3421033   3.314   0.093  10.162 -0.2732 -0.5379  0.5369
  183SLPC   H4X21034   3.250   0.049  10.241 -0.4429  1.2611  1.4581
  183SLPC   H4Y21035   3.406   0.031  10.152  0.7371  0.8850  0.6407
  183SLPC   C3521036   3.238   0.115  10.028  0.2551 -0.0353  0.4086
  183SLPC   H5X21037   3.214   0.224  10.030 -1.8361 -0.4574  0.5205
  183SLPC   H5Y21038   3.145   0.055  10.031  0.9867 -1.3570 -1.5373
  183SLPC   C3621039   3.334   0.068   9.913 -0.2105 -0.5082  0.1319
  183SLPC   H6X21040   3.428   0.121   9.937  0.1009 -0.8294 -0.3499
  183SLPC   H6Y21041   3.295   0.107   9.817 -0.7706 -2.0025 -0.2824
  183SLPC   C3721042   3.360  -0.082   9.914 -0.0777  0.1848 -0.1823
  183SLPC   H7X21043   3.259  -0.129   9.914 -0.6614  1.3871 -0.9225
  183SLPC   H7Y21044   3.419  -0.108  10.005 -0.1564  0.6257  0.0005
  183SLPC   C3821045   3.440  -0.129   9.790  0.0942  0.2755  0.4882
  183SLPC   H8X21046   3.474  -0.233   9.811 -2.7969 -0.4045  2.2431
  183SLPC   H8Y21047   3.527  -0.063   9.769  0.3162 -0.0310  0.4282
  183SLPC   C3921048   3.354  -0.124   9.666 -0.2398  0.1370  0.0529
  183SLPC   H9X21049   3.309  -0.025   9.648 -0.9201 -0.3751 -1.1622
  183SLPC   H9Y21050   3.270  -0.192   9.691  0.3649 -0.7824 -0.3225
  183SLPC  C31021051   3.437  -0.161   9.542 -0.1257  0.2515 -0.4573
  183SLPC  H10X21052   3.454  -0.271   9.534  0.0290  0.2687 -0.3772
  183SLPC  H10Y21053   3.539  -0.118   9.549  0.3438 -0.5417 -1.9165
  183SLPC  C31121054   3.379  -0.096   9.418 -0.4067  0.3353 -0.5726
  183SLPC  H11X21055   3.370   0.013   9.437  1.2866  0.6913 -1.6275
  183SLPC  H11Y21056   3.276  -0.136   9.412  0.4754 -2.0426 -0.9352
  183SLPC  C31221057   3.467  -0.129   9.296  0.1635 -0.6289  0.2431
  183SLPC  H12X21058   3.475  -0.240   9.304 -2.9977 -0.9471  0.3289
  183SLPC  H12Y21059   3.566  -0.079   9.298 -1.0924  2.1101 -1.1968
  183SLPC  C31321060   3.395  -0.090   9.169 -0.3545  0.1721  0.2420
  183SLPC  H13X21061   3.339   0.006   9.181 -0.1175  0.0187  3.9384
  183SLPC  H13Y21062   3.339  -0.185   9.155 -0.0565  0.0343  0.0046
  183SLPC  C31421063   3.488  -0.079   9.046 -0.0169  0.2356  0.3509
  183SLPC  H14X21064   3.434  -0.051   8.953  1.5891  4.8589  0.5679
  183SLPC  H14Y21065   3.538  -0.177   9.029 -3.2324 -1.1380 -2.4432
  183SLPC  C31521066   3.605   0.032   9.056  0.6757  0.6051 -0.5325
  183SLPC  H15X21067   3.672   0.014   9.144 -0.5934 -0.1817  0.3056
  183SLPC  H15Y21068   3.558   0.129   9.080  2.1830  1.3537 -0.4737
  183SLPC  C31621069   3.699   0.048   8.941 -0.6642  0.7028  0.3435
  183SLPC  H16X21070   3.645   0.035   8.844 -0.4476  1.1520  0.1611
  183SLPC  H16Y21071   3.773  -0.035   8.936  0.2984  1.4946  1.2292
  183SLPC  C31721072   3.779   0.178   8.958  0.0238 -0.1339 -0.6597
  183SLPC  H17X21073   3.711   0.266   8.964  1.6365  1.4661 -3.6730
  183SLPC  H17Y21074   3.831   0.197   8.862  2.5510  1.5521  0.9434
  183SLPC  C31821075   3.871   0.179   9.076 -0.0000  0.1666 -0.2410
  183SLPC  H18X21076   3.939   0.265   9.057 -1.9394  2.0086  0.8485
  183SLPC  H18Y21077   3.927   0.084   9.095 -0.2919  0.2078  0.8707
  183SLPC  H18Z21078   3.813   0.200   9.168 -0.9377  1.3244 -1.0638
  184SLPC     N21079   4.829   4.769  10.681 -0.0105  0.0163 -0.3261
  184SLPC   C1321080   4.714   4.864  10.679  0.4325  0.0692 -0.2487
  184SLPC  H13A21081   4.667   4.853  10.776  3.0814 -0.3375  1.0740
  184SLPC  H13B21082   4.745   4.966  10.666 -0.7306  0.4197 -0.3825
  184SLPC  H13C21083   4.645   4.850  10.596 -0.9935  3.1170  0.2862
  184SLPC   C1421084   4.929   4.804  10.788 -0.7005  0.2436  0.6803
  184SLPC  H14A21085   4.953   4.909  10.776 -0.4163  0.0870 -0.1400
  184SLPC  H14B21086   4.885   4.791  10.886  1.6849 -0.2118  1.7621
  184SLPC  H14C21087   5.029   4.766  10.777  0.5420  1.9875  4.4251
  184SLPC   C1521088   4.892   4.778  10.542  0.1367  0.1555 -0.0789
  184SLPC  H15A21089   4.925   4.879  10.528 -2.7123  1.1641 -0.2223
  184SLPC  H15B21090   4.972   4.706  10.546  0.7783  0.7152 -1.9277
  184SLPC  H15C21091   4.820   4.740  10.471 -1.0944 -0.0878  1.2305
  184SLPC   C1221092   4.772   4.627  10.696 -0.9029 -0.1066  0.1516
  184SLPC  H12A21093   4.686   4.611  10.633  0.5176  0.4318 -2.0109
  184SLPC  H12B21094   4.730   4.625  10.796 -1.0895  0.2962  0.0848
  184SLPC   C1121095   4.869   4.514  10.674 -0.5702 -0.0114  0.2219
  184SLPC  H11A21096   4.950   4.502  10.748 -0.9528 -1.2848  0.4623
  184SLPC  H11B21097   4.931   4.521  10.582 -0.2024 -0.0741  0.4664
  184SLPC     P21098   4.678   4.355  10.585 -0.0621  0.1092  0.5060
  184SLPC   O1321099   4.698   4.212  10.550 -0.6831 -0.2537  0.5642
  184SLPC   O1421100   4.545   4.403  10.628  0.5043  0.8947  0.5513
  184SLPC   O1221101   4.796   4.393  10.681 -0.1406 -0.3576 -0.1707
  184SLPC   O1121102   4.720   4.430  10.450 -0.1975 -0.3648 -0.0517
  184SLPC    C121103   4.830   4.407  10.362 -0.2030  0.0053 -0.7395
  184SLPC    HA21104   4.857   4.513  10.342 -3.6032  1.8911  3.0442
  184SLPC    HB21105   4.917   4.361  10.413  0.7402  3.3994  1.0793
  184SLPC    C221106   4.783   4.336  10.233  0.2709 -0.2375  1.3068
  184SLPC    HS21107   4.775   4.228  10.255  1.5902 -0.1723  2.3315
  184SLPC   O2121108   4.885   4.344  10.131  0.2812  0.1368 -0.3597
  184SLPC   C2121109   4.995   4.280  10.161 -0.3125  0.3397  0.1495
  184SLPC   O2221110   5.013   4.203  10.251  0.0070  0.0179 -0.1064
  184SLPC   C2221111   5.103   4.316  10.052  0.7461 -0.1401  0.9390
  184SLPC   H2R21112   5.047   4.300   9.958  1.2615  1.7622  0.2661
  184SLPC   H2S21113   5.116   4.425  10.064 -0.0427  0.1250 -0.4871
  184SLPC    C321114   4.646   4.398  10.180 -0.0281  0.1133 -0.1388
  184SLPC    HX21115   4.662   4.505  10.155 -1.7976  0.2457 -0.8277
  184SLPC    HY21116   4.575   4.396  10.266  1.5508  2.3974  1.3253
  184SLPC   O3121117   4.606   4.326  10.062 -0.3578 -1.4350  0.4718
  184SLPC   C3121118   4.489   4.350  10.021  0.0342  0.0368  0.4807
  184SLPC   O3221119   4.410   4.421  10.081 -0.3789  0.9701  0.2145
  184SLPC   C3221120   4.457   4.279   9.889 -0.3132 -0.3661 -0.3390
  184SLPC   H2X21121   4.533   4.200   9.870  0.1732 -0.1173  0.4937
  184SLPC   H2Y21122   4.471   4.363   9.817  4.2769 -1.3076 -0.8655
  184SLPC   C2321123   5.222   4.228  10.059  0.3154 -0.0609  0.3043
  184SLPC   H3R21124   5.186   4.123  10.052  4.1720 -1.5397  0.5877
  184SLPC   H3S21125   5.280   4.240  10.153  3.0238 -2.0642 -0.9952
  184SLPC   C2421126   5.307   4.247   9.934  0.1741  0.1795 -0.8487
  184SLPC   H4R21127   5.415   4.254   9.961 -0.3038  1.3332  0.9476
  184SLPC   H4S21128   5.282   4.349   9.898 -0.0311  0.0801 -0.9895
  184SLPC   C2521129   5.268   4.141   9.827  0.0674 -0.1972  0.4626
  184SLPC   H5R21130   5.158   4.132   9.813  0.3296 -0.5583 -1.9514
  184SLPC   H5S21131   5.302   4.043   9.867  3.1010  0.8536  0.6664
  184SLPC   C2621132   5.340   4.162   9.683  0.2775  0.0929 -0.4404
  184SLPC   H6R21133   5.299   4.254   9.636 -2.6203 -2.0535 -2.4974
  184SLPC   H6S21134   5.312   4.079   9.615 -0.1218 -0.1384 -0.0004
  184SLPC   C2721135   5.494   4.168   9.701 -0.7477 -0.1810  0.3959
  184SLPC   H7R21136   5.536   4.081   9.756  2.0227  1.3592  0.8903
  184SLPC   H7S21137   5.522   4.257   9.760 -1.4042 -0.1459  0.6652
  184SLPC   C2821138   5.559   4.164   9.560 -0.6627  0.0798 -0.0891
  184SLPC   H8R21139   5.522   4.245   9.495  0.6255  0.4517 -0.3950
  184SLPC   H8S21140   5.518   4.078   9.503  0.3770 -2.1321  2.2964
  184SLPC   C2921141   5.714   4.160   9.555  0.4732 -0.1641 -0.3870
  184SLPC   H9R21142   5.761   4.188   9.651 -3.3802  0.6051  1.4679
  184SLPC  C21021143   5.799   4.129   9.453  0.3377  0.3880 -0.1092
  184SLPC  H10R21144   5.907   4.116   9.472  0.7003  2.9740  0.0441
  184SLPC  C21121145   5.747   4.091   9.313 -0.1677 -0.3304 -0.2227
  184SLPC  H11R21146   5.640   4.061   9.313 -1.2912  3.2094 -0.0020
  184SLPC  H11S21147   5.803   3.997   9.290 -0.5401 -0.4249 -0.7670
  184SLPC  C21221148   5.763   4.183   9.200 -0.5583 -0.4377 -0.1218
  184SLPC  H12R21149   5.858   4.239   9.200 -0.8098  0.0102 -1.2555
  184SLPC  C21321150   5.678   4.205   9.095  1.1160 -0.8706  0.1772
  184SLPC  H13R21151   5.711   4.286   9.028  0.3311  0.3531  1.1985
  184SLPC  C21421152   5.543   4.140   9.078  1.3153 -0.0232 -0.9106
  184SLPC  H14R21153   5.538   4.038   9.122  0.3953  0.7895  1.0139
  184SLPC  H14S21154   5.521   4.129   8.970 -1.8718  1.2918 -0.5115
  184SLPC  C21521155   5.419   4.223   9.129 -0.3995 -0.1742  0.3616
  184SLPC  H15R21156   5.413   4.314   9.066  0.8712  1.4245  2.3968
  184SLPC  H15S21157   5.454   4.264   9.226  2.5238  0.8219 -0.9853
  184SLPC  C21621158   5.286   4.150   9.134 -0.0355  0.0659 -0.2096
  184SLPC  H16R21159   5.279   4.081   9.047  2.3713 -0.0681 -0.3749
  184SLPC  H16S21160   5.208   4.227   9.116 -0.8462  0.3605  3.7163
  184SLPC  C21721161   5.257   4.079   9.264  0.1121  0.5861  0.0350
  184SLPC  H17R21162   5.240   4.156   9.341 -0.2658  0.3559  0.1854
  184SLPC  H17S21163   5.341   4.010   9.290 -0.6591 -0.9782 -1.4000
  184SLPC  C21821164   5.130   3.996   9.268  0.1556 -0.5913  0.2443
  184SLPC  H18R21165   5.148   3.921   9.348  1.9465 -1.6551 -1.0774
  184SLPC  H18S21166   5.121   3.944   9.171  1.9318  0.6627 -0.6394
  184SLPC  H18T21167   5.039   4.059   9.285  0.5382  0.1477 -0.3879
  184SLPC   C3321168   4.303   4.228   9.889 -0.0467 -0.2812 -0.1371
  184SLPC   H3X21169   4.235   4.312   9.912  0.1428 -0.1506 -0.0444
  184SLPC   H3Y21170   4.295   4.151   9.968  3.5176 -0.3303  0.3629
  184SLPC   C3421171   4.263   4.175   9.744 -0.4645  0.4929  0.1511
  184SLPC   H4X21172   4.159   4.137   9.747  0.0354 -0.9227  0.4230
  184SLPC   H4Y21173   4.331   4.093   9.713  1.4562  2.2865 -0.6747
  184SLPC   C3521174   4.278   4.289   9.629  0.0729 -0.0692  0.4046
  184SLPC   H5X21175   4.382   4.312   9.600  0.0241  2.4615  2.0130
  184SLPC   H5Y21176   4.244   4.384   9.675  0.8106  0.1183  0.5622
  184SLPC   C3621177   4.200   4.262   9.499  0.7506  0.0984  0.7255
  184SLPC   H6X21178   4.218   4.354   9.438 -1.2286 -0.6099 -1.0218
  184SLPC   H6Y21179   4.093   4.250   9.525 -0.0522  1.2686 -1.7647
  184SLPC   C3721180   4.243   4.136   9.422  0.2576 -0.3355 -0.7999
  184SLPC   H7X21181   4.185   4.046   9.450  0.7496 -0.5695 -0.5264
  184SLPC   H7Y21182   4.349   4.118   9.448  0.1258  0.9766  0.7879
  184SLPC   C3821183   4.223   4.153   9.274  0.0661  0.0942 -0.6146
  184SLPC   H8X21184   4.129   4.210   9.258 -2.5397 -3.1573  1.6186
  184SLPC   H8Y21185   4.207   4.053   9.229  0.1514  0.2043 -0.8900
  184SLPC   C3921186   4.344   4.226   9.214  0.2906  0.3871 -0.0058
  184SLPC   H9X21187   4.431   4.173   9.259 -0.4557 -0.1806  0.7889
  184SLPC   H9Y21188   4.353   4.333   9.241 -0.0988 -0.1659  2.4981
  184SLPC  C31021189   4.372   4.208   9.065 -0.3688 -0.3811 -0.3332
  184SLPC  H10X21190   4.385   4.105   9.024  1.5676 -0.2996 -0.0451
  184SLPC  H10Y21191   4.466   4.264   9.041 -0.6532  0.0100 -0.5399
  184SLPC  C31121192   4.273   4.286   8.980 -0.5530  0.0261 -0.3391
  184SLPC  H11X21193   4.279   4.386   9.027  1.6951 -0.0962 -0.2489
  184SLPC  H11Y21194   4.186   4.220   9.001 -0.1085 -0.4705  0.0163
  184SLPC  C31221195   4.314   4.308   8.831 -0.0521  0.3893 -0.0102
  184SLPC  H12X21196   4.392   4.387   8.823  0.3025  0.0154 -0.2946
  184SLPC  H12Y21197   4.228   4.347   8.773  0.3295 -0.3005 -1.0751
  184SLPC  C31321198   4.361   4.181   8.759  0.2821  0.1541 -0.4893
  184SLPC  H13X21199   4.296   4.098   8.792  2.7069 -1.9816 -0.7798
  184SLPC  H13Y21200   4.466   4.149   8.776  0.4508  1.2436  0.6435
  184SLPC  C31421201   4.335   4.201   8.609 -0.1753 -0.3086  0.2586
  184SLPC  H14X21202   4.264   4.286   8.594 -1.4875 -1.3282  0.4960
  184SLPC  H14Y21203   4.281   4.111   8.574 -1.1378  0.2380  0.3092
  184SLPC  C31521204   4.469   4.213   8.533  0.4000  0.0043 -0.8903
  184SLPC  H15X21205   4.522   4.116   8.534 -0.5983 -0.5698 -1.5217
  184SLPC  H15Y21206   4.535   4.275   8.596  1.1699 -0.9763 -0.7236
  184SLPC  C31621207   4.447   4.280   8.395  0.0200 -0.0999  0.3452
  184SLPC  H16X21208   4.386   4.370   8.416  1.3621  0.6733  1.0318
  184SLPC  H16Y21209   4.390   4.216   8.324  1.5511  0.4553 -1.4695
  184SLPC  C31721210   4.586   4.315   8.331  0.5669 -0.0142 -0.1864
  184SLPC  H17X21211   4.645   4.222   8.315  1.4882  0.7341 -1.2591
  184SLPC  H17Y21212   4.649   4.384   8.391  0.8717  1.1650 -1.8221
  184SLPC  C31821213   4.568   4.397   8.205  0.7372  0.0960  0.8323
  184SLPC  H18X21214   4.521   4.327   8.133 -0.6727  1.4107  0.4050
  184SLPC  H18Y21215   4.663   4.437   8.163  0.7795 -0.9529 -0.0994
  184SLPC  H18Z21216   4.498   4.484   8.213  0.3564 -0.0681 -0.4250
  185SLPC     N21217   3.016   6.727   6.455 -0.6358  0.1329  0.3910
  185SLPC   C1321218   3.034   6.784   6.317 -0.1428 -0.5317  0.8324
  185SLPC  H13A21219   3.012   6.890   6.313 -1.3538 -0.7444  1.4261
  185SLPC  H13B21220   3.135   6.786   6.278 -0.4344 -1.0700  0.0271
  185SLPC  H13C21221   2.965   6.741   6.247 -1.9082  4.4987 -0.9791
  185SLPC   C1421222   3.022   6.576   6.449 -0.8212  0.0154 -0.4906
  185SLPC  H14A21223   2.952   6.528   6.383 -1.5239 -0.8118  0.8088
  185SLPC  H14B21224   3.124   6.550   6.426 -0.8779 -1.6090  0.8985
  185SLPC  H14C21225   2.995   6.537   6.546 -2.5492  0.4047 -0.7814
  185SLPC   C1521226   2.878   6.751   6.496 -0.1598 -0.3201 -0.0802
  185SLPC  H15A21227   2.858   6.857   6.494 -0.6287 -0.4150 -0.3741
  185SLPC  H15B21228   2.803   6.712   6.430 -1.7060 -0.2689  1.5571
  185SLPC  H15C21229   2.867   6.720   6.599 -1.2112 -0.0825 -0.1110
  185SLPC   C1221230   3.117   6.781   6.552 -0.1957  0.1144 -0.3050
  185SLPC  H12A21231   3.089   6.747   6.651 -1.0207 -0.8432 -0.8465
  185SLPC  H12B21232   3.112   6.889   6.554  0.9161  0.1726  0.0811
  185SLPC   C1121233   3.264   6.744   6.537  0.1699 -0.2731  0.6268
  185SLPC  H11A21234   3.277   6.634   6.527  0.0734 -0.0395 -3.7120
  185SLPC  H11B21235   3.324   6.772   6.627  0.8479  0.2757  0.0125
  185SLPC     P21236   3.378   6.948   6.440 -0.4387 -0.0759 -0.3010
  185SLPC   O1321237   3.457   6.979   6.321 -0.1257  0.0003 -0.1385
  185SLPC   O1421238   3.277   7.045   6.494 -0.0086 -0.1452 -0.0099
  185SLPC   O1221239   3.320   6.804   6.421 -0.1278  0.2661 -0.5544
  185SLPC   O1121240   3.487   6.929   6.558  0.2152 -0.6505  0.1299
  185SLPC    C121241   3.590   7.037   6.570  0.7523  0.5781 -0.5968
  185SLPC    HA21242   3.684   7.001   6.524  2.3728 -0.1880  2.9680
  185SLPC    HB21243   3.555   7.125   6.512 -0.5558 -0.1681 -0.9820
  185SLPC    C221244   3.613   7.070   6.715  0.0904 -0.4007 -0.0489
  185SLPC    HS21245   3.668   6.983   6.758  2.3148  0.3768 -1.1642
  185SLPC   O2121246   3.486   7.110   6.768 -0.2459  0.0493 -0.2901
  185SLPC   C2121247   3.468   7.063   6.888  0.0727 -0.3052  0.9802
  185SLPC   O2221248   3.545   6.985   6.946  1.0635  0.0069 -0.0711
  185SLPC   C2221249   3.353   7.131   6.953  0.0172  0.0319  0.2244
  185SLPC   H2R21250   3.333   7.224   6.896  0.8556 -0.2437 -0.5492
  185SLPC   H2S21251   3.260   7.071   6.953 -0.7637  1.1900 -0.5825
  185SLPC    C321252   3.710   7.190   6.724  0.6347 -0.2824 -0.0646
  185SLPC    HX21253   3.659   7.278   6.681  1.2978 -0.8209 -2.0535
  185SLPC    HY21254   3.793   7.171   6.653 -0.5524  0.1392 -1.6235
  185SLPC   O3121255   3.762   7.220   6.851 -0.4235  0.1188 -0.0033
  185SLPC   C3121256   3.695   7.317   6.918 -0.7316  0.0046 -0.0396
  185SLPC   O3221257   3.594   7.372   6.885  0.3579  0.3438 -1.1765
  185SLPC   C3221258   3.781   7.334   7.051  0.3358 -0.3977  0.6345
  185SLPC   H2X21259   3.878   7.379   7.021  1.1089 -0.4060  2.8925
  185SLPC   H2Y21260   3.800   7.233   7.095 -0.7060 -1.1629 -0.5772
  185SLPC   C2321261   3.400   7.154   7.099  0.1561  0.2371  0.3171
  185SLPC   H3R21262   3.500   7.203   7.088 -0.7321  1.8760 -0.9699
  185SLPC   H3S21263   3.415   7.061   7.158 -0.1446 -0.7983 -1.1974
  185SLPC   C2421264   3.309   7.256   7.162  0.6457 -0.4366  0.3440
  185SLPC   H4R21265   3.203   7.242   7.133  0.6315  0.7917 -0.2843
  185SLPC   H4S21266   3.328   7.362   7.133  0.5008 -0.1550  1.2516
  185SLPC   C2521267   3.332   7.249   7.309 -0.0055 -0.7220  0.6311
  185SLPC   H5R21268   3.440   7.233   7.329  0.3053  0.4750 -0.0144
  185SLPC   H5S21269   3.291   7.153   7.347 -0.4504 -1.1343 -0.8293
  185SLPC   C2621270   3.281   7.367   7.384  0.4392  0.3884  0.1619
  185SLPC   H6R21271   3.174   7.383   7.358  0.4413  1.7299  0.9110
  185SLPC   H6S21272   3.341   7.457   7.357  1.6035 -0.0716  1.1489
  185SLPC   C2721273   3.304   7.353   7.533  0.2942 -0.1853  0.8899
  185SLPC   H7R21274   3.412   7.365   7.555  0.4897  4.3399 -1.4313
  185SLPC   H7S21275   3.264   7.262   7.583 -1.0604 -0.5008 -0.6995
  185SLPC   C2821276   3.231   7.466   7.609 -0.3916 -0.2372  0.8372
  185SLPC   H8R21277   3.124   7.442   7.587 -0.1923 -0.3632 -0.0206
  185SLPC   H8S21278   3.257   7.563   7.560 -1.4057  0.3962  1.5009
  185SLPC   C2921279   3.271   7.465   7.752  0.2815  0.0530  0.1587
  185SLPC   H9R21280   3.365   7.517   7.778  0.8135 -1.5909  1.6903
  185SLPC  C21021281   3.195   7.400   7.848 -0.0519 -0.5844  0.6133
  185SLPC  H10R21282   3.238   7.408   7.949 -2.0888  0.9893  1.4381
  185SLPC  C21121283   3.066   7.327   7.830 -0.1610 -0.3837 -0.8727
  185SLPC  H11R21284   3.047   7.243   7.900 -0.3761 -0.2589 -0.7790
  185SLPC  H11S21285   3.079   7.277   7.732 -1.2364  0.9783 -1.7392
  185SLPC  C21221286   2.940   7.408   7.833  0.3561  0.3287  0.4685
  185SLPC  H12R21287   2.940   7.502   7.776 -0.7730  1.1892  1.7838
  185SLPC  C21321288   2.823   7.390   7.905 -0.0844  0.8442 -0.6135
  185SLPC  H13R21289   2.745   7.466   7.888 -0.0676  0.1158 -5.5752
  185SLPC  C21421290   2.798   7.287   8.014  0.7105  0.2805  0.7065
  185SLPC  H14R21291   2.721   7.322   8.087  0.0952  1.2159 -0.3650
  185SLPC  H14S21292   2.888   7.276   8.078  0.9888  0.4773  0.3480
  185SLPC  C21521293   2.735   7.158   7.959 -0.8363 -0.2379 -0.1114
  185SLPC  H15R21294   2.811   7.108   7.896  0.2941 -0.6878  1.5460
  185SLPC  H15S21295   2.653   7.189   7.891  0.2651  1.2383 -0.8074
  185SLPC  C21621296   2.688   7.063   8.068 -0.8298 -0.1884  0.1965
  185SLPC  H16R21297   2.633   6.973   8.030 -2.2769 -0.1652  2.0504
  185SLPC  H16S21298   2.616   7.117   8.133 -1.0935 -0.3348  0.0299
  185SLPC  C21721299   2.808   7.004   8.151 -0.0491 -0.0665 -0.9066
  185SLPC  H17R21300   2.840   7.084   8.221  2.8666 -0.7703 -1.2971
  185SLPC  H17S21301   2.884   6.987   8.071  1.9860  0.2774  0.8701
  185SLPC  C21821302   2.786   6.877   8.229 -0.1913 -0.6768  0.1627
  185SLPC  H18R21303   2.884   6.847   8.272 -0.0727  1.0735  1.1992
  185SLPC  H18S21304   2.751   6.801   8.156 -0.8632  0.8660 -1.1735
  185SLPC  H18T21305   2.710   6.873   8.310 -0.0988  2.8460  0.5457
  185SLPC   C3321306   3.720   7.428   7.163 -0.0982  1.0841 -0.3832
  185SLPC   H3X21307   3.650   7.368   7.224  1.7623 -0.2879  0.4961
  185SLPC   H3Y21308   3.666   7.506   7.105  0.1903  0.0580 -2.0906
  185SLPC   C3421309   3.826   7.470   7.264  0.9983 -0.1805 -0.0654
  185SLPC   H4X21310   3.911   7.513   7.207 -0.3275  2.2987 -0.3046
  185SLPC   H4Y21311   3.860   7.386   7.329  0.9282 -1.3402 -1.4815
  185SLPC   C3521312   3.773   7.581   7.363  0.1237 -0.5450  0.4885
  185SLPC   H5X21313   3.765   7.671   7.299 -1.3058 -0.2531  1.0321
  185SLPC   H5Y21314   3.853   7.600   7.438  0.7858 -2.2131  0.2592
  185SLPC   C3621315   3.647   7.543   7.434 -0.1309 -0.4750  0.1477
  185SLPC   H6X21316   3.643   7.434   7.458  0.9047 -0.3798  0.7904
  185SLPC   H6Y21317   3.570   7.568   7.357  1.2510 -0.0132 -1.1259
  185SLPC   C3721318   3.614   7.636   7.545 -0.0314 -0.2892  0.2274
  185SLPC   H7X21319   3.506   7.610   7.555 -0.8184  1.2855 -2.8481
  185SLPC   H7Y21320   3.624   7.745   7.523  0.4999 -0.5517 -0.9394
  185SLPC   C3821321   3.684   7.597   7.670 -0.5869  0.2979 -0.9196
  185SLPC   H8X21322   3.794   7.594   7.654  0.0318  0.6841  2.5880
  185SLPC   H8Y21323   3.670   7.494   7.709  0.2873  0.3636 -0.3900
  185SLPC   C3921324   3.652   7.705   7.772  0.4347  0.4736  0.3069
  185SLPC   H9X21325   3.542   7.706   7.791  0.6844  1.8596  1.8699
  185SLPC   H9Y21326   3.683   7.802   7.728 -0.8565 -0.6152 -3.4243
  185SLPC  C31021327   3.708   7.687   7.913  0.4611 -0.5441 -0.1094
  185SLPC  H10X21328   3.687   7.777   7.975 -0.9365 -0.6866 -0.3397
  185SLPC  H10Y21329   3.819   7.676   7.917  0.5277  0.1888  0.2900
  185SLPC  C31121330   3.624   7.577   7.980 -0.1817  0.1563  0.0056
  185SLPC  H11X21331   3.665   7.482   7.940 -0.0937  0.4720 -0.6688
  185SLPC  H11Y21332   3.520   7.581   7.939  0.0718  0.3574 -0.6334
  185SLPC  C31221333   3.629   7.585   8.134  0.5135 -0.4619 -0.1814
  185SLPC  H12X21334   3.543   7.530   8.177 -2.2878  1.6276 -2.6542
  185SLPC  H12Y21335   3.638   7.689   8.172 -0.5689 -0.2749 -0.4143
  185SLPC  C31321336   3.763   7.535   8.193  0.1003  0.1857  0.3790
  185SLPC  H13X21337   3.847   7.579   8.136  0.7822 -0.3137  0.9863
  185SLPC  H13Y21338   3.760   7.427   8.167 -1.2357 -0.3292  2.4165
  185SLPC  C31421339   3.769   7.563   8.337  0.1160 -0.2741  0.7544
  185SLPC  H14X21340   3.669   7.546   8.383 -0.7429 -0.1606 -0.9558
  185SLPC  H14Y21341   3.788   7.672   8.352 -1.4591 -0.0164  1.0343
  185SLPC  C31521342   3.880   7.484   8.411  0.0135 -0.3484  0.4631
  185SLPC  H15X21343   3.850   7.378   8.401 -0.2551 -0.3851  1.5571
  185SLPC  H15Y21344   3.874   7.519   8.516 -0.2070  2.2633 -0.3407
  185SLPC  C31621345   4.019   7.502   8.356 -0.3921  0.4999 -0.2274
  185SLPC  H16X21346   4.027   7.612   8.342  0.1089  0.4649 -0.2054
  185SLPC  H16Y21347   4.015   7.460   8.253  0.2909  0.3403 -0.1922
  185SLPC  C31721348   4.135   7.454   8.428  0.1686 -0.2451 -0.2978
  185SLPC  H17X21349   4.104   7.442   8.534 -0.8335  2.3334 -0.2253
  185SLPC  H17Y21350   4.228   7.515   8.428 -1.1180  1.8544 -1.7360
  185SLPC  C31821351   4.175   7.309   8.380 -0.1328  0.7055 -0.3327
  185SLPC  H18X21352   4.254   7.265   8.445 -0.6305 -0.8869 -0.7657
  185SLPC  H18Y21353   4.219   7.312   8.278 -0.1382  1.0667 -0.3270
  185SLPC  H18Z21354   4.085   7.246   8.367  0.0459  0.0573  1.3360
  186SLPC     N21355   4.236   3.553   6.217 -0.4048 -0.2916  0.9963
  186SLPC   C1321356   4.289   3.650   6.120  0.0984  0.0830  0.3515
  186SLPC  H13A21357   4.246   3.629   6.023  0.6772  1.7330 -0.2830
  186SLPC  H13B21358   4.257   3.749   6.148 -1.7377  0.1616 -1.7797
  186SLPC  H13C21359   4.397   3.641   6.122  0.0848 -0.2016 -0.0319
  186SLPC   C1421360   4.245   3.414   6.158 -0.1800 -0.0553  0.0631
  186SLPC  H14A21361   4.192   3.411   6.064 -2.5274  1.4885  1.2389
  186SLPC  H14B21362   4.347   3.384   6.140 -0.9314 -0.5959 -4.5868
  186SLPC  H14C21363   4.206   3.341   6.227 -0.5303  1.2375  1.2829
  186SLPC   C1521364   4.090   3.568   6.246 -0.2656  0.3083  0.7161
  186SLPC  H15A21365   4.048   3.513   6.329  0.3871  0.3914  1.1028
  186SLPC  H15B21366   4.079   3.671   6.273 -1.3672  0.3772  0.0898
  186SLPC  H15C21367   4.029   3.540   6.161  0.3349 -0.1071  0.4128
  186SLPC   C1221368   4.307   3.557   6.359 -0.6863 -0.3277 -0.3828
  186SLPC  H12A21369   4.251   3.491   6.424 -1.9470 -1.2212 -2.3073
  186SLPC  H12B21370   4.291   3.655   6.403  0.7471  0.2244 -1.0194
  186SLPC   C1121371   4.448   3.491   6.380 -0.1125 -0.3459 -1.0248
  186SLPC  H11A21372   4.430   3.386   6.347 -1.9421  0.2511 -2.0842
  186SLPC  H11B21373   4.477   3.493   6.487 -1.4245  0.0012 -0.6507
  186SLPC     P21374   4.646   3.441   6.222 -0.3464 -0.1706  0.0412
  186SLPC   O1321375   4.563   3.353   6.138 -0.3409 -0.0608  0.1727
  186SLPC   O1421376   4.754   3.523   6.158 -0.3021  0.5396  0.2856
  186SLPC   O1221377   4.545   3.545   6.293  0.3139  0.1352 -0.2469
  186SLPC   O1121378   4.691   3.351   6.339 -0.6030  1.0659 -0.1718
  186SLPC    C121379   4.779   3.405   6.438 -0.0925 -0.3271 -0.7924
  186SLPC    HA21380   4.762   3.513   6.459 -0.5093 -0.9360  2.6550
  186SLPC    HB21381   4.765   3.346   6.532 -0.3095  0.0324 -0.5982
  186SLPC    C221382   4.929   3.386   6.389  0.2580  0.2803 -0.2452
  186SLPC    HS21383   4.951   3.451   6.302  0.1823  0.7640  0.0953
  186SLPC   O2121384   4.948   3.248   6.352 -0.3198  0.1049 -0.0386
  186SLPC   C2121385   5.076   3.230   6.307 -0.4978  0.3086  0.3659
  186SLPC   O2221386   5.162   3.316   6.281  0.4235  0.3637  0.9006
  186SLPC   C2221387   5.114   3.085   6.333  0.8687 -0.4148  0.4106
  186SLPC   H2R21388   5.048   3.042   6.412  1.7169 -0.0698  1.3336
  186SLPC   H2S21389   5.091   3.025   6.242 -0.0288 -0.0631  0.3894
  186SLPC    C321390   5.012   3.438   6.510 -0.0404  0.4676  0.3226
  186SLPC    HX21391   4.981   3.544   6.516 -1.3107  0.2801 -1.8656
  186SLPC    HY21392   5.121   3.437   6.489  0.0499  2.4393  0.5178
  186SLPC   O3121393   4.978   3.359   6.627 -0.6663  0.0021 -0.5636
  186SLPC   C3121394   4.990   3.420   6.742  0.5934  0.2899 -0.0112
  186SLPC   O3221395   5.038   3.528   6.771  0.0569 -0.1835 -0.4146
  186SLPC   C3221396   4.943   3.323   6.849  0.2222 -0.0694  0.1761
  186SLPC   H2X21397   4.989   3.336   6.950 -0.5371  0.2614  0.4858
  186SLPC   H2Y21398   4.964   3.219   6.816  0.2332  0.2284 -0.7878
  186SLPC   C2321399   5.271   3.070   6.368  0.2566 -0.6206 -0.4843
  186SLPC   H3R21400   5.331   3.144   6.312  0.3460 -0.1958  0.1622
  186SLPC   H3S21401   5.288   2.964   6.341  0.2895 -1.2190  1.7069
  186SLPC   C2421402   5.308   3.104   6.517 -0.1069  0.1212  0.1214
  186SLPC   H4R21403   5.280   3.212   6.515  2.1463  0.7450 -0.9177
  186SLPC   H4S21404   5.418   3.102   6.531 -0.0200  0.9619 -0.3351
  186SLPC   C2521405   5.236   3.025   6.623 -0.1612 -0.1675 -0.1020
  186SLPC   H5R21406   5.253   2.918   6.600 -0.8679 -0.3366  0.1308
  186SLPC   H5S21407   5.130   3.059   6.617  0.0364  0.4464 -0.1550
  186SLPC   C2621408   5.289   3.041   6.770 -0.5767  0.0941 -0.5168
  186SLPC   H6R21409   5.250   3.133   6.818 -0.2584  0.1968 -0.4481
  186SLPC   H6S21410   5.400   3.051   6.764 -0.4206 -1.9954 -2.9615
  186SLPC   C2721411   5.244   2.925   6.864  0.4775  0.1096  0.9216
  186SLPC   H7R21412   5.297   2.841   6.814  0.5628  0.1013  1.0259
  186SLPC   H7S21413   5.135   2.905   6.851  0.2548  2.5986 -2.3187
  186SLPC   C2821414   5.294   2.937   7.006 -0.0439  0.6496 -0.4808
  186SLPC   H8R21415   5.261   3.036   7.045 -2.0585  1.4890 -3.8636
  186SLPC   H8S21416   5.404   2.948   7.003  0.2428 -1.8349 -1.5645
  186SLPC   C2921417   5.258   2.820   7.100  0.2215  0.8202 -0.2272
  186SLPC   H9R21418   5.253   2.718   7.058 -0.5277  0.6657  0.2362
  186SLPC  C21021419   5.245   2.824   7.234 -0.2446  0.3543 -0.6747
  186SLPC  H10R21420   5.236   2.721   7.273  1.5167 -0.3755 -2.0427
  186SLPC  C21121421   5.267   2.926   7.339 -0.1345  0.3526 -0.2977
  186SLPC  H11R21422   5.174   2.917   7.399  0.2357  0.8851  0.3679
  186SLPC  H11S21423   5.275   3.023   7.286  1.8550  0.0550 -0.6261
  186SLPC  C21221424   5.387   2.900   7.426  0.7118  0.0483 -0.9985
  186SLPC  H12R21425   5.478   2.888   7.366  0.8930  1.0386 -0.9544
  186SLPC  C21321426   5.400   2.888   7.560 -0.6191  0.7767 -0.0179
  186SLPC  H13R21427   5.501   2.873   7.600 -1.1662  1.6476  1.7963
  186SLPC  C21421428   5.284   2.885   7.661 -0.3635 -0.8692 -0.3639
  186SLPC  H14R21429   5.184   2.910   7.622 -0.3457 -2.8057 -1.7891
  186SLPC  H14S21430   5.311   2.953   7.746 -0.5816 -0.3518 -0.7038
  186SLPC  C21521431   5.289   2.745   7.727 -0.2362  0.1650  0.0020
  186SLPC  H15R21432   5.389   2.729   7.773  0.3380 -0.6180 -1.4513
  186SLPC  H15S21433   5.282   2.666   7.649  2.0694 -0.1601  0.0415
  186SLPC  C21621434   5.180   2.729   7.832 -0.6211  0.5739 -0.4487
  186SLPC  H16R21435   5.163   2.623   7.858  0.8315  0.2557 -0.7543
  186SLPC  H16S21436   5.082   2.766   7.792 -0.7895  0.8564  0.2170
  186SLPC  C21721437   5.204   2.813   7.959  0.1886 -0.4926 -0.0588
  186SLPC  H17R21438   5.174   2.918   7.940  0.8036 -0.1172  1.0046
  186SLPC  H17S21439   5.311   2.812   7.987 -0.0139  0.0754  0.7736
  186SLPC  C21821440   5.135   2.761   8.085 -0.6228  0.2381 -0.0942
  186SLPC  H18R21441   5.026   2.751   8.072 -1.0464  1.3523  2.0329
  186SLPC  H18S21442   5.140   2.840   8.163  1.8943 -0.8961  1.0412
  186SLPC  H18T21443   5.173   2.663   8.121 -2.6570 -0.4551  0.2914
  186SLPC   C3321444   4.788   3.344   6.868 -0.6976  0.1948 -0.2375
  186SLPC   H3X21445   4.744   3.316   6.770 -1.9201 -0.0341  0.3575
  186SLPC   H3Y21446   4.771   3.448   6.904  2.1878  0.5394  0.3638
  186SLPC   C3421447   4.746   3.261   6.985 -0.6719 -0.0803 -0.1194
  186SLPC   H4X21448   4.636   3.270   6.991 -0.7696 -0.0290 -1.5218
  186SLPC   H4Y21449   4.781   3.305   7.080 -0.1121 -0.4097 -0.1633
  186SLPC   C3521450   4.787   3.107   6.991  0.5067  0.2543  0.2726
  186SLPC   H5X21451   4.897   3.102   7.002  0.6966  3.2080  0.4442
  186SLPC   H5Y21452   4.756   3.072   6.890  0.4961  0.0153  0.3567
  186SLPC   C3621453   4.724   3.015   7.097 -0.6071 -0.0304 -0.0491
  186SLPC   H6X21454   4.765   2.913   7.078  2.2359  0.7120  1.4081
  186SLPC   H6Y21455   4.614   3.005   7.089 -0.5540  0.1200 -1.0686
  186SLPC   C3721456   4.758   3.051   7.245  0.3149 -0.1394 -0.0591
  186SLPC   H7X21457   4.697   3.142   7.263 -2.2031 -1.5089 -1.0385
  186SLPC   H7Y21458   4.865   3.075   7.258  0.2973 -0.7358  1.4055
  186SLPC   C3821459   4.730   2.949   7.352  0.0103 -0.0475  0.2827
  186SLPC   H8X21460   4.805   2.870   7.335  0.3824  0.3038  0.2848
  186SLPC   H8Y21461   4.626   2.912   7.336  0.3004  0.0598 -2.3539
  186SLPC   C3921462   4.753   3.016   7.489 -0.2219  0.2169  0.5638
  186SLPC   H9X21463   4.671   3.088   7.507 -2.8615 -1.5951 -3.0449
  186SLPC   H9Y21464   4.855   3.061   7.491  0.5759 -1.4405 -0.8639
  186SLPC  C31021465   4.750   2.910   7.603  0.0249  0.2958  0.1719
  186SLPC  H10X21466   4.839   2.844   7.606 -1.9494 -2.5632 -0.1290
  186SLPC  H10Y21467   4.664   2.844   7.581  1.3616 -1.2787 -0.5152
  186SLPC  C31121468   4.744   2.970   7.747 -0.9176 -0.1803  0.1824
  186SLPC  H11X21469   4.646   3.022   7.754 -1.1560 -0.2611 -1.8684
  186SLPC  H11Y21470   4.823   3.048   7.755 -0.9294 -0.1436 -0.0513
  186SLPC  C31221471   4.757   2.854   7.846 -0.4898  0.5964 -0.4193
  186SLPC  H12X21472   4.864   2.828   7.849 -1.1384 -2.5054 -1.2143
  186SLPC  H12Y21473   4.699   2.763   7.821 -1.6707  0.8443  1.2242
  186SLPC  C31321474   4.703   2.896   7.986 -0.1693 -0.8563  0.0090
  186SLPC  H13X21475   4.598   2.933   7.986  0.4144  1.2429 -3.3224
  186SLPC  H13Y21476   4.765   2.983   8.017  0.5045 -0.8421 -1.3285
  186SLPC  C31421477   4.700   2.780   8.095 -0.1538  0.2853  0.2757
  186SLPC  H14X21478   4.799   2.729   8.098 -0.8759 -1.2634 -0.7899
  186SLPC  H14Y21479   4.629   2.702   8.060  0.0248  0.6036 -0.8329
  186SLPC  C31521480   4.652   2.811   8.233  0.1683  1.2171  0.4974
  186SLPC  H15X21481   4.592   2.731   8.281 -1.1345  3.0648  2.1121
  186SLPC  H15Y21482   4.581   2.895   8.217  0.0593  1.4367  1.9915
  186SLPC  C31621483   4.759   2.878   8.332  0.1998  0.0928  0.9879
  186SLPC  H16X21484   4.791   2.971   8.281  0.2731 -0.0654  0.7436
  186SLPC  H16Y21485   4.847   2.811   8.322  0.7268  1.1267 -2.9693
  186SLPC  C31721486   4.718   2.900   8.473  0.0869  0.5564 -0.2947
  186SLPC  H17X21487   4.753   2.814   8.534  1.1621  1.1538 -0.0355
  186SLPC  H17Y21488   4.609   2.924   8.470 -0.2403 -0.9506 -1.1946
  186SLPC  C31821489   4.784   3.016   8.536 -0.2353 -0.3331  0.1246
  186SLPC  H18X21490   4.829   3.075   8.454  0.8863 -1.6268 -0.2216
  186SLPC  H18Y21491   4.865   2.985   8.606  0.5646 -0.4043 -0.8027
  186SLPC  H18Z21492   4.710   3.080   8.589 -0.8260 -1.3223  0.5133
  187SLPC     N21493   5.183   0.506   6.155  0.4718  0.3494 -0.3031
  187SLPC   C1321494   5.169   0.363   6.170 -0.7763  0.4056  0.2954
  187SLPC  H13A21495   5.113   0.308   6.095  0.5712 -0.5941 -0.0082
  187SLPC  H13B21496   5.262   0.310   6.182 -1.0689 -0.2183 -0.0790
  187SLPC  H13C21497   5.113   0.348   6.261 -0.6655 -0.5434  0.2233
  187SLPC   C1421498   5.042   0.563   6.143  0.0437  0.9296  0.1881
  187SLPC  H14A21499   4.988   0.521   6.059  0.8299 -1.6768  0.8702
  187SLPC  H14B21500   4.982   0.542   6.231 -0.6812 -0.0712 -0.5194
  187SLPC  H14C21501   5.040   0.670   6.135  0.1123  0.7836 -2.5377
  187SLPC   C1521502   5.256   0.526   6.020  0.2214  0.3618 -0.0091
  187SLPC  H15A21503   5.267   0.633   6.008 -2.5203  1.0098  2.1552
  187SLPC  H15B21504   5.357   0.489   6.024  0.5228  1.2029  3.7665
  187SLPC  H15C21505   5.194   0.483   5.943 -0.1257  0.4435  0.2226
  187SLPC   C1221506   5.258   0.573   6.268  0.4214  0.0458  1.3136
  187SLPC  H12A21507   5.242   0.679   6.257 -0.0091  0.0364  1.7947
  187SLPC  H12B21508   5.359   0.545   6.245  0.4937  2.2481 -1.5447
  187SLPC   C1121509   5.215   0.539   6.409 -0.0510  0.6707 -0.1915
  187SLPC  H11A21510   5.106   0.552   6.426 -0.1723  1.5436 -1.5198
  187SLPC  H11B21511   5.258   0.616   6.476  0.7079 -0.8885  1.1945
  187SLPC     P21512   5.403   0.384   6.518 -0.4879  0.0985  0.0429
  187SLPC   O1321513   5.446   0.250   6.491 -0.4935 -0.2992  0.4204
  187SLPC   O1421514   5.496   0.492   6.476 -0.3702  0.3230 -0.6533
  187SLPC   O1221515   5.265   0.408   6.448  0.0501 -0.3417  0.9269
  187SLPC   O1121516   5.371   0.397   6.671  0.0503 -0.0547 -0.3938
  187SLPC    C121517   5.238   0.368   6.722 -0.0248 -0.5539  0.9258
  187SLPC    HA21518   5.168   0.453   6.708  1.1412  0.5921  1.7462
  187SLPC    HB21519   5.187   0.283   6.672 -0.5200 -0.7721  1.7808
  187SLPC    C221520   5.241   0.330   6.876  0.5212  0.6617  0.5923
  187SLPC    HS21521   5.134   0.310   6.899  0.8243 -0.1878  1.2960
  187SLPC   O2121522   5.301   0.432   6.957  0.2301  0.1056  0.4543
  187SLPC   C2121523   5.213   0.509   7.011  0.6715 -0.1538 -0.2254
  187SLPC   O2221524   5.090   0.512   6.988  0.1032  0.3615 -0.1598
  187SLPC   C2221525   5.267   0.609   7.108  0.0051 -0.2010  0.2492
  187SLPC   H2R21526   5.378   0.608   7.096 -0.0958 -2.7043 -1.2281
  187SLPC   H2S21527   5.244   0.710   7.068  1.5959 -0.0898 -0.4695
  187SLPC    C321528   5.307   0.196   6.906  1.1547 -0.6518 -0.2575
  187SLPC    HX21529   5.411   0.188   6.870  1.4272 -1.9171  0.7595
  187SLPC    HY21530   5.258   0.123   6.838 -0.6534 -0.8160  1.1301
  187SLPC   O3121531   5.305   0.168   7.048  0.4620 -0.3227 -0.5065
  187SLPC   C3121532   5.215   0.087   7.075  0.3360  1.2592 -0.0891
  187SLPC   O3221533   5.123   0.047   7.000  0.0232  0.3222  0.4278
  187SLPC   C3221534   5.223   0.056   7.223 -0.3772  0.2689 -0.7337
  187SLPC   H2X21535   5.136   0.097   7.278  0.6442  1.2708  0.1960
  187SLPC   H2Y21536   5.316   0.095   7.269  0.2176 -0.8256 -0.9740
  187SLPC   C2321537   5.205   0.587   7.248 -0.7213  0.0081  0.3163
  187SLPC   H3R21538   5.204   0.479   7.274 -0.9151 -0.8498 -2.8618
  187SLPC   H3S21539   5.096   0.606   7.244 -0.6234  0.3635 -1.0543
  187SLPC   C2421540   5.271   0.672   7.357 -0.5215 -0.3460 -0.4364
  187SLPC   H4R21541   5.285   0.775   7.320 -0.4081 -0.3790 -0.4874
  187SLPC   H4S21542   5.375   0.635   7.368  1.2150  4.0945 -0.1123
  187SLPC   C2521543   5.193   0.671   7.493 -0.1574 -0.2679  0.0228
  187SLPC   H5R21544   5.260   0.723   7.564 -0.0601  1.2553 -1.1215
  187SLPC   H5S21545   5.163   0.570   7.526  0.8506 -0.6937 -0.3155
  187SLPC   C2621546   5.069   0.756   7.508  0.3012  0.4678 -0.1967
  187SLPC   H6R21547   5.003   0.730   7.422  0.7178  0.6098 -0.5674
  187SLPC   H6S21548   5.091   0.865   7.500  2.0856  0.2999  1.5850
  187SLPC   C2721549   4.994   0.712   7.635 -0.2104 -0.7940 -0.0951
  187SLPC   H7R21550   4.997   0.606   7.669  1.1856 -0.5622  0.5770
  187SLPC   H7S21551   4.888   0.721   7.604  0.3774 -0.0917 -2.0044
  187SLPC   C2821552   5.022   0.793   7.765  0.5613 -0.4224  0.7951
  187SLPC   H8R21553   4.996   0.900   7.747  0.9372 -0.3354  0.7565
  187SLPC   H8S21554   5.133   0.799   7.775  0.7874 -1.8720 -0.6046
  187SLPC   C2921555   4.953   0.744   7.884  0.2346 -0.6703 -0.4822
  187SLPC   H9R21556   4.870   0.811   7.912 -0.6437 -1.2354 -1.6653
  187SLPC  C21021557   4.989   0.653   7.975  0.1418  0.2954 -0.3374
  187SLPC  H10R21558   4.923   0.628   8.060 -0.2812 -1.1191 -1.0479
  187SLPC  C21121559   5.120   0.581   7.949  0.5094  0.2556 -0.2645
  187SLPC  H11R21560   5.202   0.641   7.903 -1.0576  1.2798 -1.8937
  187SLPC  H11S21561   5.114   0.501   7.873  0.1871 -0.5612  0.6124
  187SLPC  C21221562   5.161   0.520   8.078 -0.5392  0.2212  0.1275
  187SLPC  H12R21563   5.128   0.417   8.099  0.7853 -0.4576 -0.9587
  187SLPC  C21321564   5.252   0.576   8.159  0.7103 -0.4293  0.8801
  187SLPC  H13R21565   5.285   0.512   8.242  0.4255  1.8618  2.8893
  187SLPC  C21421566   5.332   0.706   8.153  0.4517 -0.3734 -0.0963
  187SLPC  H14R21567   5.279   0.792   8.105  2.6372  0.3548 -1.3301
  187SLPC  H14S21568   5.434   0.694   8.112  0.2505 -0.4153 -0.5855
  187SLPC  C21521569   5.349   0.769   8.297 -0.8229  0.5261 -0.3155
  187SLPC  H15R21570   5.409   0.696   8.355  0.0802  1.1503 -0.4468
  187SLPC  H15S21571   5.252   0.778   8.350  0.2620  1.2927  1.6519
  187SLPC  C21621572   5.431   0.895   8.300  0.1991  0.6335 -0.3365
  187SLPC  H16R21573   5.509   0.894   8.220  2.1271 -3.0776  1.3524
  187SLPC  H16S21574   5.476   0.918   8.398  2.1500 -1.0405 -0.7618
  187SLPC  C21721575   5.351   1.019   8.273  0.5745  0.4170  0.4782
  187SLPC  H17R21576   5.299   1.002   8.176  1.8900 -1.1859  0.0111
  187SLPC  H17S21577   5.411   1.111   8.262 -0.4815  2.0350  5.5039
  187SLPC  C21821578   5.250   1.069   8.381 -0.3230  0.4348  0.6032
  187SLPC  H18R21579   5.169   0.994   8.394  0.6790 -0.6245  0.9011
  187SLPC  H18S21580   5.212   1.165   8.339  1.3722  0.7676 -0.2497
  187SLPC  H18T21581   5.301   1.093   8.477  2.2534  0.2816 -0.6408
  187SLPC   C3321582   5.218  -0.100   7.245 -0.4098  1.0835 -1.0028
  187SLPC   H3X21583   5.283  -0.156   7.173 -1.6590  0.7835 -1.9370
  187SLPC   H3Y21584   5.119  -0.147   7.226  0.2475 -1.1056  0.6099
  187SLPC   C3421585   5.290  -0.130   7.383 -0.8784 -0.3459 -0.0987
  187SLPC   H4X21586   5.229  -0.084   7.464 -0.1317  0.5629 -0.0347
  187SLPC   H4Y21587   5.380  -0.064   7.386  0.0350 -1.5797  1.4237
  187SLPC   C3521588   5.312  -0.277   7.419  0.1288 -0.0480 -0.0607
  187SLPC   H5X21589   5.394  -0.283   7.494  0.6463 -0.4788 -0.6459
  187SLPC   H5Y21590   5.341  -0.344   7.335  1.9814 -0.3921  0.8116
  187SLPC   C3621591   5.186  -0.344   7.474 -0.1894 -0.1376 -0.2046
  187SLPC   H6X21592   5.199  -0.454   7.467  0.1039 -0.0870 -0.4451
  187SLPC   H6Y21593   5.100  -0.306   7.415  1.7417  1.3741 -2.2148
  187SLPC   C3721594   5.169  -0.312   7.623  0.5954 -0.4846 -0.7742
  187SLPC   H7X21595   5.264  -0.322   7.680  0.4424  1.9359  0.0383
  187SLPC   H7Y21596   5.141  -0.206   7.643  3.7722  0.3446 -0.0086
  187SLPC   C3821597   5.073  -0.405   7.693  0.1838  0.8270  0.5605
  187SLPC   H8X21598   5.128  -0.501   7.692 -2.1404 -0.5591  0.0132
  187SLPC   H8Y21599   4.983  -0.397   7.629 -0.6625  1.1600  1.7626
  187SLPC   C3921600   5.049  -0.372   7.833  0.3833 -0.6046  0.7505
  187SLPC   H9X21601   5.009  -0.269   7.832 -2.6583 -1.6963  0.2768
  187SLPC   H9Y21602   5.150  -0.361   7.880  0.2433  0.0555  0.8979
  187SLPC  C31021603   4.952  -0.468   7.904 -0.5927  1.5349 -0.0181
  187SLPC  H10X21604   4.980  -0.571   7.872 -1.5394  0.1418  3.2607
  187SLPC  H10Y21605   4.849  -0.452   7.866 -1.3761 -1.4652  0.5830
  187SLPC  C31121606   4.963  -0.462   8.051 -0.2707 -0.4031 -0.6394
  187SLPC  H11X21607   4.914  -0.368   8.085  1.3794 -0.0802  1.0133
  187SLPC  H11Y21608   5.068  -0.465   8.085 -0.1455 -2.1545 -1.0958
  187SLPC  C31221609   4.886  -0.578   8.113 -0.0357 -0.2083 -0.1597
  187SLPC  H12X21610   4.948  -0.668   8.092  1.8463  1.1323 -0.6583
  187SLPC  H12Y21611   4.783  -0.575   8.072 -0.0265 -0.3298 -0.1911
  187SLPC  C31321612   4.866  -0.568   8.270 -0.7773 -0.4591 -0.5805
  187SLPC  H13X21613   4.865  -0.459   8.294 -1.2122 -0.2388 -1.5762
  187SLPC  H13Y21614   4.958  -0.610   8.316 -0.9369 -3.2011 -2.5588
  187SLPC  C31421615   4.734  -0.621   8.328 -0.3771  0.1977 -0.1374
  187SLPC  H14X21616   4.727  -0.725   8.290 -0.3046  0.6044 -1.3067
  187SLPC  H14Y21617   4.656  -0.562   8.275  0.7940  0.5234 -1.5726
  187SLPC  C31521618   4.731  -0.616   8.477  0.0333  0.3910  0.1138
  187SLPC  H15X21619   4.729  -0.508   8.501 -3.8820  0.1357  1.4709
  187SLPC  H15Y21620   4.817  -0.673   8.518 -0.4026 -0.4991 -0.1695
  187SLPC  C31621621   4.619  -0.699   8.536  0.4601 -0.1935  0.6400
  187SLPC  H16X21622   4.632  -0.804   8.501  0.9736 -0.3653  1.3189
  187SLPC  H16Y21623   4.525  -0.669   8.484  0.1536 -4.2803 -1.6250
  187SLPC  C31721624   4.600  -0.699   8.688 -0.1806 -0.1826 -0.0736
  187SLPC  H17X21625   4.684  -0.742   8.746 -0.4309  0.5886  0.8812
  187SLPC  H17Y21626   4.503  -0.749   8.708  0.2625  0.3909  4.4016
  187SLPC  C31821627   4.606  -0.557   8.758  0.3917  0.1323  0.5003
  187SLPC  H18X21628   4.592  -0.556   8.868 -0.8492 -1.0073  0.3755
  187SLPC  H18Y21629   4.520  -0.498   8.717 -0.3669 -1.0044  0.4049
  187SLPC  H18Z21630   4.698  -0.500   8.733  0.0239  0.3164 -0.5181
  188SLPC     N21631   6.172   1.263   5.908 -0.1126 -0.0671  0.7360
  188SLPC   C1321632   6.132   1.207   5.776 -0.5798 -0.1847 -0.1270
  188SLPC  H13A21633   6.069   1.277   5.723 -0.1075 -0.2431 -0.7803
  188SLPC  H13B21634   6.222   1.203   5.716 -0.1055  1.2657  0.4688
  188SLPC  H13C21635   6.089   1.108   5.781 -0.8637  0.0029  2.4563
  188SLPC   C1421636   6.197   1.414   5.895 -0.2491  0.8871 -0.0588
  188SLPC  H14A21637   6.259   1.433   5.809  1.1754  0.8566  0.9272
  188SLPC  H14B21638   6.099   1.458   5.888 -1.5511 -1.5190  1.5794
  188SLPC  H14C21639   6.247   1.446   5.986  0.2994  1.3823 -0.5253
  188SLPC   C1521640   6.308   1.203   5.934 -0.6223  0.0060  0.5208
  188SLPC  H15A21641   6.319   1.101   5.899  2.3317  0.0099  1.1765
  188SLPC  H15B21642   6.382   1.259   5.879 -1.7201  0.8897 -0.0802
  188SLPC  H15C21643   6.333   1.205   6.039  1.3277 -0.3705  0.1077
  188SLPC   C1221644   6.070   1.241   6.008 -0.5559  0.1971 -0.2693
  188SLPC  H12A21645   6.082   1.136   6.027  0.3888  0.3993  0.3168
  188SLPC  H12B21646   5.972   1.256   5.966 -0.5381 -0.3585 -0.5153
  188SLPC   C1121647   6.082   1.310   6.153  0.0834 -0.5334  0.4516
  188SLPC  H11A21648   5.989   1.292   6.211  0.2555  0.4522  1.0642
  188SLPC  H11B21649   6.099   1.420   6.143  2.2175 -0.9794 -1.5965
  188SLPC     P21650   6.190   1.121   6.293  0.1683 -0.2692  0.2270
  188SLPC   O1321651   6.150   1.030   6.184 -0.4697  0.4919 -0.5945
  188SLPC   O1421652   6.325   1.101   6.354 -0.0805  0.2796 -0.0116
  188SLPC   O1221653   6.198   1.268   6.232 -0.5148 -0.5526  0.2483
  188SLPC   O1121654   6.081   1.115   6.410  0.1908 -0.1552  0.0038
  188SLPC    C121655   6.041   1.234   6.478  1.0574  0.1912 -0.4757
  188SLPC    HA21656   6.000   1.310   6.408  0.8477 -0.9375 -1.6133
  188SLPC    HB21657   5.941   1.218   6.524  0.8474 -0.5629 -1.1803
  188SLPC    C221658   6.137   1.285   6.594  0.3610 -0.7901 -0.1839
  188SLPC    HS21659   6.198   1.362   6.543 -0.4592  0.4443  0.6688
  188SLPC   O2121660   6.204   1.172   6.649  0.0284  0.4492 -0.3640
  188SLPC   C2121661   6.335   1.192   6.671  0.5961 -0.1908  0.7386
  188SLPC   O2221662   6.389   1.301   6.658 -0.5217  0.0466  0.2484
  188SLPC   C2221663   6.398   1.060   6.715  0.1353 -0.1831  0.2187
  188SLPC   H2R21664   6.322   1.011   6.779  0.8444 -0.2011  1.0534
  188SLPC   H2S21665   6.413   0.992   6.629  0.6303 -0.3525  0.4402
  188SLPC    C321666   6.056   1.363   6.694 -0.8175  0.7447  0.6640
  188SLPC    HX21667   5.999   1.278   6.739  1.8186 -1.5370 -0.0774
  188SLPC    HY21668   5.989   1.433   6.640  0.6632 -1.0229 -3.9169
  188SLPC   O3121669   6.143   1.421   6.793  0.0856 -0.3263  0.3440
  188SLPC   C3121670   6.206   1.528   6.749 -0.2764  0.1215  0.1977
  188SLPC   O3221671   6.174   1.588   6.646  0.2728 -0.2450 -0.6161
  188SLPC   C3221672   6.310   1.569   6.851  0.6274  0.0552  0.5973
  188SLPC   H2X21673   6.360   1.652   6.797 -0.3848 -0.4868 -1.2383
  188SLPC   H2Y21674   6.388   1.490   6.859  1.1054  0.3148 -1.1030
  188SLPC   C2321675   6.524   1.072   6.797  0.0359  0.1689 -0.7626
  188SLPC   H3R21676   6.576   1.169   6.782 -1.4592  1.2308  0.5494
  188SLPC   H3S21677   6.586   0.985   6.766  0.4574  0.0493  0.3679
  188SLPC   C2421678   6.491   1.057   6.951  0.1355 -0.7281  0.1115
  188SLPC   H4R21679   6.591   1.055   6.999 -0.1264  0.6758  0.7619
  188SLPC   H4S21680   6.445   0.956   6.954 -1.1530 -0.1555  2.5367
  188SLPC   C2521681   6.407   1.171   6.998  0.2108 -0.0977 -0.2898
  188SLPC   H5R21682   6.298   1.156   6.977 -0.4676 -0.1711  2.7979
  188SLPC   H5S21683   6.436   1.268   6.953 -0.2516 -0.4651 -1.4310
  188SLPC   C2621684   6.421   1.184   7.149  0.7016  0.1713 -1.1846
  188SLPC   H6R21685   6.524   1.206   7.183  0.6958 -1.1567 -0.2198
  188SLPC   H6S21686   6.419   1.083   7.197 -0.5341  0.5458 -0.3988
  188SLPC   C2721687   6.319   1.290   7.209 -0.5881 -0.0435  0.0536
  188SLPC   H7R21688   6.231   1.260   7.149  1.0851  0.3140 -2.7977
  188SLPC   H7S21689   6.347   1.393   7.179 -0.9580 -0.0920 -0.4596
  188SLPC   C2821690   6.304   1.290   7.362  0.9582 -0.9475  0.3826
  188SLPC   H8R21691   6.278   1.187   7.393 -0.6424 -0.5733  0.3527
  188SLPC   H8S21692   6.221   1.356   7.397  0.4745 -1.4616  0.2186
  188SLPC   C2921693   6.432   1.325   7.431  0.4057  0.3843  0.2904
  188SLPC   H9R21694   6.511   1.352   7.359 -0.6688  0.9316 -0.6980
  188SLPC  C21021695   6.461   1.320   7.560  0.2713  0.0826  0.5651
  188SLPC  H10R21696   6.564   1.346   7.587 -0.2449  3.1608 -0.0920
  188SLPC  C21121697   6.371   1.284   7.676 -0.2894  0.3470  0.0202
  188SLPC  H11R21698   6.380   1.179   7.710 -1.2348  0.2699  0.0711
  188SLPC  H11S21699   6.267   1.299   7.639 -0.4162 -0.2678  0.1199
  188SLPC  C21221700   6.401   1.386   7.790  0.1318  0.3798  0.3493
  188SLPC  H12R21701   6.378   1.490   7.764 -0.8256  0.0074 -0.3815
  188SLPC  C21321702   6.444   1.349   7.915  0.0175  0.1447 -0.2643
  188SLPC  H13R21703   6.445   1.426   7.993  1.1954 -1.0520  0.9425
  188SLPC  C21421704   6.475   1.210   7.970  0.8258  0.2772  0.2143
  188SLPC  H14R21705   6.566   1.213   8.033 -0.5056  0.9512  2.2175
  188SLPC  H14S21706   6.495   1.131   7.895 -1.4074  0.0114 -0.1628
  188SLPC  C21521707   6.373   1.145   8.058  0.3604  0.0784 -0.3979
  188SLPC  H15R21708   6.303   1.090   7.991 -0.8331  3.8853 -2.6241
  188SLPC  H15S21709   6.318   1.229   8.106  3.7439  2.0715  0.3585
  188SLPC  C21621710   6.416   1.041   8.154  0.1904  0.9438 -0.2721
  188SLPC  H16R21711   6.492   1.084   8.224  0.9254  2.9232 -2.1636
  188SLPC  H16S21712   6.453   0.951   8.100 -1.3609  0.4143 -0.4970
  188SLPC  C21721713   6.298   0.980   8.241  0.4433 -0.8939 -0.1689
  188SLPC  H17R21714   6.272   1.060   8.313 -0.2749  0.8693 -2.2968
  188SLPC  H17S21715   6.342   0.898   8.301 -0.9316 -1.7740 -0.3109
  188SLPC  C21821716   6.172   0.934   8.165 -0.0707  0.6044  0.1777
  188SLPC  H18R21717   6.094   0.886   8.228  2.0383 -1.6175  1.2759
  188SLPC  H18S21718   6.199   0.851   8.097 -0.0180 -0.0082  0.9267
  188SLPC  H18T21719   6.117   1.022   8.125 -0.9743  0.2291  0.5560
  188SLPC   C3321720   6.252   1.614   6.983  0.3746 -0.1196  0.1833
  188SLPC   H3X21721   6.201   1.530   7.034 -2.2862  1.5988  0.5755
  188SLPC   H3Y21722   6.165   1.683   6.978 -0.4061 -0.9573  1.6205
  188SLPC   C3421723   6.346   1.685   7.071 -0.4556  0.4518 -0.7064
  188SLPC   H4X21724   6.389   1.768   7.012 -0.7672  0.2917 -1.1671
  188SLPC   H4Y21725   6.431   1.625   7.110 -0.2461  1.2376  0.0757
  188SLPC   C3521726   6.274   1.750   7.196 -0.7180 -0.4631 -0.0462
  188SLPC   H5X21727   6.174   1.782   7.159  0.2582  1.8517 -0.8286
  188SLPC   H5Y21728   6.338   1.831   7.237 -0.2071 -0.2457 -1.2350
  188SLPC   C3621729   6.242   1.654   7.312  0.1420  0.6155  0.3220
  188SLPC   H6X21730   6.336   1.603   7.342  0.7237  1.5327  0.1103
  188SLPC   H6Y21731   6.166   1.577   7.285  0.3137  0.5361  0.0688
  188SLPC   C3721732   6.189   1.729   7.435  0.0175 -0.3470 -0.3162
  188SLPC   H7X21733   6.136   1.663   7.507  1.6995 -1.8576 -0.3901
  188SLPC   H7Y21734   6.109   1.800   7.406 -0.6028 -1.3944 -1.2397
  188SLPC   C3821735   6.304   1.783   7.525 -0.4649 -0.2426  0.3999
  188SLPC   H8X21736   6.375   1.846   7.467 -2.6917 -0.8443 -3.3785
  188SLPC   H8Y21737   6.368   1.700   7.561 -0.9367 -0.6437  0.3393
  188SLPC   C3921738   6.253   1.860   7.647  0.1011 -0.0009  0.0666
  188SLPC   H9X21739   6.163   1.919   7.621  0.1883  1.0053  1.8727
  188SLPC   H9Y21740   6.325   1.941   7.669 -0.7773  1.5732 -2.4066
  188SLPC  C31021741   6.232   1.775   7.772 -0.3416 -0.1467 -0.1841
  188SLPC  H10X21742   6.319   1.707   7.782  0.0515  0.2442 -0.8502
  188SLPC  H10Y21743   6.145   1.709   7.751 -0.0172  0.0625 -2.4858
  188SLPC  C31121744   6.217   1.856   7.899  0.1789 -0.2065  0.2884
  188SLPC  H11X21745   6.114   1.897   7.908  0.6044  0.8661  0.3597
  188SLPC  H11Y21746   6.272   1.952   7.893 -0.9024  0.4850  0.9588
  188SLPC  C31221747   6.255   1.767   8.018 -0.2243  0.3062  0.3620
  188SLPC  H12X21748   6.261   1.832   8.108 -1.1655  0.2187  0.4941
  188SLPC  H12Y21749   6.361   1.737   8.006  0.0328 -0.3625  3.3703
  188SLPC  C31321750   6.176   1.631   8.030 -0.1083  0.9033  0.1303
  188SLPC  H13X21751   6.208   1.562   7.948 -0.7455 -0.2750  0.8482
  188SLPC  H13Y21752   6.068   1.652   8.012 -0.0412 -0.1384 -1.9164
  188SLPC  C31421753   6.203   1.559   8.161  0.5974  0.7330  0.5512
  188SLPC  H14X21754   6.185   1.615   8.255 -0.2672 -1.4987  1.8235
  188SLPC  H14Y21755   6.308   1.526   8.178  0.1575 -3.3336 -2.8352
  188SLPC  C31521756   6.118   1.434   8.179  0.0796  0.3099 -0.2897
  188SLPC  H15X21757   6.121   1.353   8.103  2.3072 -0.3830  0.4542
  188SLPC  H15Y21758   6.012   1.468   8.183 -0.1818 -0.6090  1.4257
  188SLPC  C31621759   6.136   1.376   8.321 -0.1012  0.8534  0.4751
  188SLPC  H16X21760   6.119   1.449   8.404  0.8791 -0.8616  2.2569
  188SLPC  H16Y21761   6.228   1.316   8.337 -2.3546 -3.0370 -0.1288
  188SLPC  C31721762   6.014   1.291   8.379 -0.4265 -0.0847  0.3510
  188SLPC  H17X21763   6.000   1.224   8.291  1.4638  1.4814 -1.2535
  188SLPC  H17Y21764   5.924   1.351   8.404  0.3748  1.3089  0.0187
  188SLPC  C31821765   6.058   1.209   8.501  0.6667  0.3895  0.3183
  188SLPC  H18X21766   5.986   1.124   8.505  2.2847 -1.1400 -1.0985
  188SLPC  H18Y21767   6.058   1.272   8.592 -0.4848 -1.3561  1.6047
  188SLPC  H18Z21768   6.160   1.167   8.488  1.1510  1.7372 -0.4150
  189SLPC     N21769   1.801   3.456   6.144 -0.7106  0.8671  0.0178
  189SLPC   C1321770   1.884   3.527   6.047 -0.5116 -0.4909 -0.0773
  189SLPC  H13A21771   1.939   3.601   6.104 -2.6965  1.6392 -0.5648
  189SLPC  H13B21772   1.957   3.461   6.004 -0.8669 -1.0767  0.2136
  189SLPC  H13C21773   1.828   3.583   5.973 -2.2511 -0.7643  1.0042
  189SLPC   C1421774   1.854   3.316   6.170 -0.7410 -0.3526 -0.5208
  189SLPC  H14A21775   1.956   3.330   6.202 -2.3186  0.9955  5.0946
  189SLPC  H14B21776   1.797   3.271   6.250 -1.1659 -0.3650 -0.8302
  189SLPC  H14C21777   1.856   3.248   6.086  3.3412 -1.3463  0.1781
  189SLPC   C1521778   1.655   3.432   6.083 -0.4551  0.5976 -0.2859
  189SLPC  H15A21779   1.678   3.361   6.004 -0.3323  0.4900 -0.1538
  189SLPC  H15B21780   1.587   3.376   6.146  0.3963 -0.4316 -0.2561
  189SLPC  H15C21781   1.603   3.519   6.045 -1.0424 -0.0029 -0.8795
  189SLPC   C1221782   1.786   3.537   6.271  0.2682  0.1321  0.4045
  189SLPC  H12A21783   1.704   3.503   6.334  1.2195  0.0458  1.6241
  189SLPC  H12B21784   1.743   3.631   6.239 -1.8623 -0.5184  1.1597
  189SLPC   C1121785   1.902   3.560   6.369 -0.2847  0.2832  0.1263
  189SLPC  H11A21786   1.918   3.464   6.423 -0.2177  1.1863  1.7611
  189SLPC  H11B21787   1.879   3.637   6.446 -1.0296  0.6555 -0.4575
  189SLPC     P21788   2.056   3.757   6.278  0.5108  0.1867  0.1443
  189SLPC   O1321789   2.106   3.765   6.139 -0.2671  0.2264 -0.0919
  189SLPC   O1421790   1.941   3.847   6.321  0.1939  0.5403 -0.2623
  189SLPC   O1221791   2.025   3.599   6.304  0.0801  0.3002  0.0685
  189SLPC   O1121792   2.175   3.780   6.372 -0.6918  0.0954  0.0194
  189SLPC    C121793   2.168   3.740   6.505 -0.0887 -0.1816  0.3598
  189SLPC    HA21794   2.116   3.643   6.518 -1.0089  0.1817 -0.4935
  189SLPC    HB21795   2.267   3.727   6.554 -0.6415  0.5163  1.7079
  189SLPC    C221796   2.094   3.846   6.595  0.5958  0.4520  0.1927
  189SLPC    HS21797   2.010   3.890   6.536 -0.1065 -1.9076 -0.6957
  189SLPC   O2121798   2.195   3.951   6.616  0.0936 -0.5555 -0.0820
  189SLPC   C2121799   2.161   4.081   6.600 -0.2689  0.1726 -0.4156
  189SLPC   O2221800   2.057   4.121   6.548  0.0367  0.5239 -0.2251
  189SLPC   C2221801   2.277   4.178   6.657 -0.0195  0.4925  0.1060
  189SLPC   H2R21802   2.371   4.135   6.616 -0.8100 -1.8054  0.5329
  189SLPC   H2S21803   2.256   4.277   6.613  0.6580  0.9491  0.7722
  189SLPC    C321804   2.027   3.787   6.715  0.3436 -0.0907  0.5453
  189SLPC    HX21805   2.096   3.721   6.770 -0.6640  0.5092  2.6362
  189SLPC    HY21806   1.946   3.727   6.668  1.3307  0.3629 -1.8624
  189SLPC   O3121807   1.974   3.884   6.806  0.2708 -0.2996 -0.3269
  189SLPC   C3121808   1.945   3.830   6.932  0.2710 -0.2340  0.1847
  189SLPC   O3221809   1.944   3.711   6.954 -0.3558  0.1327 -0.5231
  189SLPC   C3221810   1.908   3.943   7.031 -0.6957 -0.1689  0.3965
  189SLPC   H2X21811   1.798   3.933   7.045 -0.9340 -0.1927 -1.3203
  189SLPC   H2Y21812   1.936   4.044   6.993 -0.5347 -0.1562  0.5470
  189SLPC   C2321813   2.284   4.186   6.818 -0.6133 -0.1525  0.5047
  189SLPC   H3R21814   2.180   4.190   6.858 -1.2574  2.4035 -1.1818
  189SLPC   H3S21815   2.318   4.284   6.859 -1.5755  1.4050 -2.1841
  189SLPC   C2421816   2.361   4.072   6.881 -1.7728  0.0418 -0.1145
  189SLPC   H4R21817   2.469   4.076   6.853 -1.6576 -0.0292  0.3064
  189SLPC   H4S21818   2.337   3.970   6.844 -1.1110 -0.1161 -0.1356
  189SLPC   C2521819   2.357   4.078   7.035 -0.6960 -0.5130 -0.1097
  189SLPC   H5R21820   2.298   3.991   7.073  0.2419 -1.1871 -0.1571
  189SLPC   H5S21821   2.298   4.168   7.062 -2.4348 -1.1006 -1.6875
  189SLPC   C2621822   2.499   4.079   7.097 -0.0994 -0.6318 -0.2309
  189SLPC   H6R21823   2.551   4.170   7.061 -0.2280  0.2326  1.6294
  189SLPC   H6S21824   2.553   3.991   7.056  0.1853 -0.2758 -0.6259
  189SLPC   C2721825   2.509   4.087   7.247 -0.4658  0.6739  0.0416
  189SLPC   H7R21826   2.614   4.123   7.259  0.2158 -1.3213  0.3955
  189SLPC   H7S21827   2.508   3.983   7.287  1.7796 -0.0107 -1.4696
  189SLPC   C2821828   2.428   4.199   7.325 -0.1134  0.5843 -0.8994
  189SLPC   H8R21829   2.323   4.165   7.330  0.1622 -0.2130 -0.2933
  189SLPC   H8S21830   2.422   4.292   7.265  0.0626  2.2008  1.4613
  189SLPC   C2921831   2.479   4.244   7.460 -0.0035  0.6877 -0.5404
  189SLPC   H9R21832   2.550   4.328   7.451  0.2218  0.4871 -0.6569
  189SLPC  C21021833   2.447   4.197   7.585 -0.8841 -0.1680  0.2667
  189SLPC  H10R21834   2.496   4.236   7.675  2.1416 -1.7848 -0.5359
  189SLPC  C21121835   2.362   4.086   7.634  0.7743 -0.5197 -0.1982
  189SLPC  H11R21836   2.420   4.009   7.689 -1.1337 -0.5082  1.9630
  189SLPC  H11S21837   2.309   4.032   7.553  2.0651 -1.5562 -0.3758
  189SLPC  C21221838   2.256   4.145   7.735 -0.2075 -0.6572  0.1871
  189SLPC  H12R21839   2.212   4.238   7.696  0.2144 -0.7816 -0.6085
  189SLPC  C21321840   2.222   4.110   7.856 -0.4139 -0.2709 -0.0578
  189SLPC  H13R21841   2.150   4.177   7.906  0.8620  1.1888 -0.1011
  189SLPC  C21421842   2.281   3.998   7.934 -0.4795  0.7369 -1.0142
  189SLPC  H14R21843   2.381   4.016   7.979  0.8013 -2.9143 -2.0180
  189SLPC  H14S21844   2.311   3.917   7.864 -1.0969  0.4641 -0.9732
  189SLPC  C21521845   2.199   3.918   8.045 -0.5484 -0.0010 -0.5529
  189SLPC  H15R21846   2.268   3.833   8.063  1.4503  1.8444  1.0233
  189SLPC  H15S21847   2.103   3.882   8.003 -0.8120  1.0719 -0.9139
  189SLPC  C21621848   2.171   4.000   8.168  0.0219 -0.3438 -0.3918
  189SLPC  H16R21849   2.139   4.105   8.149  1.3562 -0.0788 -1.3225
  189SLPC  H16S21850   2.272   4.034   8.198 -0.1180  0.5229 -0.8570
  189SLPC  C21721851   2.102   3.925   8.280  0.1720  0.6120  0.0258
  189SLPC  H17R21852   2.170   3.840   8.303 -0.2970  0.6155  1.5895
  189SLPC  H17S21853   2.019   3.856   8.254  2.5597 -2.1606 -0.7649
  189SLPC  C21821854   2.072   4.008   8.410  0.4119  1.0301  0.2713
  189SLPC  H18R21855   2.157   4.075   8.435  0.4636  1.7721 -1.7172
  189SLPC  H18S21856   2.043   3.941   8.494  1.0427 -1.5506 -1.4567
  189SLPC  H18T21857   1.986   4.074   8.386  0.8805  1.5215 -0.0821
  189SLPC   C3321858   1.981   3.912   7.163 -0.8406 -0.0520 -0.0255
  189SLPC   H3X21859   2.091   3.928   7.167 -1.0761  1.5692  1.1697
  189SLPC   H3Y21860   1.965   3.803   7.174  0.9055 -0.4166 -0.7523
  189SLPC   C3421861   1.931   3.995   7.278  0.2153  0.3337  0.1126
  189SLPC   H4X21862   1.832   3.947   7.293 -1.1836  2.8090 -0.5630
  189SLPC   H4Y21863   1.904   4.093   7.232  1.2463 -0.0331 -1.3539
  189SLPC   C3521864   2.021   4.008   7.404  0.2574 -0.0607  0.2757
  189SLPC   H5X21865   2.124   4.037   7.372 -0.5856  2.2978 -0.4847
  189SLPC   H5Y21866   2.025   3.911   7.456  0.7353 -1.4851 -2.2502
  189SLPC   C3621867   1.962   4.117   7.501 -0.2563  1.2625 -0.2047
  189SLPC   H6X21868   1.939   4.216   7.457  0.6392  1.4603 -0.2613
  189SLPC   H6Y21869   2.048   4.149   7.565  0.4217 -0.2810 -0.3053
  189SLPC   C3721870   1.844   4.066   7.586 -0.3060 -0.0344  0.0698
  189SLPC   H7X21871   1.842   3.955   7.575  0.9750 -0.0555 -0.0471
  189SLPC   H7Y21872   1.748   4.103   7.545 -0.1567  0.5984  0.2795
  189SLPC   C3821873   1.853   4.098   7.741 -0.1975  0.6431 -0.2058
  189SLPC   H8X21874   1.829   4.206   7.756  0.0427  0.6972 -0.2099
  189SLPC   H8Y21875   1.952   4.077   7.787 -0.2633 -0.4894 -0.5595
  189SLPC   C3921876   1.737   4.036   7.825  0.0010 -0.4226 -0.0313
  189SLPC   H9X21877   1.730   3.926   7.809  0.9589 -0.8617  2.2212
  189SLPC   H9Y21878   1.647   4.084   7.780 -0.5636 -1.4040  0.0315
  189SLPC  C31021879   1.744   4.062   7.974  0.0930 -0.8534  0.0376
  189SLPC  H10X21880   1.774   4.167   7.995  1.7556 -1.2369 -0.2886
  189SLPC  H10Y21881   1.831   4.013   8.021 -1.1775 -0.3157  3.1833
  189SLPC  C31121882   1.619   4.016   8.053 -0.4765  0.0435 -0.1684
  189SLPC  H11X21883   1.607   3.907   8.034  0.7894 -0.3405  1.1322
  189SLPC  H11Y21884   1.527   4.063   8.011  1.4396  2.8222 -1.5177
  189SLPC  C31221885   1.626   4.040   8.208  0.3567 -0.1532  0.4507
  189SLPC  H12X21886   1.649   4.146   8.231  1.1854 -0.3464  0.5335
  189SLPC  H12Y21887   1.709   3.970   8.230 -0.6790 -1.2149  1.1594
  189SLPC  C31321888   1.497   3.973   8.267 -0.3684  0.1898 -0.3009
  189SLPC  H13X21889   1.534   3.950   8.370 -2.3107 -0.6202  0.2622
  189SLPC  H13Y21890   1.478   3.877   8.214  1.2909 -0.7837  0.7663
  189SLPC  C31421891   1.384   4.076   8.287  0.0576 -0.5204  0.4266
  189SLPC  H14X21892   1.336   4.079   8.187  0.8050  1.1487  0.0822
  189SLPC  H14Y21893   1.414   4.182   8.301  0.0992 -0.3017 -1.1698
  189SLPC  C31521894   1.293   4.030   8.401 -0.6560  0.5191 -0.5182
  189SLPC  H15X21895   1.272   3.921   8.388 -0.7663  0.7267 -2.3549
  189SLPC  H15Y21896   1.194   4.081   8.395 -0.6054  0.4582 -2.3489
  189SLPC  C31621897   1.361   4.042   8.542 -0.0203  0.4540 -0.4265
  189SLPC  H16X21898   1.320   4.139   8.578 -1.0229  0.3564 -1.2398
  189SLPC  H16Y21899   1.472   4.050   8.544  0.1713 -0.6811  4.3029
  189SLPC  C31721900   1.318   3.934   8.647  0.4596 -0.2446 -0.0443
  189SLPC  H17X21901   1.304   3.833   8.602 -1.9598  0.4770 -1.0975
  189SLPC  H17Y21902   1.221   3.956   8.695  0.4692 -0.5867  0.1399
  189SLPC  C31821903   1.418   3.908   8.761  0.0886  0.0283  0.7298
  189SLPC  H18X21904   1.434   4.003   8.816  1.3722  1.2691 -1.6266
  189SLPC  H18Y21905   1.516   3.864   8.730 -1.0661 -1.2462 -1.3771
  189SLPC  H18Z21906   1.377   3.840   8.839 -0.5968  1.4105  1.6037
  190SLPC     N21907   1.694   2.440   5.962 -0.0162 -0.2043  0.3598
  190SLPC   C1321908   1.638   2.504   5.851 -0.0217 -0.1243 -0.0673
  190SLPC  H13A21909   1.607   2.605   5.876 -2.7176 -1.4129  2.3621
  190SLPC  H13B21910   1.708   2.527   5.771 -0.6908  0.3565 -0.5230
  190SLPC  H13C21911   1.546   2.463   5.813  0.4508 -1.0614 -0.2380
  190SLPC   C1421912   1.606   2.453   6.082  1.0664  0.1070 -0.0896
  190SLPC  H14A21913   1.608   2.549   6.132 -0.6859 -0.8280  1.9128
  190SLPC  H14B21914   1.506   2.418   6.061  0.6339  0.4026  1.3692
  190SLPC  H14C21915   1.638   2.390   6.163  1.4425  1.8083  1.1523
  190SLPC   C1521916   1.813   2.511   5.998 -0.3280  0.3185 -0.1466
  190SLPC  H15A21917   1.874   2.542   5.914 -0.2662  1.8668  0.4365
  190SLPC  H15B21918   1.790   2.608   6.039  0.5368  0.5897 -0.2975
  190SLPC  H15C21919   1.870   2.466   6.077 -1.3410  0.2256  0.5535
  190SLPC   C1221920   1.716   2.289   5.928 -0.3369 -0.9911 -0.1133
  190SLPC  H12A21921   1.796   2.286   5.855 -0.5479  0.1370 -0.4159
  190SLPC  H12B21922   1.631   2.249   5.874 -0.3205 -0.7077 -0.3560
  190SLPC   C1121923   1.747   2.199   6.055  0.0744  0.1574  0.2791
  190SLPC  H11A21924   1.748   2.095   6.014 -2.2185  0.3762 -0.4568
  190SLPC  H11B21925   1.656   2.193   6.120 -1.2082  3.0130 -1.1107
  190SLPC     P21926   1.997   2.175   6.094 -0.2407 -0.1784 -0.0465
  190SLPC   O1321927   1.992   2.034   6.060  1.1429  0.5157 -0.0388
  190SLPC   O1421928   2.051   2.266   5.996 -0.4015 -0.1483  0.8363
  190SLPC   O1221929   1.858   2.235   6.134 -0.0562  0.2644  0.4206
  190SLPC   O1121930   2.091   2.186   6.219  0.0872  0.4764 -0.3400
  190SLPC    C121931   2.075   2.294   6.308  0.1294 -0.3806  0.3993
  190SLPC    HA21932   2.035   2.385   6.259  1.3086 -0.5757 -0.9967
  190SLPC    HB21933   2.006   2.262   6.389 -0.8087 -0.3717 -0.3810
  190SLPC    C221934   2.213   2.327   6.372 -0.2301 -0.0703  0.2193
  190SLPC    HS21935   2.285   2.330   6.288 -0.3376  0.8854  0.1531
  190SLPC   O2121936   2.243   2.231   6.476  0.0614 -0.4116 -0.2498
  190SLPC   C2121937   2.377   2.211   6.495  0.2401  0.3420  0.0990
  190SLPC   O2221938   2.466   2.245   6.416  0.0770 -0.1504 -0.2028
  190SLPC   C2221939   2.403   2.124   6.623 -0.0647  0.7372  0.3405
  190SLPC   H2R21940   2.307   2.121   6.679 -0.3654  1.1347 -0.1440
  190SLPC   H2S21941   2.423   2.020   6.590 -0.6787  0.8685 -0.5085
  190SLPC    C321942   2.215   2.477   6.429  0.5108 -0.7855 -0.4392
  190SLPC    HX21943   2.199   2.543   6.341  0.0699 -0.1771  0.0845
  190SLPC    HY21944   2.318   2.496   6.467  0.4327  0.2022 -0.6923
  190SLPC   O3121945   2.108   2.494   6.521 -0.0982 -0.1572 -0.9387
  190SLPC   C3121946   2.069   2.619   6.548  0.8309 -0.0499  0.1389
  190SLPC   O3221947   2.116   2.720   6.502  0.2302 -0.0642  0.0103
  190SLPC   C3221948   1.945   2.611   6.642 -0.1200  0.4972  0.2330
  190SLPC   H2X21949   1.984   2.584   6.742  0.8320 -2.8593 -0.8813
  190SLPC   H2Y21950   1.877   2.530   6.609  1.8467 -1.0163 -0.3326
  190SLPC   C2321951   2.528   2.184   6.692  0.0436  0.3432  0.4369
  190SLPC   H3R21952   2.512   2.294   6.703  0.3989  0.4349  0.0784
  190SLPC   H3S21953   2.628   2.177   6.644 -0.2207  0.5936 -0.1602
  190SLPC   C2421954   2.531   2.141   6.841  0.6343  0.5158  1.2446
  190SLPC   H4R21955   2.548   2.033   6.859  0.9439  0.6478  1.7482
  190SLPC   H4S21956   2.434   2.169   6.889 -0.1431 -1.9411  1.2815
  190SLPC   C2521957   2.644   2.215   6.921 -0.2345  0.6835 -0.5316
  190SLPC   H5R21958   2.627   2.323   6.904 -3.2474  0.4840  0.6285
  190SLPC   H5S21959   2.740   2.186   6.873 -0.5479 -1.3988 -0.0315
  190SLPC   C2621960   2.646   2.187   7.073 -0.1400 -0.3229 -0.2872
  190SLPC   H6R21961   2.732   2.240   7.119  3.3676 -3.4798 -2.6183
  190SLPC   H6S21962   2.647   2.080   7.102 -2.8376 -0.4290 -0.3467
  190SLPC   C2721963   2.521   2.254   7.143  0.0847  0.7746 -0.5592
  190SLPC   H7R21964   2.429   2.201   7.110 -1.0465  2.7427 -0.6943
  190SLPC   H7S21965   2.506   2.355   7.101 -1.9047  1.1497  0.8762
  190SLPC   C2821966   2.523   2.273   7.299  0.4543  0.2871  0.1337
  190SLPC   H8R21967   2.431   2.330   7.324  0.8695  0.5387  1.1108
  190SLPC   H8S21968   2.607   2.339   7.329 -0.3528  0.9026  1.1093
  190SLPC   C2921969   2.536   2.143   7.379  0.0596 -0.2577  0.1945
  190SLPC   H9R21970   2.600   2.066   7.334  2.5421  1.7051  0.1728
  190SLPC  C21021971   2.490   2.112   7.501  0.1106 -0.1500 -0.2380
  190SLPC  H10R21972   2.501   2.014   7.551  2.8470  0.6575  0.9473
  190SLPC  C21121973   2.402   2.192   7.593 -0.1451 -0.0635 -0.1729
  190SLPC  H11R21974   2.380   2.139   7.689 -2.3747  2.4171  0.8354
  190SLPC  H11S21975   2.301   2.198   7.547 -0.8273 -3.5231  0.6108
  190SLPC  C21221976   2.473   2.321   7.635  0.2064 -0.0947 -0.3384
  190SLPC  H12R21977   2.501   2.388   7.553 -0.2450 -0.2543 -0.6278
  190SLPC  C21321978   2.496   2.373   7.754 -0.3466  0.5098 -0.1082
  190SLPC  H13R21979   2.544   2.471   7.769 -0.7415  0.6006  0.5856
  190SLPC  C21421980   2.456   2.321   7.886  0.3690  0.0099  0.6743
  190SLPC  H14R21981   2.361   2.264   7.880  1.6671 -2.3542  1.0727
  190SLPC  H14S21982   2.437   2.401   7.961 -1.5544 -1.9991  2.4890
  190SLPC  C21521983   2.565   2.219   7.937  0.4868  0.0387 -0.0175
  190SLPC  H15R21984   2.657   2.279   7.951 -0.4518  0.9303  3.4033
  190SLPC  H15S21985   2.582   2.139   7.862 -4.1653 -1.0759 -0.1997
  190SLPC  C21621986   2.517   2.158   8.064  0.2241  0.1927  0.5830
  190SLPC  H16R21987   2.547   2.051   8.064 -1.4575 -0.3533 -1.6800
  190SLPC  H16S21988   2.406   2.159   8.075  0.2469  2.1225  1.0371
  190SLPC  C21721989   2.570   2.228   8.190 -0.3952 -0.4375 -0.2909
  190SLPC  H17R21990   2.553   2.337   8.180  2.4955  0.0768 -0.6172
  190SLPC  H17S21991   2.680   2.214   8.195 -0.5873 -1.9985  0.1035
  190SLPC  C21821992   2.521   2.166   8.318  0.3281 -0.7239 -0.4930
  190SLPC  H18R21993   2.552   2.060   8.326  3.1608  0.0020 -0.4367
  190SLPC  H18S21994   2.411   2.181   8.317  0.3709 -0.4013 -1.4382
  190SLPC  H18T21995   2.545   2.226   8.409  1.0168 -0.0854 -1.0847
  190SLPC   C3321996   1.875   2.760   6.646 -0.1369  0.5103  0.0665
  190SLPC   H3X21997   1.851   2.778   6.539  0.3506 -0.5114 -0.2220
  190SLPC   H3Y21998   1.947   2.839   6.676  1.0912 -0.9324  1.0449
  190SLPC   C3421999   1.758   2.768   6.756  0.0122 -0.3057  0.2155
  190SLPC   H4X22000   1.801   2.754   6.857  0.1441 -0.1987  0.1750
  190SLPC   H4Y22001   1.681   2.688   6.753  1.0551 -1.3259 -0.0973
  190SLPC   C3522002   1.684   2.903   6.748 -0.7288  0.4365  0.6845
  190SLPC   H5X22003   1.641   2.915   6.646 -1.4406 -1.2822  0.7428
  190SLPC   H5Y22004   1.762   2.978   6.774  1.2464 -1.7887  1.4841
  190SLPC   C3622005   1.564   2.910   6.846 -0.0848  0.1859  0.0117
  190SLPC   H6X22006   1.597   2.893   6.950 -1.6207  2.5276  0.9863
  190SLPC   H6Y22007   1.490   2.833   6.818  0.6766 -0.6410  0.2486
  190SLPC   C3722008   1.501   3.045   6.839 -0.0283  0.5511 -0.1873
  190SLPC   H7X22009   1.404   3.047   6.893  0.2096 -0.5039  0.3122
  190SLPC   H7Y22010   1.481   3.072   6.733 -0.2570 -1.6899 -0.7618
  190SLPC   C3822011   1.583   3.168   6.908 -0.5617  0.6925  0.1511
  190SLPC   H8X22012   1.505   3.245   6.924 -1.2342 -0.1907  1.2501
  190SLPC   H8Y22013   1.650   3.200   6.825  0.7190 -0.9157  0.5131
  190SLPC   C3922014   1.667   3.125   7.030  0.4154  0.6063 -0.5173
  190SLPC   H9X22015   1.722   3.214   7.066  1.3428  0.0031 -0.3900
  190SLPC   H9Y22016   1.743   3.047   7.007 -0.0332 -0.0866  0.2757
  190SLPC  C31022017   1.588   3.060   7.154  0.2767  0.2362 -0.3677
  190SLPC  H10X22018   1.659   2.982   7.188 -0.8945 -1.2001 -1.1292
  190SLPC  H10Y22019   1.492   3.013   7.123 -0.6413  1.9826 -0.3059
  190SLPC  C31122020   1.560   3.164   7.275 -0.5447  0.4446 -0.4507
  190SLPC  H11X22021   1.489   3.243   7.243 -1.1145 -0.3755 -1.2838
  190SLPC  H11Y22022   1.657   3.211   7.301  0.8340 -1.4551 -1.8241
  190SLPC  C31222023   1.506   3.096   7.399 -0.1639  0.7182  0.7343
  190SLPC  H12X22024   1.596   3.042   7.435 -0.3554  2.1023  3.5537
  190SLPC  H12Y22025   1.425   3.024   7.373  0.7479 -0.6617  1.5776
  190SLPC  C31322026   1.452   3.192   7.505 -0.1427  0.0837 -0.3900
  190SLPC  H13X22027   1.375   3.250   7.450  0.0449  0.0256 -0.7132
  190SLPC  H13Y22028   1.534   3.257   7.541  1.8296 -1.8436 -1.2129
  190SLPC  C31422029   1.393   3.124   7.628  0.1507  0.3322  0.6258
  190SLPC  H14X22030   1.342   3.027   7.609 -0.2155  1.0196 -2.3647
  190SLPC  H14Y22031   1.329   3.200   7.677 -1.5120 -2.3896  3.0716
  190SLPC  C31522032   1.489   3.084   7.745 -0.1355 -0.3524  0.1211
  190SLPC  H15X22033   1.593   3.084   7.706  0.5663  0.5141  1.9006
  190SLPC  H15Y22034   1.456   2.989   7.792 -0.3629 -0.3955 -0.1280
  190SLPC  C31622035   1.496   3.193   7.859 -0.0742  0.8366  1.1147
  190SLPC  H16X22036   1.503   3.290   7.805  2.4865  0.5258  0.7194
  190SLPC  H16Y22037   1.598   3.172   7.898  0.0851 -0.2564  0.1873
  190SLPC  C31722038   1.386   3.162   7.954 -0.1118  0.6085  0.0651
  190SLPC  H17X22039   1.414   3.072   8.013 -1.6202  0.0626  0.0128
  190SLPC  H17Y22040   1.301   3.132   7.888 -0.1084 -0.9268  0.7191
  190SLPC  C31822041   1.349   3.278   8.043 -0.4144 -0.2791 -0.0341
  190SLPC  H18X22042   1.409   3.287   8.136  1.9040 -2.4682 -1.1958
  190SLPC  H18Y22043   1.243   3.268   8.076 -0.2526 -1.5213  0.1723
  190SLPC  H18Z22044   1.344   3.374   7.987 -2.3049 -0.8717 -0.9677
  191SLPC     N22045   1.675   4.823   5.513 -0.1068  0.7513 -0.3740
  191SLPC   C1322046   1.690   4.745   5.386  0.4372  0.5537 -0.2822
  191SLPC  H13A22047   1.667   4.811   5.304 -0.5743 -0.2295 -0.6328
  191SLPC  H13B22048   1.792   4.709   5.383 -0.3332 -1.8432  0.5185
  191SLPC  H13C22049   1.631   4.655   5.386  0.2217  0.6908 -0.8487
  191SLPC   C1422050   1.778   4.941   5.500 -0.5167  0.1888 -0.5973
  191SLPC  H14A22051   1.878   4.905   5.480 -0.8508 -1.9290  1.1897
  191SLPC  H14B22052   1.750   5.002   5.415 -0.3844 -0.9834 -1.5137
  191SLPC  H14C22053   1.788   5.001   5.589  0.5178 -0.8111 -0.0236
  191SLPC   C1522054   1.722   4.732   5.627  0.2395 -0.1950  0.6918
  191SLPC  H15A22055   1.662   4.642   5.621  0.6616 -0.4338 -0.2545
  191SLPC  H15B22056   1.828   4.714   5.614  0.6222  0.7450  2.3653
  191SLPC  H15C22057   1.712   4.792   5.716  0.9262  0.6831  0.1991
  191SLPC   C1222058   1.534   4.868   5.522 -0.2455  0.1743  0.1205
  191SLPC  H12A22059   1.475   4.779   5.509 -0.0667 -0.1138  1.1831
  191SLPC  H12B22060   1.517   4.945   5.448  0.5706  0.2018 -0.0477
  191SLPC   C1122061   1.493   4.923   5.666 -0.0417 -0.1307  0.0608
  191SLPC  H11A22062   1.405   4.989   5.675 -0.2757 -0.6392  2.2270
  191SLPC  H11B22063   1.580   4.989   5.687  0.2790 -0.9318  1.4327
  191SLPC     P22064   1.354   4.737   5.772  0.1385  0.3255  0.0901
  191SLPC   O1322065   1.254   4.784   5.677 -0.8739  0.2303 -0.0047
  191SLPC   O1422066   1.385   4.594   5.763 -0.0446  0.1522 -0.2077
  191SLPC   O1222067   1.489   4.822   5.769 -0.0187  0.7100  0.2209
  191SLPC   O1122068   1.303   4.779   5.917 -0.3289  0.0215  0.9606
  191SLPC    C122069   1.375   4.840   6.018  0.3687  0.1735 -0.1369
  191SLPC    HA22070   1.461   4.773   6.041 -0.5539 -0.5331  1.4418
  191SLPC    HB22071   1.409   4.938   5.979 -1.7405  0.7473 -0.6794
  191SLPC    C222072   1.305   4.844   6.152  0.5542 -0.1680  0.4295
  191SLPC    HS22073   1.202   4.880   6.129  0.6521 -1.6161 -2.8837
  191SLPC   O2122074   1.389   4.923   6.239  0.2762  0.1508  0.3692
  191SLPC   C2122075   1.346   5.050   6.253 -0.0203 -0.4606 -0.6293
  191SLPC   O2222076   1.262   5.102   6.183 -0.2736 -0.2996  0.3476
  191SLPC   C2222077   1.430   5.116   6.362  0.2054 -0.1132  0.3797
  191SLPC   H2R22078   1.530   5.069   6.360  0.7315  0.9884 -0.1915
  191SLPC   H2S22079   1.438   5.222   6.329 -0.8220 -0.9372 -2.8799
  191SLPC    C322080   1.293   4.708   6.220  0.1795  0.2081 -0.5578
  191SLPC    HX22081   1.391   4.659   6.235 -1.2167 -2.1149  1.9830
  191SLPC    HY22082   1.234   4.637   6.158  0.4135 -0.2826 -0.2242
  191SLPC   O3122083   1.222   4.721   6.349 -0.4406  0.0194  0.4054
  191SLPC   C3122084   1.207   4.608   6.419 -1.0712  0.0335  0.1193
  191SLPC   O3222085   1.254   4.500   6.389 -0.5102 -0.2178  0.2676
  191SLPC   C3222086   1.124   4.626   6.541  0.3766 -0.3237 -0.9138
  191SLPC   H2X22087   1.019   4.607   6.513 -0.5780  3.3737 -0.3569
  191SLPC   H2Y22088   1.126   4.732   6.575 -0.2540 -0.3579 -0.7606
  191SLPC   C2322089   1.354   5.112   6.504  1.0896 -0.5491  0.0987
  191SLPC   H3R22090   1.340   5.005   6.529  0.2711 -0.7728 -1.2433
  191SLPC   H3S22091   1.258   5.166   6.490  1.0041 -1.0003 -1.1421
  191SLPC   C2422092   1.439   5.195   6.607  0.5736  0.8501 -1.0949
  191SLPC   H4R22093   1.471   5.285   6.550 -0.6586  2.0888  0.0911
  191SLPC   H4S22094   1.534   5.140   6.620  0.0101 -0.3549 -1.8505
  191SLPC   C2522095   1.378   5.218   6.746 -0.1129 -0.6393  0.8323
  191SLPC   H5R22096   1.280   5.268   6.729  0.0157 -0.6894 -0.1107
  191SLPC   H5S22097   1.449   5.270   6.813 -0.5289  1.3393 -0.1982
  191SLPC   C2622098   1.344   5.087   6.817 -0.9954  0.3317  0.7915
  191SLPC   H6R22099   1.436   5.026   6.830 -1.9585 -2.0511 -2.2759
  191SLPC   H6S22100   1.275   5.024   6.758 -1.0534  1.3895 -0.3117
  191SLPC   C2722101   1.274   5.121   6.946  0.5132  0.0283 -0.1041
  191SLPC   H7R22102   1.173   5.165   6.933 -0.0906 -0.9003  1.1925
  191SLPC   H7S22103   1.339   5.193   7.001  1.6026  0.4979 -1.9257
  191SLPC   C2822104   1.276   4.994   7.036 -0.0933  0.0910 -0.1004
  191SLPC   H8R22105   1.367   4.932   7.027  0.7712  0.5622  3.7437
  191SLPC   H8S22106   1.195   4.927   6.998 -1.2273  1.7441 -0.7201
  191SLPC   C2922107   1.250   5.015   7.184 -1.2110  0.5082  0.5512
  191SLPC   H9R22108   1.326   5.078   7.233 -1.4845 -0.7186  2.7132
  191SLPC  C21022109   1.141   4.982   7.249 -0.3178  0.2729  0.7433
  191SLPC  H10R22110   1.135   5.014   7.354 -0.4972  0.1538  0.7691
  191SLPC  C21122111   1.018   4.908   7.201  0.1409 -0.3026  0.0643
  191SLPC  H11R22112   1.001   4.819   7.265  0.1863 -0.6240 -0.3673
  191SLPC  H11S22113   1.029   4.870   7.097 -1.2830  0.2146 -0.2920
  191SLPC  C21222114   0.894   4.990   7.188  1.1016  0.9832 -0.0133
  191SLPC  H12R22115   0.891   5.062   7.105 -0.8046 -0.6611 -1.4728
  191SLPC  C21322116   0.778   4.980   7.259 -0.0803 -0.2241  0.2689
  191SLPC  H13R22117   0.696   5.039   7.215 -0.1236  0.5392  1.3363
  191SLPC  C21422118   0.742   4.894   7.379  0.3468 -0.1839  0.1711
  191SLPC  H14R22119   0.832   4.832   7.400 -0.7548 -1.7395  0.4135
  191SLPC  H14S22120   0.668   4.816   7.351 -0.6294  0.1012  1.8211
  191SLPC  C21522121   0.700   4.973   7.507 -0.2168 -0.3345 -0.5570
  191SLPC  H15R22122   0.785   5.025   7.557 -2.3394  1.0530  1.8247
  191SLPC  H15S22123   0.676   4.899   7.587  1.3907 -0.3570 -0.0495
  191SLPC  C21622124   0.585   5.072   7.493 -0.5476 -0.1382  0.7914
  191SLPC  H16R22125   0.497   5.005   7.485  0.2029 -0.9573 -1.0542
  191SLPC  H16S22126   0.598   5.144   7.409 -1.4823  0.6582  1.3031
  191SLPC  C21722127   0.563   5.167   7.610 -0.3495 -0.4781  0.0859
  191SLPC  H17R22128   0.473   5.227   7.589 -2.5920 -3.1346  1.4597
  191SLPC  H17S22129   0.657   5.222   7.587 -0.7225 -0.5082 -1.6177
  191SLPC  C21822130   0.553   5.105   7.749 -0.2260 -0.0603  0.5592
  191SLPC  H18R22131   0.640   5.039   7.769 -0.3248 -0.6066 -0.7298
  191SLPC  H18S22132   0.463   5.040   7.745  1.1462 -2.1175 -4.0153
  191SLPC  H18T22133   0.551   5.187   7.823  3.9408  1.5425 -0.7758
  191SLPC   C3322134   1.166   4.536   6.655  0.0436  0.3548 -0.4620
  191SLPC   H3X22135   1.172   4.431   6.620 -0.3699  0.7538 -1.7683
  191SLPC   H3Y22136   1.087   4.539   6.734  0.9113  0.6737  0.4172
  191SLPC   C3422137   1.309   4.573   6.721  0.2435 -0.1154  0.2540
  191SLPC   H4X22138   1.388   4.605   6.650  3.6035 -1.4945  3.0777
  191SLPC   H4Y22139   1.354   4.485   6.771  0.9696  0.0753 -0.0589
  191SLPC   C3522140   1.305   4.675   6.842 -0.3444 -0.2462 -0.5867
  191SLPC   H5X22141   1.250   4.765   6.807 -2.5136 -0.8769  0.9828
  191SLPC   H5Y22142   1.412   4.705   6.850 -0.5436  0.2518  0.3282
  191SLPC   C3622143   1.237   4.618   6.968 -0.7424 -0.1335  1.1632
  191SLPC   H6X22144   1.140   4.583   6.926 -0.4022  0.8633 -0.5817
  191SLPC   H6Y22145   1.222   4.706   7.034  1.6236  2.3994 -1.3707
  191SLPC   C3722146   1.328   4.517   7.039  0.8545 -0.9019 -0.3298
  191SLPC   H7X22147   1.433   4.552   7.035  0.1561  1.3280 -0.5378
  191SLPC   H7Y22148   1.311   4.415   7.000 -0.7373 -0.2304 -1.5094
  191SLPC   C3822149   1.291   4.507   7.186 -0.4547  0.4478 -0.5606
  191SLPC   H8X22150   1.321   4.411   7.233  1.3706 -0.6678 -3.6676
  191SLPC   H8Y22151   1.181   4.521   7.201 -0.3571 -0.7592  1.8420
  191SLPC   C3922152   1.345   4.625   7.271  0.0596  0.2333  0.1028
  191SLPC   H9X22153   1.332   4.717   7.210 -0.9447  0.1973  0.2512
  191SLPC   H9Y22154   1.456   4.618   7.275  0.0634  0.7256  1.8719
  191SLPC  C31022155   1.283   4.627   7.414  0.4307 -0.2879  0.6352
  191SLPC  H10X22156   1.302   4.528   7.460 -1.5800  0.6693  3.9361
  191SLPC  H10Y22157   1.173   4.637   7.403  0.4372  0.6197  1.2652
  191SLPC  C31122158   1.348   4.726   7.515 -0.0075  0.2608  0.1356
  191SLPC  H11X22159   1.327   4.827   7.473 -0.5077  0.1919  0.2116
  191SLPC  H11Y22160   1.458   4.717   7.525 -0.0818 -2.5947 -0.8453
  191SLPC  C31222161   1.271   4.735   7.650 -0.0299 -0.5677  0.0032
  191SLPC  H12X22162   1.331   4.798   7.719  3.4448  0.3243 -3.5342
  191SLPC  H12Y22163   1.271   4.635   7.698  2.3412  1.1043  4.0511
  191SLPC  C31322164   1.130   4.800   7.646 -0.7205 -0.3520 -0.6103
  191SLPC  H13X22165   1.057   4.717   7.644 -0.2180 -0.9778  2.4048
  191SLPC  H13Y22166   1.123   4.866   7.557  2.8881  0.5260 -0.4399
  191SLPC  C31422167   1.086   4.874   7.777 -0.1308  0.7424 -0.1283
  191SLPC  H14X22168   0.992   4.925   7.747  0.9522  1.6470 -2.1644
  191SLPC  H14Y22169   1.171   4.941   7.801  1.4988 -1.3736  0.2813
  191SLPC  C31522170   1.061   4.783   7.897  0.3265  0.3855 -0.1895
  191SLPC  H15X22171   1.147   4.720   7.926 -0.5719 -0.8358 -0.1313
  191SLPC  H15Y22172   0.968   4.725   7.879 -0.5718  1.0160  2.0951
  191SLPC  C31622173   1.039   4.871   8.017 -0.1474 -0.4422 -0.8127
  191SLPC  H16X22174   1.124   4.942   8.029 -0.8858  0.1072  1.7127
  191SLPC  H16Y22175   1.044   4.797   8.099  1.2420 -1.9141 -2.1595
  191SLPC  C31722176   0.901   4.942   8.017  0.3304 -0.3240 -0.2151
  191SLPC  H17X22177   0.821   4.865   8.010 -1.0535  1.0244  0.2090
  191SLPC  H17Y22178   0.894   5.004   7.925  0.5509  1.8610  1.1586
  191SLPC  C31822179   0.885   5.033   8.139 -0.1791  0.0494  0.4134
  191SLPC  H18X22180   0.777   5.057   8.147  0.3472  2.3064  1.3602
  191SLPC  H18Y22181   0.935   5.131   8.124 -1.4817  0.8736  1.2923
  191SLPC  H18Z22182   0.919   4.980   8.230  0.5621  1.2883  0.8865
  192SLPC     N22183   0.675   5.951   6.048  0.1057 -0.1863 -0.0892
  192SLPC   C1322184   0.623   6.082   6.008  0.1599  0.6479  0.2992
  192SLPC  H13A22185   0.658   6.130   5.918 -0.1260  0.4734  0.0933
  192SLPC  H13B22186   0.517   6.075   5.987  0.5787  0.3657 -1.9860
  192SLPC  H13C22187   0.652   6.159   6.077  1.6574  0.5755 -0.2169
  192SLPC   C1422188   0.817   5.956   6.018 -0.8236  0.0382 -0.0553
  192SLPC  H14A22189   0.837   5.997   5.920  0.7552 -0.5971 -0.0302
  192SLPC  H14B22190   0.866   6.031   6.077 -0.3373  0.2404 -0.6968
  192SLPC  H14C22191   0.861   5.861   6.046 -2.7509 -1.4535 -1.7369
  192SLPC   C1522192   0.610   5.846   5.972 -0.3431  0.0574  0.2302
  192SLPC  H15A22193   0.506   5.822   5.991  0.0529 -1.4019  0.7130
  192SLPC  H15B22194   0.611   5.879   5.869  2.2324  2.5283  0.9379
  192SLPC  H15C22195   0.668   5.755   5.978  0.8966  0.9306  2.1436
  192SLPC   C1222196   0.647   5.932   6.198  0.6284 -1.0047  0.6898
  192SLPC  H12A22197   0.541   5.948   6.204  0.2741 -2.4329 -0.8502
  192SLPC  H12B22198   0.697   6.007   6.258 -2.5720  1.6572  0.3254
  192SLPC   C1122199   0.668   5.795   6.262 -0.2085 -0.0603 -0.1297
  192SLPC  H11A22200   0.604   5.717   6.217 -1.2290  0.5936  0.1514
  192SLPC  H11B22201   0.635   5.806   6.368  0.0281  2.3056 -0.2346
  192SLPC     P22202   0.909   5.816   6.345  0.2826 -0.2147 -0.1932
  192SLPC   O1322203   1.033   5.836   6.265 -1.1031  0.5731  0.7060
  192SLPC   O1422204   0.850   5.932   6.425 -0.2270  0.2814 -0.0802
  192SLPC   O1222205   0.804   5.761   6.245  0.0108  0.6253 -0.4856
  192SLPC   O1122206   0.940   5.690   6.440  0.2345 -0.0392  0.3687
  192SLPC    C122207   1.014   5.581   6.396  0.2787 -0.3194 -0.5482
  192SLPC    HA22208   0.945   5.494   6.395 -1.5556  1.0260  0.7060
  192SLPC    HB22209   1.056   5.582   6.293  3.2192 -5.8996  0.2056
  192SLPC    C222210   1.148   5.577   6.481 -0.0599  0.5896  0.9958
  192SLPC    HS22211   1.194   5.477   6.468 -1.0948  0.1810  0.3429
  192SLPC   O2122212   1.132   5.604   6.617 -1.1612 -0.5244 -0.3739
  192SLPC   C2122213   1.047   5.522   6.681  0.3375  0.0352 -0.1589
  192SLPC   O2222214   0.978   5.437   6.627 -0.1467 -0.1669  0.0987
  192SLPC   C2222215   1.045   5.565   6.833  0.7298  0.4296 -0.1868
  192SLPC   H2R22216   1.144   5.609   6.855  1.2917 -0.0700 -1.6013
  192SLPC   H2S22217   0.971   5.647   6.843  1.5623  0.9637  2.3686
  192SLPC    C322218   1.256   5.671   6.421 -0.0068  0.2553  0.3097
  192SLPC    HX22219   1.222   5.775   6.439 -0.6278 -0.0474  0.9699
  192SLPC    HY22220   1.279   5.656   6.314  0.3145  1.1840  0.2400
  192SLPC   O3122221   1.375   5.660   6.496 -0.1185  0.1122  0.0284
  192SLPC   C3122222   1.489   5.616   6.442 -0.4203  0.6478  0.3630
  192SLPC   O3222223   1.494   5.577   6.325 -0.4267  0.2383 -0.3394
  192SLPC   C3222224   1.603   5.609   6.548 -0.0217 -0.5855 -0.1875
  192SLPC   H2X22225   1.672   5.693   6.526 -1.1395  0.3282 -0.2682
  192SLPC   H2Y22226   1.660   5.514   6.538 -0.7117 -1.0451  0.1433
  192SLPC   C2322227   1.015   5.450   6.937  0.0161 -0.0516 -0.1499
  192SLPC   H3R22228   1.080   5.364   6.913 -1.3699 -0.4868 -2.7160
  192SLPC   H3S22229   0.908   5.420   6.926  0.1502 -0.0751 -1.5795
  192SLPC   C2422230   1.033   5.494   7.078  0.2948 -0.5408  0.3011
  192SLPC   H4R22231   0.963   5.573   7.114 -0.3461 -0.4307 -1.1017
  192SLPC   H4S22232   1.135   5.537   7.074 -0.0103  0.6902  3.2806
  192SLPC   C2522233   1.031   5.384   7.183 -0.0276 -0.1480  0.1810
  192SLPC   H5R22234   1.103   5.302   7.162 -1.7338 -1.3599 -1.4051
  192SLPC   H5S22235   0.930   5.337   7.191 -0.2374  0.4109  0.8621
  192SLPC   C2622236   1.064   5.441   7.321  0.4077  0.4650  0.3148
  192SLPC   H6R22237   0.971   5.500   7.339  0.2930  0.1547  0.7609
  192SLPC   H6S22238   1.150   5.511   7.328  0.2779  1.0519 -2.7677
  192SLPC   C2722239   1.074   5.325   7.417 -0.2774 -0.3776 -0.3425
  192SLPC   H7R22240   1.183   5.306   7.433 -0.6393 -1.0253  1.6431
  192SLPC   H7S22241   1.022   5.233   7.384 -0.4770 -0.0119 -1.0483
  192SLPC   C2822242   1.009   5.364   7.558 -0.1914 -0.7694  0.3093
  192SLPC   H8R22243   0.902   5.372   7.529  0.1835  2.2632 -0.6434
  192SLPC   H8S22244   1.033   5.468   7.587  1.2441 -0.9341 -0.2121
  192SLPC   C2922245   1.034   5.270   7.670  0.9231  0.1046  0.4119
  192SLPC   H9R22246   1.080   5.175   7.638  0.9151 -0.2158  1.3252
  192SLPC  C21022247   1.008   5.289   7.800 -0.1561  0.2452 -0.0869
  192SLPC  H10R22248   1.019   5.194   7.855  1.3087 -0.5431 -1.6645
  192SLPC  C21122249   0.951   5.413   7.873  0.7366 -0.1753  0.5459
  192SLPC  H11R22250   0.860   5.385   7.930  0.7475  2.0463  1.7532
  192SLPC  H11S22251   0.923   5.487   7.795  0.8702 -3.2485 -2.6958
  192SLPC  C21222252   1.041   5.474   7.968 -0.6904 -0.1330 -1.2369
  192SLPC  H12R22253   1.144   5.451   7.937 -0.6975 -2.1867  0.1083
  192SLPC  C21322254   1.022   5.554   8.078  0.2555  0.0868  0.3254
  192SLPC  H13R22255   1.103   5.594   8.140  0.7903  1.8152 -1.3837
  192SLPC  C21422256   0.875   5.583   8.118 -0.0542 -0.3410 -0.5562
  192SLPC  H14R22257   0.811   5.499   8.153 -0.4335  0.2862  0.2890
  192SLPC  H14S22258   0.822   5.636   8.036  0.4093  4.7247  2.0074
  192SLPC  C21522259   0.872   5.689   8.240 -0.1503  0.3227 -0.3363
  192SLPC  H15R22260   0.927   5.777   8.201  1.6814  0.7932  2.9727
  192SLPC  H15S22261   0.934   5.644   8.320  1.1685  0.8206 -1.0542
  192SLPC  C21622262   0.730   5.733   8.285  0.0548 -0.5424  0.1000
  192SLPC  H16R22263   0.659   5.745   8.201  0.1631  0.7319  0.1805
  192SLPC  H16S22264   0.749   5.829   8.337  2.2485 -1.0363  0.3120
  192SLPC  C21722265   0.670   5.639   8.400 -0.1590 -0.1194 -0.4926
  192SLPC  H17R22266   0.594   5.567   8.362  0.5646 -2.5277  2.3313
  192SLPC  H17S22267   0.750   5.576   8.443  0.5170  2.1948  1.8900
  192SLPC  C21822268   0.607   5.719   8.514  0.0817 -0.6410  0.0473
  192SLPC  H18R22269   0.579   5.655   8.600 -0.9868 -1.2307 -0.7151
  192SLPC  H18S22270   0.520   5.781   8.486 -0.4825 -0.2373  2.4864
  192SLPC  H18T22271   0.684   5.795   8.539  0.9867 -1.2886 -0.6595
  192SLPC   C3322272   1.555   5.608   6.691 -0.0426 -0.9711  0.1195
  192SLPC   H3X22273   1.457   5.559   6.710  0.0801 -1.8735 -1.4510
  192SLPC   H3Y22274   1.549   5.710   6.734  3.3815 -1.1915  1.4019
  192SLPC   C3422275   1.645   5.520   6.781  0.1190 -0.5057 -0.0179
  192SLPC   H4X22276   1.753   5.545   6.773  0.4385  0.4412  4.6455
  192SLPC   H4Y22277   1.635   5.416   6.745 -4.8950  0.0697 -1.0846
  192SLPC   C3522278   1.606   5.547   6.926 -0.6330  0.6056 -0.3352
  192SLPC   H5X22279   1.504   5.590   6.927 -1.3826 -1.0883  0.4594
  192SLPC   H5Y22280   1.671   5.624   6.971  1.6891  0.1875 -2.7195
  192SLPC   C3622281   1.593   5.424   7.022  0.1201  0.0700 -0.2742
  192SLPC   H6X22282   1.687   5.366   7.027 -2.2470 -4.1137  0.8947
  192SLPC   H6Y22283   1.525   5.348   6.977 -1.1507  0.8019  0.3571
  192SLPC   C3722284   1.540   5.464   7.163  0.2288  0.8406 -0.8669
  192SLPC   H7X22285   1.436   5.503   7.167 -0.3264 -0.6988  0.0893
  192SLPC   H7Y22286   1.606   5.540   7.209  0.2580 -0.4492  1.3335
  192SLPC   C3822287   1.552   5.338   7.256  0.6822  0.2095  0.5148
  192SLPC   H8X22288   1.653   5.294   7.253  1.3705  1.6063  1.6444
  192SLPC   H8Y22289   1.494   5.252   7.217  2.9973 -0.9869 -0.4465
  192SLPC   C3922290   1.521   5.372   7.402 -0.3156 -0.8495 -0.4545
  192SLPC   H9X22291   1.424   5.426   7.397  0.2501  0.1724 -0.7084
  192SLPC   H9Y22292   1.601   5.443   7.433 -1.1570  0.9348 -2.1568
  192SLPC  C31022293   1.515   5.256   7.505 -0.3215  0.1642 -0.5700
  192SLPC  H10X22294   1.610   5.198   7.506  0.1596  0.9062  1.5092
  192SLPC  H10Y22295   1.439   5.190   7.457 -0.8993  0.5294 -0.1703
  192SLPC  C31122296   1.475   5.312   7.642  0.2511 -0.2928  0.2902
  192SLPC  H11X22297   1.383   5.373   7.630  0.1429 -0.3950  0.5882
  192SLPC  H11Y22298   1.556   5.381   7.675 -0.2543  0.5174 -0.1092
  192SLPC  C31222299   1.445   5.198   7.740 -0.7063  0.2275 -0.0612
  192SLPC  H12X22300   1.528   5.124   7.738 -3.3795 -2.9572 -0.2197
  192SLPC  H12Y22301   1.366   5.136   7.694 -0.2365 -0.4714  0.0490
  192SLPC  C31322302   1.425   5.243   7.884  0.8426 -0.9847 -1.1121
  192SLPC  H13X22303   1.348   5.322   7.869  2.3598  0.4675 -1.4349
  192SLPC  H13Y22304   1.514   5.302   7.915 -1.2593  2.1185 -0.5031
  192SLPC  C31422305   1.395   5.129   7.984 -0.1312 -0.1710  0.8114
  192SLPC  H14X22306   1.476   5.054   7.978 -1.2418 -1.6628  3.0437
  192SLPC  H14Y22307   1.299   5.080   7.957  0.5296 -0.4129 -1.3129
  192SLPC  C31522308   1.386   5.170   8.130  0.3415 -0.1515  0.4493
  192SLPC  H15X22309   1.322   5.259   8.147 -2.2224 -1.7239 -0.4855
  192SLPC  H15Y22310   1.489   5.197   8.161  0.4566  0.2681 -0.2903
  192SLPC  C31622311   1.338   5.041   8.212  0.0595 -0.0637 -0.2798
  192SLPC  H16X22312   1.386   4.959   8.154 -2.7244 -2.3068  0.3693
  192SLPC  H16Y22313   1.228   5.023   8.218  0.3502 -2.0267 -0.0639
  192SLPC  C31722314   1.404   5.042   8.352  0.0835 -0.4661  0.6176
  192SLPC  H17X22315   1.361   5.131   8.403  0.6550  1.0362 -1.3660
  192SLPC  H17Y22316   1.510   5.075   8.348  0.6054 -1.9669  1.2692
  192SLPC  C31822317   1.405   4.907   8.430  0.3100  0.3956  0.0753
  192SLPC  H18X22318   1.424   4.917   8.539 -3.3386  2.6741  0.6556
  192SLPC  H18Y22319   1.474   4.835   8.380  1.0082 -0.2305  1.8491
  192SLPC  H18Z22320   1.305   4.860   8.434  0.6320 -0.2801  0.4481
  193SOD    SOD22321   3.957   3.300  11.420  0.0822 -0.0410  0.0039
  194SOD    SOD22322   0.274   1.751   0.747  0.3348 -0.0483  0.3296
  195SOD    SOD22323   2.038   5.568  16.099  0.1283  0.0071  0.3497
  196SOD    SOD22324   1.767   6.396   2.978 -0.3023  0.0957 -0.0810
  197SOD    SOD22325   4.546   2.660   1.361 -0.0436  0.0268 -0.3279
  198SOD    SOD22326   0.953   0.281  13.371  0.1413  0.0148  0.2608
  199SOD    SOD22327   4.410   3.579  16.347 -0.6129 -0.1640 -0.2753
  200SOD    SOD22328   2.447   5.937   5.874  0.2195 -0.2427  0.2067
  201SOD    SOD22329   1.493   2.293   0.947  0.0623 -0.2758  0.8146
  202SOD    SOD22330   2.553   5.923  10.721  0.4497 -0.3011 -0.1592
  203SOD    SOD22331   0.013   3.080  15.148 -0.1810 -0.4839 -0.1218
  204SOD    SOD22332   5.515   5.849  11.311  0.6571  0.3829  0.4725
  205SOD    SOD22333   4.205   0.786  11.467 -0.3247 -0.5461  0.3074
  206SOD    SOD22334   4.536   5.254  10.608  0.1829 -0.4001  0.0650
  207SOD    SOD22335   6.838   2.747  15.473 -0.0153 -0.2808 -0.0431
  208SOD    SOD22336   1.963   4.902   1.451  0.0096  1.1247 -0.1746
  209SOD    SOD22337   0.457   1.743   6.198 -0.3782  0.1143 -0.7683
  210SOD    SOD22338   4.738   5.115  13.987  0.2243  0.3011 -0.1277
  211SOD    SOD22339   3.495   3.940  15.494  0.3098 -0.3633  0.5695
  212SOD    SOD22340   5.409   4.872  15.520 -0.1403  0.0495  0.3919
  213SOD    SOD22341   5.101   6.177  12.423 -0.4627 -0.0984 -0.0094
  214SOD    SOD22342   3.068   3.267  10.560 -0.4913 -0.2780  0.0782
  215SOD    SOD22343   1.254   3.436  16.987 -0.2347  0.6086  0.1302
  216SOD    SOD22344   4.029   6.604   0.211  0.0290  0.4594  0.3259
  217SOD    SOD22345   1.621   5.870  12.890 -0.1344 -0.1142 -0.3401
  218SOD    SOD22346   0.931   5.131   5.846  0.5351 -0.0153 -0.4763
  219SOD    SOD22347   6.732   0.597   4.799 -0.2398 -0.2961 -0.0808
  220SOD    SOD22348   2.718   1.047   5.798  0.1285  0.0065  0.1431
  221SOD    SOD22349   6.710   3.967   5.900 -0.6729 -0.1022 -0.1092
  222SOD    SOD22350   0.150   2.518   3.185  0.8155  0.3581 -0.0613
  223SOD    SOD22351   4.367   5.202  11.617 -0.2059  0.4545 -0.2360
  224SOD    SOD22352   4.700   6.806   5.886 -0.2004  0.3146 -0.0304
  225SOD    SOD22353   6.147   0.274   1.619  0.1905  0.2546  0.0005
  226SOD    SOD22354   5.050   0.871  15.077 -0.2670  0.1898 -0.3269
  227SOD    SOD22355   4.366   5.006  15.832  0.1044  0.3199 -0.3196
  228SOD    SOD22356   0.476   3.570   2.407  0.1371  0.4080 -0.1582
  229SOD    SOD22357   0.467   0.210  10.824 -0.8443 -0.2987 -0.3367
  230SOD    SOD22358   6.651   2.455   4.393  0.1214  0.6720 -0.2108
  231SOD    SOD22359   4.124   1.419   5.739 -0.2744  0.1838 -0.6418
  232SOD    SOD22360   2.307   6.363   1.314  0.0523 -0.3663 -0.1054
  233SOD    SOD22361   4.610   5.229   1.592  0.4107  0.4363 -0.0189
  234SOD    SOD22362   4.445   1.698  15.955 -0.1141  0.0853  0.5241
  235SOD    SOD22363   0.204   2.719   5.780  0.3635 -0.4605  0.2984
  236SOD    SOD22364   1.285   6.025  11.412 -0.1147 -0.0211  0.6064
  237SOD    SOD22365   5.743   4.831  11.049  0.1146 -0.2559 -0.7735
  238SOD    SOD22366   4.256   3.449   3.484 -0.3213 -0.1114  0.1436
  239SOD    SOD22367   3.014   3.045  11.223 -0.0749 -0.4729  0.1425
  240SOD    SOD22368   5.705   4.909   5.598 -0.4799  0.5144  0.1167
  241SOD    SOD22369   0.716   1.975  16.930  0.1870  0.0731 -0.0206
  242SOD    SOD22370   3.643   0.235   4.949 -0.4274 -0.0950 -0.6517
  243SOD    SOD22371   3.554   1.988  16.030  0.1769  0.1130 -0.9928
  244SOD    SOD22372   2.491   4.584   5.546 -0.4425 -0.0671  0.5792
  245SOD    SOD22373   4.301   3.080  15.767  0.0382 -0.0683  0.5486
  246SOD    SOD22374   5.207   0.443  13.396  0.3155  0.2093 -0.3124
  247SOD    SOD22375   5.504   1.907   6.018 -0.2102  0.2621  0.5266
  248SOD    SOD22376   3.339   2.521  11.920 -0.5933  0.6911  0.1339
  249SOD    SOD22377   2.153   5.956   4.219  0.3349  0.1565  0.1899
  250SOD    SOD22378   6.837   1.684   1.776 -0.3767 -0.1098  0.3969
  251SOD    SOD22379   4.029   3.736   2.966 -0.1151 -0.7942  0.0884
  252SOD    SOD22380   2.068   6.189  11.296  0.5476 -0.4296  0.0232
  253SOD    SOD22381   4.908   1.212  14.067  0.1171  0.3651  0.0513
  254SOD    SOD22382   0.802   0.106  14.528  0.1469 -0.3520 -0.5207
  255SOD    SOD22383   2.378   2.783  16.300  0.6485 -0.0434  0.2166
  256SOD    SOD22384   2.329   5.095   6.255  0.0998 -0.2893 -0.0162
  257SOD    SOD22385   2.432   5.354   0.824  0.4253 -0.0864 -0.1614
  258SOD    SOD22386   1.919   4.432   0.384 -0.0105  0.0882 -0.4987
  259SOD    SOD22387   6.226   1.431  14.927  0.3257  0.2368 -0.3360
  260SOD    SOD22388   0.725   5.680   2.891  0.4209 -0.1754 -0.8320
  261SOD    SOD22389   3.630   4.186   4.076 -0.2263 -0.9656 -0.4848
  262SOD    SOD22390   3.842   2.917   5.743  0.6496 -0.0562  0.3624
  263SOD    SOD22391   2.311   2.208  15.289 -0.2447  0.1240 -0.0238
  264SOD    SOD22392   1.316   0.502  11.946  0.0206 -0.0019 -0.1297
  265SOD    SOD22393   2.335   2.838   5.531 -0.1522  0.0793  0.0069
  266CLA    CLA22394   5.404   0.388  13.210 -0.2701  0.1156  0.0180
  267CLA    CLA22395   3.678   5.726  16.493  0.2802 -0.1142  0.0492
  268CLA    CLA22396   0.281   3.447  11.646 -0.0596  0.0798 -0.1064
  269CLA    CLA22397   6.804   2.301  16.141  0.1201 -0.0001  0.1528
  270CLA    CLA22398   3.040   3.509   3.663 -0.1513 -0.3348 -0.1232
  271CLA    CLA22399   0.816   1.129  15.787 -0.0406  0.1271  0.0820
  272CLA    CLA22400   0.775   0.013   4.036 -0.0132  0.2829  0.1853
  273CLA    CLA22401   1.766   0.549   0.191  0.0113  0.0020 -0.1379
  274CLA    CLA22402   6.639   2.936  15.141  0.2243 -0.1019 -0.0565
  275CLA    CLA22403   1.777   1.388   0.830  0.2173 -0.0424 -0.3334
  276CLA    CLA22404   5.559   3.762  13.791 -0.1687  0.2047 -0.2028
  277CLA    CLA22405   1.193   5.631   2.763  0.1022 -0.3521 -0.0216
  278CLA    CLA22406   1.382   1.118   1.678  0.6148  0.1259 -0.5199
  279CLA    CLA22407   2.138   4.018  15.946  0.4029 -0.1855 -0.1296
  280CLA    CLA22408   0.163   0.041  15.543  0.3211  0.3291 -0.1987
  281CLA    CLA22409   1.754   0.136  11.037  0.0284  0.1201 -0.2893
  282CLA    CLA22410   1.373   2.963  16.832 -0.1499  0.3299  0.3642
  283CLA    CLA22411   1.326   5.968   1.806 -0.2886  0.2630 -0.3549
  284CLA    CLA22412   6.644   2.309   2.819 -0.5194 -0.0024  0.3159
  285CLA    CLA22413   3.573   4.309   4.371 -0.3126 -0.2050 -0.1125
  286CLA    CLA22414   4.833   4.386  16.047 -0.3496  0.1539 -0.3324
  287CLA    CLA22415   2.613   2.415   5.376 -0.2648 -0.1732  0.1755
  288CLA    CLA22416   5.058   6.435  12.327 -0.3951 -0.5103 -0.1700
  289CLA    CLA22417   6.312   4.525   3.588  0.0046 -0.0047 -0.0062
  290CLA    CLA22418   2.671   1.742   4.630 -0.2610  0.4916 -0.1316
  291CLA    CLA22419   6.458   1.427   5.666  0.0794 -0.4640 -0.1141
  292CLA    CLA22420   2.437   6.317  12.174 -0.2477  0.0653 -0.1367
  293CLA    CLA22421   1.659   0.334  11.643 -0.2374  0.4038 -0.0960
  294CLA    CLA22422   1.652   1.097  13.838 -0.0606 -0.2914 -0.1011
  295CLA    CLA22423   6.501   2.146   3.223 -0.2092  0.0990  0.0033
  296CLA    CLA22424   0.041   0.750  11.823  0.0193 -0.4574 -0.1490
  297CLA    CLA22425   6.234   5.869   5.857 -0.4215  0.0498  0.3318
  298CLA    CLA22426   3.489   3.784  11.625  0.0526  0.2397 -0.0471
  299CLA    CLA22427   5.946   1.166   0.541  0.1222 -0.0187  0.3226
  300CLA    CLA22428   4.352   0.700  12.457 -0.1838  0.2014  0.0945
  301CLA    CLA22429   2.197   2.475   0.816 -0.0860  0.4271 -0.1663
  302CLA    CLA22430   6.645   3.846  16.947  0.3518  0.4466  0.1381
  303CLA    CLA22431   0.262   4.225  13.377  0.2347 -0.0135 -0.1945
  304CLA    CLA22432   3.452   5.282  14.721 -0.0896 -0.3146  0.2252
  305CLA    CLA22433   6.075   4.908  16.492  0.1856  0.0521  0.0335
  306CLA    CLA22434   3.162   2.980   0.579 -0.0187  0.0367 -0.0578
  307CLA    CLA22435   2.200   5.375  16.068 -0.0256 -0.0530  0.0486
  308CLA    CLA22436   4.416   2.836  15.306 -0.1656 -0.0081 -0.0668
  309CLA    CLA22437   4.462   4.897  12.050  0.0640 -0.0870  0.0053
  310CLA    CLA22438   2.392   4.535   3.277  0.2459 -0.2677  0.1336
  311CLA    CLA22439   5.588   4.152  15.140 -0.4438  0.0614  0.0128
  312CLA    CLA22440   0.721   3.500   4.416 -0.2447 -0.0032  0.0598
  313CLA    CLA22441   6.584   0.417  16.700  0.0792 -0.0424 -0.0021
  314CLA    CLA22442   0.572   0.500   5.887  0.2282  0.6389  0.2557
  315CLA    CLA22443   1.732   2.967   0.626  0.4918  0.3720 -0.1021
  316CLA    CLA22444   3.586   6.192   4.420 -0.3403 -0.2235  0.2348
  317CLA    CLA22445   0.927   2.840  16.652  0.4182  0.1847  0.4757
  318CLA    CLA22446   3.857   4.312  17.044 -0.1541 -0.1017 -0.3940
  319TIP3   OH222447   4.116   2.566   5.268  0.5528 -0.3360 -0.7875
  319TIP3    H122448   4.186   2.535   5.325  0.1271 -1.5051 -0.8513
  319TIP3    H222449   4.157   2.632   5.212  1.5494 -0.8392 -0.6756
  320TIP3   OH222450   1.118   1.438  10.595  0.4631 -0.0231 -0.0083
  320TIP3    H122451   1.037   1.489  10.601 -0.6393 -1.7305  0.1633
  320TIP3    H222452   1.105   1.381  10.520  1.1400 -0.9421  0.5525
  321TIP3   OH222453   5.079   2.387  15.250 -0.6570 -0.2779 -0.0640
  321TIP3    H122454   5.024   2.321  15.292 -0.6612 -0.3926 -0.2452
  321TIP3    H222455   5.029   2.468  15.257 -0.8621 -0.3858 -0.2460
  322TIP3   OH222456   3.386   4.484   5.228 -0.3321 -0.3049 -0.6230
  322TIP3    H122457   3.422   4.406   5.185  0.9225 -0.3241  0.4006
  322TIP3    H222458   3.354   4.452   5.312 -1.8326 -0.0884 -1.0901
  323TIP3   OH222459   0.987   2.371  16.288 -0.7593 -0.7137 -0.0377
  323TIP3    H122460   0.914   2.353  16.347  0.1250 -3.1918  0.4138
  323TIP3    H222461   1.037   2.440  16.333 -3.1154  1.5860 -0.7280
  324TIP3   OH222462   5.129   6.709  11.039 -0.0737 -0.4219 -0.5268
  324TIP3    H122463   5.094   6.679  11.123  0.6545  0.0549 -0.0362
  324TIP3    H222464   5.079   6.789  11.019 -0.3772 -0.6401 -0.6449
  325TIP3   OH222465   5.729   2.320  14.271 -0.4834  0.7624  0.4085
  325TIP3    H122466   5.753   2.362  14.187  1.3304  0.3880  0.6895
  325TIP3    H222467   5.677   2.386  14.316 -1.0124  1.1892 -0.7790
  326TIP3   OH222468   2.307   3.625   4.548 -1.0797  0.0477  0.2345
  326TIP3    H122469   2.355   3.640   4.630 -0.7321 -1.8636  0.4086
  326TIP3    H222470   2.239   3.562   4.570 -2.6481  1.4117 -0.4155
  327TIP3   OH222471   6.748   1.381  16.770  0.0405  0.8584 -0.0574
  327TIP3    H122472   6.783   1.417  16.852  0.8354  0.9616 -0.4397
  327TIP3    H222473   6.803   1.305  16.751 -1.3524 -0.3358  0.5065
  328TIP3   OH222474   2.906   3.543   1.937 -0.0294  0.2273 -0.2439
  328TIP3    H122475   2.953   3.615   1.980 -0.0247  0.0789  0.0023
  328TIP3    H222476   2.888   3.575   1.849  1.6522 -0.1811 -0.7670
  329TIP3   OH222477   0.741   5.489   1.505  0.1805  0.4470  0.1503
  329TIP3    H122478   0.740   5.580   1.476  1.3904  0.3447 -0.2242
  329TIP3    H222479   0.728   5.494   1.600 -0.0567  0.9780  0.0931
  330TIP3   OH222480   2.569   5.286   0.076 -0.0443  0.1188  0.2347
  330TIP3    H122481   2.548   5.196   0.097  1.2674  0.1436  1.8576
  330TIP3    H222482   2.593   5.284  -0.017  0.0387 -1.2206  0.2671
  331TIP3   OH222483   1.025   3.732  10.476  0.6266  0.1907  0.0289
  331TIP3    H122484   1.046   3.713  10.385  0.6406  1.5099 -0.2687
  331TIP3    H222485   1.052   3.654  10.524 -0.0236 -0.8007 -1.1703
  332TIP3   OH222486   1.129   0.647   0.074 -0.1222 -0.2051  0.0610
  332TIP3    H122487   1.109   0.556   0.094 -2.2520  0.1542 -0.1092
  332TIP3    H222488   1.150   0.687   0.158 -0.4319 -0.5975  0.3267
  333TIP3   OH222489   1.147   1.546   4.746  0.4041 -0.2940 -0.5074
  333TIP3    H122490   1.155   1.461   4.789  0.5801 -0.0521 -0.0386
  333TIP3    H222491   1.058   1.574   4.764  0.4644 -0.2122 -0.3275
  334TIP3   OH222492   0.210   1.091   4.621 -0.6388  0.2763  0.0649
  334TIP3    H122493   0.182   1.098   4.529  0.4901  0.0228 -0.3162
  334TIP3    H222494   0.197   1.178   4.657 -2.7612 -0.0238  0.1850
  335TIP3   OH222495   4.612   2.729   1.963 -0.6482 -0.0641 -0.0301
  335TIP3    H122496   4.536   2.743   2.019  0.2489 -0.0259  1.2329
  335TIP3    H222497   4.582   2.668   1.896 -2.7443  2.5132 -1.6578
  336TIP3   OH222498   3.924   2.993  14.726 -0.0708  0.7177  0.1224
  336TIP3    H122499   3.987   3.065  14.725  1.0559 -0.2208  0.8204
  336TIP3    H222500   3.972   2.918  14.691 -1.2332  0.2922 -0.6227
  337TIP3   OH222501   0.609   0.395  12.695 -0.7977  0.0263 -0.2477
  337TIP3    H122502   0.668   0.468  12.713 -0.3227 -0.3467 -0.2617
  337TIP3    H222503   0.521   0.434  12.693 -0.6165  0.4813  0.4217
  338TIP3   OH222504   1.616   1.564   5.342 -0.3499  0.1853  0.3186
  338TIP3    H122505   1.647   1.611   5.420  1.8473 -2.1965  1.0013
  338TIP3    H222506   1.521   1.569   5.347 -0.2262  2.3832  1.6555
  339TIP3   OH222507   0.304   2.621  15.826  0.0516  0.2864  0.2698
  339TIP3    H122508   0.240   2.570  15.876  0.0839  0.2102  0.2331
  339TIP3    H222509   0.387   2.604  15.869 -0.2259  1.9646  1.5742
  340TIP3   OH222510   5.023   6.374  11.992  0.3112 -0.2184  0.4226
  340TIP3    H122511   5.084   6.303  11.973 -0.9269 -1.0259 -0.6593
  340TIP3    H222512   5.037   6.394  12.085  0.4374 -2.1270  0.8402
  341TIP3   OH222513   2.118   2.532   3.806  0.1684  0.2220 -0.0996
  341TIP3    H122514   2.164   2.609   3.840 -0.5329  0.7521 -0.3171
  341TIP3    H222515   2.053   2.511   3.873 -1.3950  1.4265 -1.1319
  342TIP3   OH222516   5.423   0.663   6.795  0.1920 -0.0402 -0.2915
  342TIP3    H122517   5.403   0.570   6.801  0.3121 -0.0388  0.1712
  342TIP3    H222518   5.486   0.669   6.723  1.1831 -0.4896  0.5121
  343TIP3   OH222519   2.451   6.813  16.366 -0.1583  0.3113 -0.4682
  343TIP3    H122520   2.441   6.815  16.271  1.2553  0.1982 -0.6433
  343TIP3    H222521   2.375   6.762  16.397 -1.2075  1.2555 -1.4170
  344TIP3   OH222522   4.162   5.407   6.521 -0.3225  0.3499 -0.2000
  344TIP3    H122523   4.192   5.465   6.590  0.0974  0.4694 -0.4752
  344TIP3    H222524   4.089   5.454   6.480 -1.8561 -0.5528  1.3707
  345TIP3   OH222525   3.779   0.515   1.307  0.1445 -0.0549 -1.0394
  345TIP3    H122526   3.736   0.516   1.393  0.0244 -1.6080 -1.0527
  345TIP3    H222527   3.855   0.571   1.318  0.2669 -0.4233  0.1685
  346TIP3   OH222528   4.468   5.028  11.500  1.1102  0.0788  0.4583
  346TIP3    H122529   4.517   4.946  11.503  0.2781 -0.8229 -3.8217
  346TIP3    H222530   4.474   5.056  11.408 -2.2627  2.5240  0.7967
  347TIP3   OH222531   2.966   1.419   3.714 -0.2904 -0.6339 -0.2821
  347TIP3    H122532   3.045   1.470   3.695 -0.5912 -0.7364 -1.8984
  347TIP3    H222533   2.896   1.485   3.719 -0.1828 -0.5795  0.8204
  348TIP3   OH222534   3.785   2.443   1.099 -0.2599  0.4682  0.1673
  348TIP3    H122535   3.838   2.482   1.030 -0.2014  1.3337  0.6821
  348TIP3    H222536   3.848   2.426   1.170 -0.2520 -0.7505 -0.1200
  349TIP3   OH222537   4.997   4.567   5.930  0.1038  0.6761  0.4559
  349TIP3    H122538   4.991   4.480   5.971 -2.5206  1.3519  1.7040
  349TIP3    H222539   5.025   4.625   6.001  1.2614  1.0019 -0.2294
  350TIP3   OH222540   6.109   6.394   2.352  0.4080  0.0353  0.5098
  350TIP3    H122541   6.046   6.329   2.321 -0.3207  0.4014  1.1870
  350TIP3    H222542   6.136   6.363   2.438 -0.0272  0.6695  0.8848
  351TIP3   OH222543   2.836   3.458  11.573 -0.6234  0.3191  0.5087
  351TIP3    H122544   2.897   3.438  11.644 -1.0728 -0.1557  0.7623
  351TIP3    H222545   2.785   3.378  11.561 -0.8086  0.5214 -0.0923
  352TIP3   OH222546   6.753   5.126  13.859  0.1584  0.6354  0.0348
  352TIP3    H122547   6.663   5.156  13.849 -0.5681 -1.1219  0.8912
  352TIP3    H222548   6.773   5.081  13.777  0.6095  1.8462 -0.5322
  353TIP3   OH222549   4.530   4.786   0.888  0.4341  0.0944 -0.7316
  353TIP3    H122550   4.593   4.829   0.830  0.8293  0.5520  0.0204
  353TIP3    H222551   4.570   4.700   0.906 -0.9499 -1.2224 -3.2621
  354TIP3   OH222552   4.040   3.475   5.589  0.3009 -0.0913 -0.4318
  354TIP3    H122553   3.992   3.417   5.530 -0.1062 -0.2907  0.0880
  354TIP3    H222554   4.012   3.563   5.563  0.9593 -0.1099 -1.2536
  355TIP3   OH222555   2.661   0.113  17.096 -0.2012 -0.0600  0.5275
  355TIP3    H122556   2.712   0.060  17.157 -1.4266  0.8312  2.4197
  355TIP3    H222557   2.649   0.058  17.019  1.3006 -1.2642  1.1053
  356TIP3   OH222558   3.484   2.721   3.197 -0.3384 -0.3906 -0.2424
  356TIP3    H122559   3.411   2.781   3.208 -0.1134 -0.1254 -0.1627
  356TIP3    H222560   3.465   2.673   3.116 -0.4403 -0.0952 -0.3936
  357TIP3   OH222561   2.968   2.616  16.543  0.1188  0.0888  0.0942
  357TIP3    H122562   2.887   2.653  16.576  0.4795  1.4427 -0.4583
  357TIP3    H222563   3.036   2.679  16.569  0.8338 -0.4295 -0.4467
  358TIP3   OH222564   0.472   5.640  14.928 -0.6298  0.0875 -0.2080
  358TIP3    H122565   0.467   5.577  14.857  0.1622  0.1821 -0.3546
  358TIP3    H222566   0.381   5.667  14.943 -1.5073 -3.4092  2.0002
  359TIP3   OH222567   3.682   5.574   0.041 -0.2559 -0.5441  0.4162
  359TIP3    H122568   3.726   5.489   0.045 -1.5506 -1.4196 -1.9641
  359TIP3    H222569   3.591   5.555   0.065  0.0251  0.7754  2.7980
  360TIP3   OH222570   5.203   5.505   4.910 -0.0315 -0.4021 -0.0594
  360TIP3    H122571   5.217   5.504   4.815  0.9742 -0.4255  0.0838
  360TIP3    H222572   5.211   5.597   4.935  2.3549 -0.6790  0.3632
  361TIP3   OH222573   5.975   3.674  15.927  0.3622  0.1885  0.0072
  361TIP3    H122574   5.985   3.589  15.883 -2.1653 -1.3480  2.1164
  361TIP3    H222575   6.062   3.693  15.961  1.0804 -1.3527 -0.8245
  362TIP3   OH222576   2.537   5.483  14.971 -0.2403  0.5840  0.0677
  362TIP3    H122577   2.585   5.475  14.889  0.3990  0.3536  0.4564
  362TIP3    H222578   2.552   5.399  15.015  1.2870  1.5169  1.4055
  363TIP3   OH222579   0.260   6.612  14.179 -0.7258  0.0810 -0.7725
  363TIP3    H122580   0.234   6.661  14.101 -1.5828  0.4484 -0.2702
  363TIP3    H222581   0.274   6.522  14.147  0.5819  0.5771 -1.6439
  364TIP3   OH222582   4.187   5.671  14.739  0.0492 -0.2488 -0.0644
  364TIP3    H122583   4.261   5.650  14.796 -0.8519  0.0320  1.2714
  364TIP3    H222584   4.140   5.588  14.730 -0.4780 -0.0471  0.6543
  365TIP3   OH222585   6.053   3.821   1.292 -0.0971 -0.0947 -0.1251
  365TIP3    H122586   6.104   3.902   1.298  0.0871 -0.2408  0.3904
  365TIP3    H222587   5.966   3.849   1.266 -0.4507  0.4515  1.5000
  366TIP3   OH222588   0.960   2.388   3.528 -0.2651 -0.0085  0.1137
  366TIP3    H122589   0.898   2.316   3.537 -1.4033  0.7654 -1.1689
  366TIP3    H222590   0.919   2.447   3.465  1.4477  0.9046 -0.2029
  367TIP3   OH222591   5.164   2.772   4.556 -0.4132 -0.2484  0.0492
  367TIP3    H122592   5.188   2.681   4.540 -0.5245 -0.4166  0.8313
  367TIP3    H222593   5.146   2.807   4.468 -1.5746 -1.3104 -0.1640
  368TIP3   OH222594   4.498   6.146   3.482  0.3034  0.5770 -0.0444
  368TIP3    H122595   4.442   6.222   3.468 -1.7651 -0.8506 -0.0088
  368TIP3    H222596   4.504   6.104   3.396 -0.4195 -0.3941  0.3616
  369TIP3   OH222597   2.096   4.979  15.174 -0.5180 -0.1003 -0.2827
  369TIP3    H122598   2.122   4.898  15.130 -2.4564 -0.7255 -0.3546
  369TIP3    H222599   2.047   4.949  15.251  0.2883  1.0086  0.6921
  370TIP3   OH222600   0.985   1.799  15.241 -0.2106 -0.3426 -0.7077
  370TIP3    H122601   0.996   1.768  15.151  0.5020  0.7017 -1.0008
  370TIP3    H222602   1.016   1.726  15.295  0.7028 -0.4504 -1.3535
  371TIP3   OH222603   6.744   5.080  15.113  0.3366 -0.3461 -0.1723
  371TIP3    H122604   6.672   5.126  15.155  0.6595  0.2859 -0.2956
  371TIP3    H222605   6.702   5.010  15.063 -0.0899 -0.7902  0.7759
  372TIP3   OH222606   5.937   2.435  11.077  0.5785  0.1957  0.6146
  372TIP3    H122607   5.896   2.419  10.992  2.3670 -0.0131 -0.2644
  372TIP3    H222608   5.908   2.522  11.102  1.1586  0.8794 -0.9465
  373TIP3   OH222609   2.019   2.437   2.163  0.3903  0.3972 -0.2499
  373TIP3    H122610   1.941   2.382   2.174  0.6090  0.3144  0.9956
  373TIP3    H222611   2.090   2.375   2.150  0.2781  0.4702 -1.2838
  374TIP3   OH222612   5.574   6.701  15.299 -0.1279 -0.0847 -0.5512
  374TIP3    H122613   5.515   6.678  15.227 -0.3848 -1.1928 -0.0007
  374TIP3    H222614   5.659   6.712  15.256  0.1846 -2.7654 -0.8466
  375TIP3   OH222615   2.074   6.697   2.997  0.4947  0.2388 -0.1292
  375TIP3    H122616   2.080   6.647   2.916 -2.1759 -1.0751  0.3507
  375TIP3    H222617   2.131   6.651   3.058  1.0281  0.0771 -0.7428
  376TIP3   OH222618   6.535   2.769   4.067 -0.1616  0.0702 -0.3769
  376TIP3    H122619   6.497   2.825   4.000 -0.0192  0.7380  0.0869
  376TIP3    H222620   6.624   2.802   4.078  0.9329 -2.0479 -2.1078
  377TIP3   OH222621   0.619   0.806   3.175 -0.1233  0.1242 -0.2274
  377TIP3    H122622   0.647   0.738   3.236 -1.4168  0.6506  1.0256
  377TIP3    H222623   0.541   0.844   3.216  0.2326  1.9875 -1.1541
  378TIP3   OH222624   5.913   1.011   1.452 -0.4916  0.0062 -0.3132
  378TIP3    H122625   5.984   1.005   1.516  1.3787 -1.0622 -2.3384
  378TIP3    H222626   5.892   0.920   1.431  0.1401  0.2674 -2.3756
  379TIP3   OH222627   1.594   5.472   5.028 -0.5360  0.3146 -0.9141
  379TIP3    H122628   1.590   5.555   5.075 -0.4525  0.3829 -1.0287
  379TIP3    H222629   1.687   5.449   5.025 -0.5466  0.2771 -0.9868
  380TIP3   OH222630   0.257   6.373   1.293  0.7070  0.4241 -0.2852
  380TIP3    H122631   0.273   6.374   1.387 -0.0858  0.5288 -0.1454
  380TIP3    H222632   0.271   6.281   1.268 -0.0039  0.2008  0.1059
  381TIP3   OH222633   1.661   4.132  14.177  0.5590 -0.4839  0.0636
  381TIP3    H122634   1.738   4.087  14.212  0.9433 -0.6288 -0.9413
  381TIP3    H222635   1.645   4.090  14.092  0.8998  1.2237 -0.8860
  382TIP3   OH222636   1.481   5.558  13.245 -0.6217  0.3928  0.3500
  382TIP3    H122637   1.576   5.554  13.245 -0.6199 -0.4000 -0.9322
  382TIP3    H222638   1.459   5.637  13.294  0.7724  1.7550 -1.1263
  383TIP3   OH222639   2.523   4.852  14.034  0.1623  0.0364 -0.1415
  383TIP3    H122640   2.499   4.759  14.030  2.3649 -0.5545 -2.3824
  383TIP3    H222641   2.459   4.891  14.094 -2.3029 -2.4612 -0.9301
  384TIP3   OH222642   0.925   2.502  13.386 -0.5610  0.4627 -0.2910
  384TIP3    H122643   0.876   2.572  13.428 -0.9797  0.4557 -0.7546
  384TIP3    H222644   0.971   2.458  13.458 -1.5577  0.2160  0.2187
  385TIP3   OH222645   5.154   5.117   3.608  0.1861  0.3079  0.1065
  385TIP3    H122646   5.144   5.052   3.677  0.1661  0.2673  0.0656
  385TIP3    H222647   5.182   5.066   3.531 -0.4868  0.2587 -0.1074
  386TIP3   OH222648   5.214   5.099   4.572 -0.6779 -0.8177  0.1864
  386TIP3    H122649   5.248   5.009   4.582 -1.8703 -1.4591 -1.2478
  386TIP3    H222650   5.218   5.116   4.478 -3.4190 -0.5810  0.0487
  387TIP3   OH222651   3.870   5.394  16.555  0.1470 -0.9272 -0.1276
  387TIP3    H122652   3.790   5.394  16.608  1.0808 -0.5321  1.3446
  387TIP3    H222653   3.856   5.463  16.490 -1.2239 -1.7452 -0.7515
  388TIP3   OH222654   3.969   1.930  13.483 -0.2443  0.7067 -0.3077
  388TIP3    H122655   3.875   1.948  13.489 -0.2507  0.1774  2.9997
  388TIP3    H222656   3.976   1.835  13.480  0.1582  0.5598  2.6837
  389TIP3   OH222657   4.905   3.119  13.349 -0.2078  0.9318 -0.0016
  389TIP3    H122658   4.966   3.046  13.342 -1.6530 -0.3900  0.5255
  389TIP3    H222659   4.898   3.154  13.260  0.3428  0.2863 -0.3076
  390TIP3   OH222660   1.532   2.283  15.385 -0.4994 -0.4935  0.5640
  390TIP3    H122661   1.603   2.272  15.448 -1.4495  0.2177  1.8084
  390TIP3    H222662   1.491   2.366  15.408  0.0408  0.5638 -1.9824
  391TIP3   OH222663   4.917   1.021   5.632  0.4929 -0.0988  0.0505
  391TIP3    H122664   4.918   1.099   5.687 -1.2904 -1.0320  1.5574
  391TIP3    H222665   5.008   0.991   5.630  0.6566  0.0910  2.3903
  392TIP3   OH222666   3.226   1.371  14.768 -0.9390  0.0532  0.6970
  392TIP3    H122667   3.246   1.352  14.860 -1.8795  0.9070  1.1006
  392TIP3    H222668   3.307   1.353  14.721 -1.0372 -2.5004  1.3649
  393TIP3   OH222669   5.152   5.986   1.210  0.4245  0.1054 -0.3481
  393TIP3    H122670   5.064   6.019   1.191 -0.0958  0.3552  2.0697
  393TIP3    H222671   5.201   5.998   1.129 -1.6676  0.3078 -1.6396
  394TIP3   OH222672   4.602   6.516  16.158  0.1732  0.3063  0.2989
  394TIP3    H122673   4.618   6.422  16.169  2.2141  0.2242 -2.2378
  394TIP3    H222674   4.535   6.521  16.090  0.1327  0.6944  0.3647
  395TIP3   OH222675   2.695   3.142  12.733 -0.4401 -0.2481 -0.1978
  395TIP3    H122676   2.640   3.137  12.811  1.8398  2.6195  1.8468
  395TIP3    H222677   2.744   3.060  12.733  0.8042  0.3668  2.5832
  396TIP3   OH222678   3.018   3.762  14.691  0.5053 -0.2079  0.4405
  396TIP3    H122679   3.065   3.678  14.691  0.2926 -0.3283 -0.4447
  396TIP3    H222680   2.943   3.748  14.634  0.8535  0.7989 -0.2994
  397TIP3   OH222681   0.556   2.450  11.671  0.2546  0.2020 -0.2892
  397TIP3    H122682   0.559   2.533  11.624  1.4161  0.0020 -0.6008
  397TIP3    H222683   0.552   2.384  11.603 -2.1829 -0.0039 -0.0399
  398TIP3   OH222684   5.711   6.034   5.719 -0.6835 -0.4971  0.6601
  398TIP3    H122685   5.795   6.075   5.740 -1.3459  0.1000  2.3935
  398TIP3    H222686   5.682   6.077   5.639  0.7916 -0.9416 -0.1452
  399TIP3   OH222687   1.022   5.072  11.684  0.0535 -0.3210  0.3236
  399TIP3    H122688   1.083   4.999  11.699  1.9293  0.8639 -1.1638
  399TIP3    H222689   1.070   5.150  11.713 -0.5668  0.7036 -1.2994
  400TIP3   OH222690   4.854   1.632   1.665  0.5784  0.0009  0.0656
  400TIP3    H122691   4.916   1.627   1.592  1.4847  0.4660  0.7661
  400TIP3    H222692   4.881   1.711   1.713 -0.1450 -0.1631  0.7584
  401TIP3   OH222693   5.081   5.635   2.389 -0.0714  0.2006  0.0812
  401TIP3    H122694   5.078   5.611   2.481 -2.3058 -0.9799 -0.2327
  401TIP3    H222695   4.999   5.601   2.352  0.3340  1.4224 -2.1505
  402TIP3   OH222696   4.535   6.302  12.373  0.5079  0.1256  0.0600
  402TIP3    H122697   4.602   6.334  12.313 -1.7193  1.0705 -2.1015
  402TIP3    H222698   4.457   6.353  12.352 -0.7295 -0.3508  3.0034
  403TIP3   OH222699   4.966   6.676   2.431 -0.0039 -0.1440  0.1546
  403TIP3    H122700   4.969   6.740   2.501  1.0683 -1.0376  0.9617
  403TIP3    H222701   5.057   6.649   2.418  0.2984  1.9458 -3.4728
  404TIP3   OH222702   6.102   5.124  15.520 -0.1186 -0.1676  0.2107
  404TIP3    H122703   6.108   5.101  15.613  1.9574  2.2823  0.7969
  404TIP3    H222704   6.113   5.040  15.474 -0.0940 -1.2931  2.1413
  405TIP3   OH222705   1.663   5.885   3.981  0.1429  0.0943  0.1020
  405TIP3    H122706   1.653   5.964   3.928  1.9967 -0.4901 -1.1986
  405TIP3    H222707   1.748   5.850   3.957 -0.6849 -2.4120  0.5081
  406TIP3   OH222708   3.309   1.816   5.108  0.0590  0.0866 -0.5973
  406TIP3    H122709   3.303   1.900   5.062  0.7293  0.8966  0.7549
  406TIP3    H222710   3.235   1.816   5.169  1.3713  0.7743  1.0742
  407TIP3   OH222711   6.315   2.202   0.481 -0.2090 -0.0203 -0.1284
  407TIP3    H122712   6.232   2.248   0.492  0.4430  1.2086 -0.0889
  407TIP3    H222713   6.329   2.198   0.387  0.8777  2.0944 -0.1102
  408TIP3   OH222714   0.423   0.084   0.776 -0.3670 -0.0300 -0.0731
  408TIP3    H122715   0.437   0.002   0.824 -0.3601 -0.2402 -0.4296
  408TIP3    H222716   0.502   0.135   0.792 -0.5510  0.0777  0.4931
  409TIP3   OH222717   3.026   6.815  14.172  0.2627 -0.4030 -0.2152
  409TIP3    H122718   3.103   6.850  14.127  0.9026 -0.9247  0.4421
  409TIP3    H222719   3.042   6.721  14.176 -0.7923 -0.6252 -0.7595
  410TIP3   OH222720   6.075   2.133  15.107 -0.7230  0.0491  0.0251
  410TIP3    H122721   6.138   2.135  15.179  0.5604  1.5300 -1.0614
  410TIP3    H222722   6.015   2.205  15.125  0.2990  1.1922 -0.9046
  411TIP3   OH222723   5.855   2.556   3.815  0.7897  0.7497 -0.1088
  411TIP3    H122724   5.895   2.489   3.872 -2.4217  0.6292  2.2743
  411TIP3    H222725   5.896   2.638   3.842  0.7587  0.4166  1.0134
  412TIP3   OH222726   0.515   0.882   4.031 -0.8506  0.5152 -0.0766
  412TIP3    H122727   0.508   0.808   4.091  1.2962  0.7410  0.5226
  412TIP3    H222728   0.452   0.946   4.064 -1.7442 -0.4741  0.2002
  413TIP3   OH222729   2.308   1.928  16.130  0.0023  0.3392  0.5815
  413TIP3    H122730   2.251   1.879  16.188 -1.2279  0.3547 -0.5753
  413TIP3    H222731   2.344   1.863  16.070  0.5737  0.4517  0.7947
  414TIP3   OH222732   6.797   6.194  13.791  0.1444 -0.3323 -0.7647
  414TIP3    H122733   6.848   6.240  13.724  2.0422  1.9540  2.0450
  414TIP3    H222734   6.851   6.119  13.814  1.0681  0.6352  0.3502
  415TIP3   OH222735   4.117   4.260  16.848 -0.0713 -0.5560 -0.4460
  415TIP3    H122736   4.134   4.166  16.857  0.8051 -0.3946 -0.3575
  415TIP3    H222737   4.064   4.281  16.925  0.8353 -0.7302  0.2525
  416TIP3   OH222738   6.249   3.582   0.993  0.3929  0.3802  0.0399
  416TIP3    H122739   6.174   3.524   1.007 -0.5790  1.8066  1.1918
  416TIP3    H222740   6.285   3.556   0.908 -0.2136 -1.6119  0.3391
  417TIP3   OH222741   6.450   5.372  10.438 -0.2772  0.4705  0.1070
  417TIP3    H122742   6.400   5.412  10.509 -0.8614  0.8469 -0.5138
  417TIP3    H222743   6.507   5.442  10.406  0.8421 -0.0129  0.9566
  418TIP3   OH222744   0.300   1.898  15.139 -0.2026 -0.5443  0.4903
  418TIP3    H122745   0.303   1.807  15.169  1.2119 -1.0967 -1.2089
  418TIP3    H222746   0.325   1.895  15.047  0.9471  1.6887  0.6558
  419TIP3   OH222747   4.306   3.856  15.670 -0.2004  0.3586 -0.0380
  419TIP3    H122748   4.363   3.808  15.609 -1.5787  0.1074 -1.1649
  419TIP3    H222749   4.349   3.845  15.756  1.1869 -0.2109 -0.7674
  420TIP3   OH222750   2.391   3.224  16.840 -0.3317  0.2442 -0.2075
  420TIP3    H122751   2.421   3.194  16.754 -0.4873  0.1501 -0.2304
  420TIP3    H222752   2.338   3.301  16.822  0.9324  1.1675 -0.0711
  421TIP3   OH222753   6.724   0.660   2.701  0.1517  0.3747  0.6095
  421TIP3    H122754   6.746   0.647   2.794 -1.2965  3.5456  1.5251
  421TIP3    H222755   6.629   0.661   2.699  0.1550 -0.4832 -1.0910
  422TIP3   OH222756   2.203   0.878   0.112 -0.2780 -0.1962 -0.3932
  422TIP3    H122757   2.251   0.810   0.064  2.9985  1.2045  0.6338
  422TIP3    H222758   2.124   0.833   0.144  1.1956 -3.2297 -0.6338
  423TIP3   OH222759   1.797   4.984   2.861  0.9707 -0.2737 -0.1222
  423TIP3    H122760   1.723   4.949   2.812  1.7439 -1.7370 -0.3057
  423TIP3    H222761   1.784   5.079   2.860  0.1275 -0.3676 -1.7965
  424TIP3   OH222762   0.916   4.993  12.023 -0.2075  0.5420 -0.3704
  424TIP3    H122763   0.981   5.052  12.061  0.5905 -0.2196 -0.4931
  424TIP3    H222764   0.880   5.040  11.948 -3.0891  2.8053  2.2321
  425TIP3   OH222765   2.105   3.602   1.070  0.7137 -0.4595  0.5550
  425TIP3    H122766   2.180   3.547   1.091  0.1559 -1.9522 -1.1222
  425TIP3    H222767   2.108   3.612   0.974 -1.9644 -1.7697  0.2371
  426TIP3   OH222768   2.705   1.003  17.057  0.0121 -0.1365  0.1398
  426TIP3    H122769   2.743   1.074  17.005  0.0599 -0.2553  0.0151
  426TIP3    H222770   2.700   0.929  16.998  1.1210 -0.6107  0.6043
  427TIP3   OH222771   3.902   2.407   5.881  0.1346 -0.1792 -0.0560
  427TIP3    H122772   3.973   2.362   5.927  0.1311  1.0168  1.1927
  427TIP3    H222773   3.828   2.401   5.941  0.0124  1.0781 -0.0506
  428TIP3   OH222774   4.570   6.254  11.819  0.4726  0.3389 -0.1969
  428TIP3    H122775   4.602   6.235  11.731 -0.0587 -1.0684 -0.1111
  428TIP3    H222776   4.619   6.195  11.876  0.3548  0.7874  0.3849
  429TIP3   OH222777   3.474   6.262  13.567 -0.3929 -0.3520  0.2082
  429TIP3    H122778   3.464   6.228  13.478  3.0479 -1.0541 -0.0549
  429TIP3    H222779   3.435   6.194  13.623 -1.3516 -0.5539 -0.6716
  430TIP3   OH222780   0.191   0.601  16.349  0.1242  0.4674  0.4065
  430TIP3    H122781   0.194   0.506  16.339  0.7076  0.4490  0.7122
  430TIP3    H222782   0.155   0.615  16.436 -0.8104  0.5516  0.0236
  431TIP3   OH222783   4.802   0.491   0.446 -0.4388 -0.1657 -0.0464
  431TIP3    H122784   4.880   0.437   0.435 -0.1788  0.4839 -1.6829
  431TIP3    H222785   4.748   0.471   0.370 -1.1866  0.5186  0.2866
  432TIP3   OH222786   6.237   5.242   4.751  0.2513 -0.0834  0.0084
  432TIP3    H122787   6.143   5.264   4.753  0.6238  1.7608 -0.6278
  432TIP3    H222788   6.274   5.293   4.823  0.6418 -1.6366  0.9423
  433TIP3   OH222789   5.473   6.674  14.362 -0.1023 -0.1907 -0.4695
  433TIP3    H122790   5.412   6.730  14.314  1.6793  2.4344  0.1290
  433TIP3    H222791   5.528   6.635  14.293 -0.6825 -0.3728 -0.8351
  434TIP3   OH222792   6.600   1.169  15.073 -0.4708 -0.3942 -0.1127
  434TIP3    H122793   6.609   1.215  15.157 -0.0371  0.4796 -0.6174
  434TIP3    H222794   6.648   1.224  15.011 -0.8203 -1.0094 -0.9415
  435TIP3   OH222795   3.026   0.308  14.992  0.1943  0.2021 -0.1357
  435TIP3    H122796   3.112   0.275  15.019  0.0874  1.8932  2.6280
  435TIP3    H222797   2.975   0.229  14.973  2.3018 -0.8472 -1.8563
  436TIP3   OH222798   1.761   1.836   0.791  0.2630  0.1752 -0.1705
  436TIP3    H122799   1.849   1.840   0.753  0.7100  0.3817  0.8432
  436TIP3    H222800   1.725   1.924   0.779  1.0479  0.7346  1.3225
  437TIP3   OH222801   3.761   6.324   6.125  0.6114 -0.2105 -1.0373
  437TIP3    H122802   3.847   6.308   6.087  0.5719  0.5753 -1.4797
  437TIP3    H222803   3.778   6.342   6.218  0.8729 -0.4591 -1.0356
  438TIP3   OH222804   2.821   0.492   3.592  0.0354  0.1157  0.2253
  438TIP3    H122805   2.737   0.538   3.586 -0.4802 -0.7714  0.4097
  438TIP3    H222806   2.810   0.415   3.536  0.5390 -0.2848  0.6666
  439TIP3   OH222807   0.113   3.446  16.539 -0.0859  0.1879  0.2384
  439TIP3    H122808   0.089   3.477  16.451 -0.5860  0.0297  0.3118
  439TIP3    H222809   0.108   3.524  16.594 -2.3105 -0.1371  0.6189
  440TIP3   OH222810   3.083   6.557  14.045 -0.2487  0.9999 -0.4779
  440TIP3    H122811   3.178   6.559  14.039 -0.0524 -1.6572  0.6916
  440TIP3    H222812   3.054   6.560  13.953  1.0204  0.3387 -0.9250
  441TIP3   OH222813   1.307   6.447  15.345 -0.5895 -0.6838 -0.1735
  441TIP3    H122814   1.284   6.461  15.253 -0.2861 -1.2251 -0.3428
  441TIP3    H222815   1.388   6.396  15.341 -0.2110 -0.1415  0.3994
  442TIP3   OH222816   1.770   1.051   2.873  0.2777  0.0970 -0.9698
  442TIP3    H122817   1.754   0.972   2.821  0.2064 -1.0950  0.7873
  442TIP3    H222818   1.782   1.019   2.963  2.9273  1.8080 -0.5805
  443TIP3   OH222819   2.511   4.391   1.153 -0.1706  0.0343  0.2884
  443TIP3    H122820   2.502   4.422   1.243 -1.3917 -1.1235  0.5818
  443TIP3    H222821   2.604   4.404   1.133 -0.0123  0.9080  1.4690
  444TIP3   OH222822   1.996   0.893   5.075  0.0250 -0.6407  0.5435
  444TIP3    H122823   1.960   0.904   5.163 -1.1125 -0.9990  0.1423
  444TIP3    H222824   2.010   0.799   5.066  0.6717 -0.5483  0.5382
  445TIP3   OH222825   1.577   2.129  13.884 -0.1913 -0.1265 -0.9905
  445TIP3    H122826   1.647   2.076  13.844  0.2185 -0.4895  0.1644
  445TIP3    H222827   1.515   2.064  13.918  0.6431  0.0425  1.0327
  446TIP3   OH222828   5.091   3.383   5.197 -0.0657  0.1447 -0.2672
  446TIP3    H122829   5.042   3.459   5.167 -0.5743 -0.7478 -1.8085
  446TIP3    H222830   5.131   3.348   5.118 -1.7255 -2.5052 -0.0504
  447TIP3   OH222831   2.140   5.335   4.854 -0.3392  0.0888 -0.1924
  447TIP3    H122832   2.169   5.375   4.936 -0.7147  0.7610 -0.3858
  447TIP3    H222833   2.217   5.286   4.823  0.1459  0.7013  0.0205
  448TIP3   OH222834   0.094   2.787   4.500  0.0840  0.2710  0.0956
  448TIP3    H122835   0.145   2.847   4.446  1.1296 -0.5162  0.1697
  448TIP3    H222836   0.036   2.844   4.551  1.7777  1.3298  0.9538
  449TIP3   OH222837   4.087   6.711  15.414 -0.1595  0.2373 -0.0374
  449TIP3    H122838   4.103   6.764  15.492 -1.0628 -0.1042  0.3946
  449TIP3    H222839   4.136   6.755  15.344  0.3572  0.7525  0.6418
  450TIP3   OH222840   3.239   1.751  16.895  0.0943 -0.4098 -0.3861
  450TIP3    H122841   3.312   1.696  16.926  0.9013  0.3721 -0.8609
  450TIP3    H222842   3.161   1.700  16.916  0.7967 -1.5194 -0.3585
  451TIP3   OH222843   3.330   0.691  10.838 -0.7422  0.1302  0.2614
  451TIP3    H122844   3.270   0.762  10.817 -1.6493 -0.5282  0.5246
  451TIP3    H222845   3.272   0.617  10.858  0.1753 -0.8569 -0.6439
  452TIP3   OH222846   2.000   4.057  17.040  0.0567 -0.0767 -0.0527
  452TIP3    H122847   2.090   4.066  17.008 -0.8932  2.3485 -2.4529
  452TIP3    H222848   1.960   4.141  17.021 -2.3422 -0.5067  2.4653
  453TIP3   OH222849   4.113   5.348  12.213 -0.2157  0.1268 -0.1624
  453TIP3    H122850   4.103   5.252  12.212 -0.4349  0.1266  0.8421
  453TIP3    H222851   4.078   5.374  12.298 -1.1504  1.2180 -0.8578
  454TIP3   OH222852   1.759   6.462  15.945  0.2432 -0.0824 -0.3937
  454TIP3    H122853   1.728   6.523  16.012  1.0909 -0.0984  0.0373
  454TIP3    H222854   1.694   6.392  15.944 -0.5789  0.6636 -0.6750
  455TIP3   OH222855   6.476   4.282   0.718 -0.0488  0.0654 -0.2248
  455TIP3    H122856   6.493   4.302   0.626 -1.1293  0.5643 -0.3295
  455TIP3    H222857   6.464   4.187   0.719 -0.2886  0.0857 -0.6541
  456TIP3   OH222858   5.253   5.155  13.044 -0.5341  0.2726  0.1176
  456TIP3    H122859   5.259   5.097  13.119  1.3656  1.0859  0.6506
  456TIP3    H222860   5.182   5.119  12.991 -1.4232 -0.7345  1.9243
  457TIP3   OH222861   4.192   2.976   2.600  0.2525  0.0135  0.4868
  457TIP3    H122862   4.181   3.063   2.639  0.2459 -0.0758  0.6879
  457TIP3    H222863   4.104   2.953   2.569  0.3838  0.3522 -0.1567
  458TIP3   OH222864   2.931   1.647  16.716  0.4669  0.0378  0.3569
  458TIP3    H122865   2.986   1.651  16.638 -0.7901  0.4556 -0.5372
  458TIP3    H222866   2.886   1.731  16.718 -1.0460 -0.7441  0.3712
  459TIP3   OH222867   2.841   1.553   1.754 -0.0728 -0.1874 -0.1217
  459TIP3    H122868   2.841   1.556   1.658  0.5764 -0.0861 -0.1179
  459TIP3    H222869   2.930   1.576   1.779 -0.1756 -0.4592  0.5028
  460TIP3   OH222870   6.157   0.420  10.748  0.7516 -0.4300  0.2020
  460TIP3    H122871   6.071   0.391  10.717  0.1613  2.8022 -1.5793
  460TIP3    H222872   6.219   0.389  10.682  0.4982  0.1424 -0.3004
  461TIP3   OH222873   6.445   1.604  15.927  1.0602  0.1738 -0.5543
  461TIP3    H122874   6.444   1.533  15.991 -1.3207 -0.8342 -1.5739
  461TIP3    H222875   6.416   1.681  15.975  0.7833 -0.2183 -0.0899
  462TIP3   OH222876   3.278   1.874   0.466 -0.3611  0.8491 -0.1044
  462TIP3    H122877   3.290   1.779   0.469  0.6630  0.9603 -0.3462
  462TIP3    H222878   3.197   1.886   0.416 -0.9274  0.0866  0.6123
  463TIP3   OH222879   3.218   3.842  15.199  0.2689 -0.1125 -0.2691
  463TIP3    H122880   3.195   3.911  15.137 -0.3617 -0.6736 -0.6818
  463TIP3    H222881   3.147   3.778  15.191  0.3375 -0.3522  0.7987
  464TIP3   OH222882   4.112   5.133  16.463 -0.3441  0.0381 -0.0514
  464TIP3    H122883   4.048   5.115  16.532 -0.5680  1.5020  0.1540
  464TIP3    H222884   4.086   5.077  16.390 -2.0683  0.8358 -0.0904
  465TIP3   OH222885   5.801   1.565   3.145 -0.1426  0.0134  0.1131
  465TIP3    H122886   5.734   1.621   3.105 -0.4412 -1.3379 -1.4037
  465TIP3    H222887   5.883   1.594   3.106 -0.3606 -0.9030 -1.0788
  466TIP3   OH222888   6.624   0.137   4.272  0.3202 -0.4054 -0.9227
  466TIP3    H122889   6.695   0.179   4.223  1.1849 -0.3925  0.3104
  466TIP3    H222890   6.669   0.081   4.336 -0.7093  1.1192  1.2406
  467TIP3   OH222891   1.723   1.796  12.772 -0.2233  0.3428  0.3561
  467TIP3    H122892   1.710   1.702  12.760 -0.8121  0.0407  2.8497
  467TIP3    H222893   1.639   1.835  12.747 -0.9948 -0.1345  2.0302
  468TIP3   OH222894   3.058   2.792   5.387 -0.0788  0.7524 -0.1435
  468TIP3    H122895   3.138   2.804   5.337 -1.2340 -1.0696 -2.6568
  468TIP3    H222896   2.987   2.815   5.327 -1.5741 -2.2527  0.2453
  469TIP3   OH222897   2.088   6.604   4.327 -0.6759 -0.0784 -0.6657
  469TIP3    H122898   1.992   6.596   4.320 -0.8039  1.1981 -0.5858
  469TIP3    H222899   2.101   6.688   4.371  0.4229 -1.4101  1.7121
  470TIP3   OH222900   4.670   0.047  14.573 -0.6324 -0.2265 -0.1702
  470TIP3    H122901   4.750   0.032  14.522  0.3225 -0.1851  1.2562
  470TIP3    H222902   4.701   0.062  14.662 -2.2216  0.2311  0.3342
  471TIP3   OH222903   4.697   1.658  14.225 -0.2359 -0.2818 -0.5342
  471TIP3    H122904   4.696   1.696  14.137 -2.7020 -0.7319 -0.7617
  471TIP3    H222905   4.686   1.733  14.283  2.1958  0.1228 -0.4669
  472TIP3   OH222906   5.280   1.205   2.223 -0.1206 -0.3949 -0.7419
  472TIP3    H122907   5.254   1.275   2.283  1.3075 -0.8678  0.4997
  472TIP3    H222908   5.303   1.132   2.280 -1.6074 -1.9366 -2.0016
  473TIP3   OH222909   2.786   1.819  14.326  0.0659 -0.6692  0.0362
  473TIP3    H122910   2.726   1.745  14.330 -1.9308  0.7878 -1.2314
  473TIP3    H222911   2.803   1.833  14.233  2.4800 -1.0428  0.3419
  474TIP3   OH222912   5.734   2.132  11.543  0.2193 -0.6971 -0.4253
  474TIP3    H122913   5.801   2.196  11.518 -1.3729  1.2430  0.0536
  474TIP3    H222914   5.664   2.143  11.479  0.3937 -2.8721 -1.0710
  475TIP3   OH222915   5.277   5.932   1.738 -0.0740  0.6266  0.6691
  475TIP3    H122916   5.239   5.904   1.654  0.3050  1.7898  0.0903
  475TIP3    H222917   5.371   5.927   1.724  0.0146 -0.4355  1.4834
  476TIP3   OH222918   6.711   6.773   5.310 -0.5504 -0.0545 -0.3871
  476TIP3    H122919   6.776   6.842   5.297  0.2201 -0.3773  1.3793
  476TIP3    H222920   6.660   6.803   5.386 -0.6400 -1.0962 -0.0145
  477TIP3   OH222921   4.957   6.623   0.914 -0.5456  0.0542 -0.3649
  477TIP3    H122922   5.029   6.684   0.929  0.0950 -0.1930 -2.1882
  477TIP3    H222923   4.967   6.557   0.983 -0.0749  0.9422  0.4375
  478TIP3   OH222924   4.120   4.413  12.634 -0.2906  0.0057 -0.9708
  478TIP3    H122925   4.082   4.330  12.608 -0.1231  0.2115 -1.9306
  478TIP3    H222926   4.175   4.392  12.710  0.3644 -0.9005 -1.6743
  479TIP3   OH222927   2.424   2.549  13.863 -0.9096  0.4655  0.6834
  479TIP3    H122928   2.509   2.584  13.837 -0.3879 -0.3760  1.2063
  479TIP3    H222929   2.380   2.527  13.780 -0.8924  1.5022  0.3871
  480TIP3   OH222930   5.617   1.798   4.216  0.5157  0.5230  0.5505
  480TIP3    H122931   5.579   1.880   4.186  0.1251  0.1270 -0.0453
  480TIP3    H222932   5.559   1.730   4.182  1.2797 -0.0488  0.3575
  481TIP3   OH222933   4.298   3.577   3.984  0.5861  0.0417 -0.3196
  481TIP3    H122934   4.307   3.664   3.946  2.1706  0.9434  1.8598
  481TIP3    H222935   4.382   3.561   4.026  1.0358 -3.3996 -2.1803
  482TIP3   OH222936   1.098   6.537  16.481 -0.5442  0.4237 -0.0238
  482TIP3    H122937   1.021   6.563  16.431  0.2859  2.0331 -0.5062
  482TIP3    H222938   1.130   6.617  16.521  0.7268 -0.2647  0.4086
  483TIP3   OH222939   2.623   1.933   0.230 -0.2095 -0.0882  0.4599
  483TIP3    H122940   2.605   1.978   0.147  1.2070 -1.5950 -0.7415
  483TIP3    H222941   2.542   1.888   0.251 -0.1291 -1.0354 -1.0530
  484TIP3   OH222942   5.510   0.219   0.926  0.5368  0.2112 -0.2873
  484TIP3    H122943   5.590   0.262   0.896  0.4166 -0.0813 -1.0704
  484TIP3    H222944   5.531   0.125   0.924 -0.2249  0.0399 -1.8141
  485TIP3   OH222945   4.527   5.398  10.402  0.2111  0.4118 -0.2405
  485TIP3    H122946   4.474   5.473  10.376  1.3579  0.6752 -1.9506
  485TIP3    H222947   4.515   5.334  10.332 -0.8714 -1.1255  1.2593
  486TIP3   OH222948   5.323   5.641   2.221  0.2361 -0.5221 -0.6820
  486TIP3    H122949   5.272   5.623   2.299  0.8172 -1.4752 -0.4978
  486TIP3    H222950   5.291   5.578   2.156  0.7251 -0.6961 -0.7613
  487TIP3   OH222951   6.667   4.876   5.011  0.3994  0.0376 -0.3144
  487TIP3    H122952   6.736   4.896   5.074  0.1285  0.9228 -0.2853
  487TIP3    H222953   6.705   4.896   4.926  0.2507  0.3411 -0.3124
  488TIP3   OH222954   0.118   4.743   6.131 -0.3202 -0.2414  0.3387
  488TIP3    H122955   0.096   4.651   6.118 -0.9973 -0.1033  0.4635
  488TIP3    H222956   0.035   4.785   6.151  0.0168  0.3607  0.5103
  489TIP3   OH222957   5.901   1.877  11.772 -0.3712 -0.1967 -0.1539
  489TIP3    H122958   5.987   1.844  11.747  0.1019  0.1528  0.9349
  489TIP3    H222959   5.910   1.972  11.768  0.0428 -0.0722  2.1644
  490TIP3   OH222960   3.763   1.125   5.892 -0.3140 -0.1579  0.2719
  490TIP3    H122961   3.710   1.126   5.812  0.2396 -1.5422 -0.1411
  490TIP3    H222962   3.709   1.077   5.955 -0.5134  0.4564  0.5839
  491TIP3   OH222963   6.033   1.987  12.749 -0.0589 -0.0120  0.2654
  491TIP3    H122964   5.966   2.032  12.698 -1.2043 -0.2859  1.4509
  491TIP3    H222965   6.115   2.010  12.707 -0.8469  0.8292 -0.8807
  492TIP3   OH222966   4.954   1.283   3.182 -0.0428 -0.0313  0.7348
  492TIP3    H122967   4.927   1.198   3.216 -1.5263 -1.4749 -3.3907
  492TIP3    H222968   5.034   1.265   3.132  1.4123  1.7100  2.3060
  493TIP3   OH222969   5.374   6.475  13.077 -0.3953 -0.2423 -0.1122
  493TIP3    H122970   5.455   6.507  13.118  1.4249 -1.3391 -2.6359
  493TIP3    H222971   5.380   6.380  13.083 -0.8345 -0.3729 -1.4955
  494TIP3   OH222972   4.875   5.733  16.648  0.3627  0.3651  0.4886
  494TIP3    H122973   4.931   5.794  16.696 -0.8412  1.2880  0.7817
  494TIP3    H222974   4.921   5.718  16.566  1.7878 -0.1583  1.3376
  495TIP3   OH222975   5.010   4.307   6.019  0.2665 -0.1713  0.3909
  495TIP3    H122976   4.991   4.266   6.103  0.5341  1.3957  1.2688
  495TIP3    H222977   5.031   4.235   5.961  0.8795 -1.2585  1.8961
  496TIP3   OH222978   6.265   4.293   1.614  0.0858  0.2849  0.2091
  496TIP3    H122979   6.170   4.308   1.619 -0.0437 -0.7397  1.2852
  496TIP3    H222980   6.297   4.364   1.558 -0.9436  2.1998  1.9185
  497TIP3   OH222981   1.544   2.586  16.970  0.3501 -0.0719 -0.2254
  497TIP3    H122982   1.615   2.651  16.971  0.9914 -0.7394 -0.9650
  497TIP3    H222983   1.536   2.561  16.878 -0.3507 -0.5484 -0.0394
  498TIP3   OH222984   1.967   3.407   0.110 -0.1092  0.4178 -0.3274
  498TIP3    H122985   1.990   3.340   0.173  2.0265 -0.7997 -2.2494
  498TIP3    H222986   1.994   3.489   0.151  1.1233 -0.3284  0.4100
  499TIP3   OH222987   1.069   5.296  15.853  0.6131 -0.1386 -0.0287
  499TIP3    H122988   1.023   5.329  15.776 -0.0990 -0.6512  0.1732
  499TIP3    H222989   1.091   5.374  15.904  0.7943  0.1758 -0.5840
  500TIP3   OH222990   4.667   4.933  14.886  0.2792  0.7385 -0.4688
  500TIP3    H122991   4.656   5.025  14.861 -1.5243  0.4588 -0.8528
  500TIP3    H222992   4.651   4.932  14.980 -1.4323  0.6127 -0.7282
  501TIP3   OH222993   4.207   5.110  12.892 -0.4069 -0.4181  0.2725
  501TIP3    H122994   4.209   5.076  12.803  0.6554 -0.6148  0.3631
  501TIP3    H222995   4.176   5.037  12.945 -1.6777 -0.1057 -0.0011
  502TIP3   OH222996   4.460   4.159   2.144  0.1696  0.5117 -0.0718
  502TIP3    H122997   4.396   4.088   2.149 -0.8091  1.3316 -0.6207
  502TIP3    H222998   4.432   4.211   2.069  1.8317  0.5660 -0.6948
  503TIP3   OH222999   6.066   2.021  15.757 -0.3230  0.3338  0.3703
  503TIP3    H123000   5.970   2.025  15.764 -0.1679  1.5710  4.8646
  503TIP3    H223001   6.088   1.933  15.787  0.0252 -0.3954 -1.8288
  504TIP3   OH223002   5.405   6.177   2.830  0.5882 -0.1131 -0.2027
  504TIP3    H123003   5.382   6.267   2.806  0.0936 -0.0386  0.5080
  504TIP3    H223004   5.419   6.133   2.746 -1.4572  0.0392 -0.6933
  505TIP3   OH223005   5.661   5.911  13.507 -0.3726 -0.1984 -0.0392
  505TIP3    H123006   5.618   5.924  13.592  1.3405  1.2408  0.6611
  505TIP3    H223007   5.591   5.881  13.449 -1.3801 -2.4058  2.1386
  506TIP3   OH223008   2.183   5.182  14.340 -0.0985 -0.2613 -0.2561
  506TIP3    H123009   2.253   5.243  14.363 -1.3358  0.3692  2.1516
  506TIP3    H223010   2.110   5.237  14.313 -0.2548 -0.8393 -1.0724
  507TIP3   OH223011   5.784   3.786  15.485 -0.3594 -0.1088  0.5244
  507TIP3    H123012   5.850   3.724  15.515 -1.2322 -0.5272  1.6111
  507TIP3    H223013   5.774   3.848  15.557  0.0383  0.9553 -0.2957
  508TIP3   OH223014   1.516   3.088  15.893  0.4908  0.4379 -0.2827
  508TIP3    H123015   1.473   3.154  15.947  0.8238  2.1733 -2.0297
  508TIP3    H223016   1.522   3.128  15.806 -0.6071 -2.4830 -1.8335
  509TIP3   OH223017   4.962   2.061   0.088 -0.4928  0.4597 -0.2806
  509TIP3    H123018   4.957   2.157   0.090 -1.5646  0.4030  0.5460
  509TIP3    H223019   4.919   2.037   0.006  0.5593  0.7079 -0.9247
  510TIP3   OH223020   3.911   2.884  17.011 -0.1074  0.3890 -0.1815
  510TIP3    H123021   3.910   2.872  16.917  0.2269 -0.1390 -0.1235
  510TIP3    H223022   3.836   2.834  17.043  1.1716 -1.5021  0.0417
  511TIP3   OH223023   0.623   3.185  12.425  0.4893  0.0293  0.2379
  511TIP3    H123024   0.546   3.216  12.379 -2.0385  1.1449  4.6477
  511TIP3    H223025   0.677   3.263  12.437  2.4337 -0.6978 -2.5903
  512TIP3   OH223026   2.569   4.738   1.103  0.3930 -0.7663 -0.4179
  512TIP3    H123027   2.571   4.809   1.167 -0.4123 -2.3141  1.4326
  512TIP3    H223028   2.660   4.710   1.094  0.4156 -1.1766  0.8652
  513TIP3   OH223029   2.725   0.813  13.116 -0.4392  0.1644  0.0777
  513TIP3    H123030   2.713   0.857  13.200  0.0440 -0.0802  0.2770
  513TIP3    H223031   2.723   0.884  13.052  1.8180  0.7074  0.5121
  514TIP3   OH223032   6.345   2.580   3.361  0.2947 -0.0125 -0.1341
  514TIP3    H123033   6.439   2.565   3.352  0.1875 -1.8779  1.2079
  514TIP3    H223034   6.336   2.673   3.379  1.9837  0.0182  0.6872
  515TIP3   OH223035   2.444   5.153   0.711  0.0417  0.2851  0.1462
  515TIP3    H123036   2.476   5.070   0.676 -1.3870  0.8797 -2.9040
  515TIP3    H223037   2.358   5.132   0.748 -0.8820  0.5393 -1.7532
  516TIP3   OH223038   4.569   5.586   3.369  0.1939 -0.4481  0.2456
  516TIP3    H123039   4.511   5.520   3.330  1.8930 -2.7502  1.3430
  516TIP3    H223040   4.535   5.597   3.458 -0.7326  1.0662 -0.2571
  517TIP3   OH223041   4.302   3.464  10.484  0.4233 -0.3857  0.4759
  517TIP3    H123042   4.394   3.441  10.469  0.1952 -2.1926  1.4614
  517TIP3    H223043   4.305   3.546  10.533  1.4051  0.7282 -1.3350
  518TIP3   OH223044   2.450   5.781   1.217 -0.0319  0.4290 -0.0745
  518TIP3    H123045   2.528   5.730   1.198  0.2123  1.1339 -1.0708
  518TIP3    H223046   2.410   5.797   1.131 -2.6977 -2.0703  0.5438
  519TIP3   OH223047   1.294   1.806  16.587 -0.1313 -0.0236 -0.4466
  519TIP3    H123048   1.338   1.760  16.659 -1.6047  1.5654  1.5775
  519TIP3    H223049   1.203   1.778  16.592 -0.5575  1.2491 -0.7168
  520TIP3   OH223050   5.550   0.910  14.616 -0.0672  0.1162 -0.2253
  520TIP3    H123051   5.534   0.835  14.559  1.4960  0.4539 -1.1723
  520TIP3    H223052   5.608   0.967  14.565  0.6065  0.8878  1.3282
  521TIP3   OH223053   2.944   3.817   2.042 -0.1108 -0.7751  0.0859
  521TIP3    H123054   2.968   3.908   2.055 -0.7794 -0.2353 -2.1290
  521TIP3    H223055   2.927   3.784   2.131  3.3867  0.2281  1.2958
  522TIP3   OH223056   0.289   3.041  11.245 -0.4532  0.1750 -0.2306
  522TIP3    H123057   0.327   3.109  11.301 -0.6481  0.0591  0.0439
  522TIP3    H223058   0.298   3.076  11.156  3.3016 -1.2334 -0.5638
  523TIP3   OH223059   3.041   4.225  13.041 -0.0018 -0.5421  0.3038
  523TIP3    H123060   3.015   4.228  13.133  0.0529  0.0543  0.3050
  523TIP3    H223061   3.136   4.231  13.042 -0.0272 -0.0955  0.1908
  524TIP3   OH223062   0.809   3.225  11.785  0.8364 -0.1209 -0.2342
  524TIP3    H123063   0.715   3.239  11.775  0.8862 -0.7978 -1.9276
  524TIP3    H223064   0.821   3.131  11.777  1.4715 -0.2971  2.0834
  525TIP3   OH223065   2.970   0.413  14.540 -0.7031  0.0983 -0.5796
  525TIP3    H123066   2.917   0.478  14.586 -1.3594 -1.9815  1.8415
  525TIP3    H223067   2.913   0.381  14.470 -0.1272  2.4842 -2.2566
  526TIP3   OH223068   1.434   5.682  16.517  0.4101 -0.7798 -0.4411
  526TIP3    H123069   1.529   5.679  16.519  0.3723 -2.8239 -0.0943
  526TIP3    H223070   1.407   5.663  16.607 -0.3528  0.3578 -0.3956
  527TIP3   OH223071   0.313   5.740   2.609  0.2225 -0.2003 -0.1233
  527TIP3    H123072   0.260   5.662   2.622 -1.1175  0.7439  0.2976
  527TIP3    H223073   0.268   5.808   2.659  1.5534  0.7606 -0.1901
  528TIP3   OH223074   2.799   4.605   1.207  0.3412  0.2668 -0.0413
  528TIP3    H123075   2.775   4.600   1.299  0.7280  0.9570  0.1022
  528TIP3    H223076   2.863   4.676   1.202  0.3863  0.1845 -0.8257
  529TIP3   OH223077   6.780   6.585  14.723 -0.4203 -0.3209 -0.7412
  529TIP3    H123078   6.862   6.590  14.773 -1.0335  4.6176  0.3225
  529TIP3    H223079   6.808   6.575  14.632  1.2496 -0.6589 -0.2210
  530TIP3   OH223080   2.347   0.441  16.131 -0.1141 -0.0227 -0.5509
  530TIP3    H123081   2.364   0.531  16.102  0.1212 -0.2246 -1.0551
  530TIP3    H223082   2.260   0.420  16.098 -0.7852  0.5065  0.7930
  531TIP3   OH223083   3.942   0.554  14.781 -0.2628 -0.9320 -0.7624
  531TIP3    H123084   3.971   0.463  14.776  1.0448 -0.5085 -1.8872
  531TIP3    H223085   3.934   0.581  14.689 -0.7762  0.0334 -0.4423
  532TIP3   OH223086   3.863   4.973  13.844 -0.5951 -0.4335 -0.0132
  532TIP3    H123087   3.846   4.991  13.936 -0.1523  0.5088 -0.1065
  532TIP3    H223088   3.943   4.921  13.844  0.1520  0.6994  0.0697
  533TIP3   OH223089   6.072   6.489  15.646 -0.1863 -0.1611 -0.2168
  533TIP3    H123090   6.157   6.505  15.689 -1.4668 -0.0961  2.5098
  533TIP3    H223091   6.056   6.396  15.660 -0.7844 -0.0692 -0.2947
  534TIP3   OH223092   2.631   3.000  13.825  0.1952  0.0485  0.3003
  534TIP3    H123093   2.610   3.053  13.747  0.1475 -0.3666  0.0251
  534TIP3    H223094   2.676   3.060  13.884 -0.1256  0.4741  0.1158
  535TIP3   OH223095   3.011   6.844   2.539 -0.0439  0.7208  0.0358
  535TIP3    H123096   2.968   6.865   2.622  0.4105  0.2845  0.3851
  535TIP3    H223097   2.956   6.886   2.473  0.0689  1.8079  0.6140
  536TIP3   OH223098   2.434   6.720   0.215 -0.0205  0.3087  0.3380
  536TIP3    H123099   2.443   6.692   0.306 -0.4236  0.0344  0.2957
  536TIP3    H223100   2.407   6.811   0.220  1.9382  0.9238  0.4797
  537TIP3   OH223101   2.771   2.755   2.477 -0.2757  0.0483  0.1933
  537TIP3    H123102   2.841   2.820   2.473 -1.1412  0.9314 -2.4234
  537TIP3    H223103   2.753   2.733   2.386 -0.9454 -2.9095  0.9566
  538TIP3   OH223104   1.625   2.153   1.591  0.1788 -0.4495  0.1619
  538TIP3    H123105   1.655   2.227   1.644  0.4613  0.6437 -1.4738
  538TIP3    H223106   1.691   2.142   1.523 -1.2296 -0.4144 -1.2672
  539TIP3   OH223107   0.593   0.993  12.986 -0.9764 -0.0955  0.0561
  539TIP3    H123108   0.599   0.900  13.005 -0.7498  0.2053  1.6555
  539TIP3    H223109   0.656   1.034  13.045 -1.3219  1.0971 -0.3613
  540TIP3   OH223110   5.634   6.689  16.749  0.0714 -0.0674  0.3644
  540TIP3    H123111   5.646   6.735  16.832  1.4118 -0.0474  0.1801
  540TIP3    H223112   5.719   6.697  16.704  0.2996 -2.5077  0.2209
  541TIP3   OH223113   0.555   3.339  15.574 -0.2004  0.2382 -0.3117
  541TIP3    H123114   0.464   3.350  15.547  0.9307  1.8263 -4.2032
  541TIP3    H223115   0.604   3.398  15.517  3.4616 -1.9474  0.2524
  542TIP3   OH223116   4.077   6.178   5.072  0.4344 -0.2771  0.2024
  542TIP3    H123117   4.073   6.106   5.135  2.1958 -0.3777  0.2347
  542TIP3    H223118   4.154   6.228   5.096 -1.4938  2.5517  1.0762
  543TIP3   OH223119   0.827   1.549   5.673  0.4752 -0.0121  0.0034
  543TIP3    H123120   0.847   1.638   5.642 -0.2038  0.4082  0.7440
  543TIP3    H223121   0.761   1.517   5.611 -0.4309  0.6001  0.6196
  544TIP3   OH223122   0.135   3.257   1.793 -0.0785  0.2065 -0.0921
  544TIP3    H123123   0.151   3.165   1.815  0.2797  0.2317 -0.2497
  544TIP3    H223124   0.039   3.265   1.794 -0.1939 -0.5448 -1.5631
  545TIP3   OH223125   1.281   6.270  16.752 -0.1040  0.4959 -0.1030
  545TIP3    H123126   1.306   6.343  16.808  0.6316 -1.1364  1.8210
  545TIP3    H223127   1.363   6.224  16.734 -0.7436 -0.7789  0.1247
  546TIP3   OH223128   4.940   5.331   0.123  1.0342  0.1255 -0.0206
  546TIP3    H123129   4.972   5.243   0.102  0.0560 -0.1635 -0.3993
  546TIP3    H223130   4.986   5.356   0.203  1.7008 -0.5197 -0.1969
  547TIP3   OH223131   4.725   1.198  12.037  1.0087 -0.6276 -0.3358
  547TIP3    H123132   4.776   1.117  12.044  1.7577 -0.0426  1.6149
  547TIP3    H223133   4.790   1.265  12.012  1.0778 -0.0412  1.3033
  548TIP3   OH223134   4.635   1.814   1.566 -0.4984 -0.6744  0.3254
  548TIP3    H123135   4.711   1.779   1.613  0.7416  0.9247 -0.4052
  548TIP3    H223136   4.670   1.886   1.514 -1.9432 -1.8873 -2.5298
  549TIP3   OH223137   0.021   5.313  11.404  1.1313 -0.7328  0.7253
  549TIP3    H123138  -0.043   5.373  11.367  0.1790 -0.3109  2.8872
  549TIP3    H223139   0.003   5.229  11.362 -0.1787 -0.3843  0.5467
  550TIP3   OH223140   4.248   3.536   1.617  0.3111  0.3293  0.0964
  550TIP3    H123141   4.216   3.623   1.594 -0.7346 -0.0044  0.2305
  550TIP3    H223142   4.280   3.500   1.534 -1.3065  0.0142 -0.4141
  551TIP3   OH223143   1.584   6.621  14.550  0.0531  0.3487  0.8209
  551TIP3    H123144   1.672   6.646  14.578  0.4103  0.1878 -0.1056
  551TIP3    H223145   1.596   6.538  14.504 -0.4980  0.5781  0.2427
  552TIP3   OH223146   6.605   6.651  14.481 -0.3162 -0.1391  0.1292
  552TIP3    H123147   6.546   6.709  14.433 -1.8226 -1.1560  0.6935
  552TIP3    H223148   6.609   6.688  14.569  1.1023  0.7510 -0.2593
  553TIP3   OH223149   5.616   1.902   4.706 -0.4783  0.2110 -0.0076
  553TIP3    H123150   5.693   1.879   4.655 -0.7489 -1.3673  0.2574
  553TIP3    H223151   5.545   1.904   4.643 -0.9349 -2.3931  0.3378
  554TIP3   OH223152   3.754   3.068  15.921  0.0563  0.0906 -0.1045
  554TIP3    H123153   3.675   3.121  15.934  0.7596  1.1737 -0.0330
  554TIP3    H223154   3.731   3.006  15.853 -1.0939 -0.1250  0.4658
  555TIP3   OH223155   5.392   5.631  14.384  0.5564 -0.3154  0.1473
  555TIP3    H123156   5.308   5.601  14.349  1.3199 -2.5207  0.0642
  555TIP3    H223157   5.452   5.625  14.310  0.5742  2.6836 -0.2184
  556TIP3   OH223158   3.499   5.928   3.157  0.3549  0.0899  0.0403
  556TIP3    H123159   3.454   5.982   3.092  2.3885 -0.2736 -1.7917
  556TIP3    H223160   3.547   5.990   3.212 -0.7540  0.3486  0.7532
  557TIP3   OH223161   4.091   6.300  16.072  0.4299 -0.3324  0.2921
  557TIP3    H123162   3.997   6.296  16.093  0.5061 -1.8488  0.4163
  557TIP3    H223163   4.102   6.386  16.031 -1.0321 -0.1683  0.1882
  558TIP3   OH223164   3.361   6.611   0.791 -0.6305  0.3554  0.1646
  558TIP3    H123165   3.346   6.704   0.809  2.8075  1.3043 -1.0315
  558TIP3    H223166   3.403   6.611   0.705  0.4058 -2.2336  0.6099
  559TIP3   OH223167   6.782   1.999   4.368 -0.6745 -0.0241 -0.0484
  559TIP3    H123168   6.799   1.924   4.425 -1.7345 -1.1470 -1.1330
  559TIP3    H223169   6.739   2.063   4.424 -1.3436 -0.9471  0.5149
  560TIP3   OH223170   1.729   5.090  11.838  0.0987  0.2360 -0.3263
  560TIP3    H123171   1.760   5.093  11.747  0.9989 -0.7721 -0.0722
  560TIP3    H223172   1.705   4.999  11.852  0.4041  0.2928  0.6010
  561TIP3   OH223173   1.956   5.316   1.361 -0.5295 -0.6029  0.4032
  561TIP3    H123174   1.997   5.391   1.318  1.2319 -1.0605  1.1827
  561TIP3    H223175   1.902   5.354   1.429  0.0496 -0.0137  0.5444
  562TIP3   OH223176   3.087   0.036  11.223 -0.2738  0.8017  0.3560
  562TIP3    H123177   3.038  -0.011  11.155 -1.0125 -1.4926  2.3477
  562TIP3    H223178   3.021   0.093  11.265 -0.4973  0.1207  0.9435
  563TIP3   OH223179   3.137   1.326   2.330 -0.5535  0.3129 -0.2569
  563TIP3    H123180   3.153   1.362   2.418 -2.0981  0.4389 -0.0002
  563TIP3    H223181   3.201   1.255   2.322 -1.2462 -0.5808  1.5197
  564TIP3   OH223182   0.922   0.876  15.452 -0.2231  0.0648 -0.1076
  564TIP3    H123183   0.919   0.860  15.546 -0.6758  0.4738 -0.0471
  564TIP3    H223184   0.948   0.968  15.445 -0.6602  0.1677 -0.3721
  565TIP3   OH223185   3.517   2.096  13.205 -0.2050 -0.5026 -0.0624
  565TIP3    H123186   3.589   2.124  13.147 -0.1528 -1.2007 -0.3382
  565TIP3    H223187   3.447   2.159  13.187 -0.2071 -0.7400 -0.9294
  566TIP3   OH223188   0.767   4.971   5.799 -0.3574  0.0789 -0.3548
  566TIP3    H123189   0.786   4.881   5.828 -0.1281  0.4957  0.8345
  566TIP3    H223190   0.693   4.961   5.739  0.4574 -1.0333 -1.2224
  567TIP3   OH223191   1.481   4.990  16.169 -0.1881  0.1874 -0.8734
  567TIP3    H123192   1.483   5.070  16.117  2.2347  1.1520  0.5194
  567TIP3    H223193   1.514   4.922  16.110  0.4858  0.8250 -1.2507
  568TIP3   OH223194   6.302   3.067   4.945  0.0398 -0.5385 -1.1333
  568TIP3    H123195   6.312   3.085   5.038  1.3008 -2.8429 -0.7349
  568TIP3    H223196   6.210   3.088   4.926 -0.0285  0.7397  0.4053
  569TIP3   OH223197   4.570   3.372   3.902  0.1039 -0.4796  0.5187
  569TIP3    H123198   4.595   3.431   3.832 -0.8162 -1.7439 -0.9296
  569TIP3    H223199   4.536   3.429   3.971  1.0981  0.7848 -0.0092
  570TIP3   OH223200   2.379   2.065   5.434 -0.0029  0.0868  0.0630
  570TIP3    H123201   2.286   2.073   5.454 -0.1886 -0.2529 -0.6581
  570TIP3    H223202   2.413   2.153   5.445 -0.8536  0.6980 -1.8671
  571TIP3   OH223203   3.866   3.950   6.206  0.3040 -0.2182 -0.4358
  571TIP3    H123204   3.905   3.899   6.135 -1.7897 -2.8020  0.1166
  571TIP3    H223205   3.904   3.913   6.285 -2.2912 -2.1520  0.0560
  572TIP3   OH223206   2.735   0.131  14.624 -0.3413 -0.4082 -0.2354
  572TIP3    H123207   2.644   0.102  14.610 -0.0888 -0.7206 -1.3197
  572TIP3    H223208   2.779   0.113  14.541  0.5133  0.5228 -0.0036
  573TIP3   OH223209   3.333   4.895   3.313  0.5060 -0.0974 -0.0046
  573TIP3    H123210   3.284   4.917   3.392  2.1413 -1.1053  1.3363
  573TIP3    H223211   3.382   4.975   3.293  1.1546 -0.2755  0.8311
  574TIP3   OH223212   3.124   3.291  11.581  0.0812 -0.2414 -0.0042
  574TIP3    H123213   3.141   3.206  11.623 -3.1036 -0.3918  1.3501
  574TIP3    H223214   3.107   3.350  11.655  0.1834  1.0240 -0.9764
  575TIP3   OH223215   5.422   3.448  16.515 -0.0139  0.1839 -0.3160
  575TIP3    H123216   5.515   3.448  16.493  0.3845  0.1113  1.1979
  575TIP3    H223217   5.377   3.456  16.432  1.3388 -0.3962 -1.1330
  576TIP3   OH223218   0.967   6.502  13.922 -0.4868  0.2460 -0.3370
  576TIP3    H123219   0.947   6.440  13.852 -1.5975 -1.8224  1.6857
  576TIP3    H223220   1.007   6.449  13.991 -1.8491  1.6611  1.6684
  577TIP3   OH223221   5.019   4.159   0.867 -0.1377 -0.0657  0.4441
  577TIP3    H123222   4.957   4.140   0.938 -0.9810  2.3917  0.4597
  577TIP3    H223223   4.974   4.129   0.788  0.3489 -1.8170  0.7805
  578TIP3   OH223224   6.177   2.639  12.311 -0.3360 -0.5542  0.3499
  578TIP3    H123225   6.126   2.718  12.329  0.9459  0.6774 -1.1551
  578TIP3    H223226   6.138   2.572  12.367 -2.5745  0.6978  0.3847
  579TIP3   OH223227   2.899   5.241   4.616 -0.2346  0.2683  0.1406
  579TIP3    H123228   2.978   5.189   4.632  0.3204  0.1740 -2.3801
  579TIP3    H223229   2.827   5.187   4.646  0.5217 -0.7772  0.1030
  580TIP3   OH223230   3.156   0.792   1.666  0.8694 -0.6192 -0.1895
  580TIP3    H123231   3.203   0.762   1.587 -1.5940 -3.1592 -0.8541
  580TIP3    H223232   3.077   0.834   1.632  1.0589  0.7122  0.9378
  581TIP3   OH223233   2.425   4.519  12.305  0.1106 -0.2267  0.2209
  581TIP3    H123234   2.330   4.526  12.311  0.1252 -0.1117  0.3147
  581TIP3    H223235   2.452   4.481  12.388  0.0783 -0.9666 -0.1001
  582TIP3   OH223236   2.640   2.197  13.679 -0.5394 -0.1260  0.1428
  582TIP3    H123237   2.661   2.195  13.773  1.7227  0.5350 -0.2914
  582TIP3    H223238   2.658   2.108  13.649 -1.3709 -0.3680  0.3287
  583TIP3   OH223239   5.626   4.196   4.960  0.2385 -0.0097 -0.0863
  583TIP3    H123240   5.656   4.243   4.882 -0.9822 -1.5280 -1.5748
  583TIP3    H223241   5.677   4.232   5.032  1.8765  1.0403 -1.6894
  584TIP3   OH223242   2.201   1.259  11.186  0.2384  0.1785  0.4550
  584TIP3    H123243   2.115   1.231  11.152 -0.1662 -0.8754  2.2300
  584TIP3    H223244   2.237   1.314  11.116 -1.1110 -0.7851 -1.0923
  585TIP3   OH223245   0.577   1.259   4.757  0.0944 -0.1565  0.2263
  585TIP3    H123246   0.607   1.220   4.674 -2.2252  1.0136 -1.2702
  585TIP3    H223247   0.590   1.353   4.745 -0.4336  0.0342  1.1039
  586TIP3   OH223248   1.506   5.630   4.287 -0.1637 -0.5242 -0.3722
  586TIP3    H123249   1.544   5.627   4.375 -2.7273 -0.3974  0.8256
  586TIP3    H223250   1.524   5.544   4.250 -0.9794 -1.3895  1.1781
  587TIP3   OH223251   5.379   1.741  12.854 -0.0183  0.0049 -0.0065
  587TIP3    H123252   5.315   1.680  12.892  0.4840 -0.0319  0.8155
  587TIP3    H223253   5.357   1.826  12.892  0.0693  0.0979 -0.1629
  588TIP3   OH223254   1.596   3.210  16.268 -0.0238  0.8891 -0.1323
  588TIP3    H123255   1.560   3.172  16.348 -0.5873  1.2021 -0.2281
  588TIP3    H223256   1.689   3.223  16.286  0.5217 -1.8225 -0.5766
  589TIP3   OH223257   5.337   6.162   2.084  0.0948 -0.3784 -0.6159
  589TIP3    H123258   5.393   6.153   2.007  0.8463 -0.9151 -0.0099
  589TIP3    H223259   5.388   6.214   2.146 -0.9134  0.9703 -0.8421
  590TIP3   OH223260   2.617   1.261   6.593  0.1118  0.0609 -0.9387
  590TIP3    H123261   2.567   1.229   6.667  0.1270  1.2191 -0.4051
  590TIP3    H223262   2.553   1.309   6.539  0.3683  0.3659 -0.9742
  591TIP3   OH223263   2.720   4.097   0.804 -0.1382 -0.3485 -0.5838
  591TIP3    H123264   2.711   4.002   0.799  0.9957 -0.5175  0.1490
  591TIP3    H223265   2.754   4.113   0.892  1.0647  0.6162 -1.2018
  592TIP3   OH223266   0.255   6.701   2.313  0.2396  0.0381  0.0453
  592TIP3    H123267   0.267   6.617   2.357  0.5891  0.4416  0.7227
  592TIP3    H223268   0.307   6.694   2.233 -0.1431 -0.5774 -0.1552
  593TIP3   OH223269   3.879   1.564   0.635 -0.3663 -0.1208 -0.0476
  593TIP3    H123270   3.858   1.489   0.579  0.9695 -1.1522  0.7808
  593TIP3    H223271   3.925   1.625   0.576  0.4054 -0.8883 -0.2729
  594TIP3   OH223272   3.331   0.182   0.691  0.4868 -0.4661  0.0125
  594TIP3    H123273   3.342   0.276   0.701 -1.4382  0.0656 -2.0604
  594TIP3    H223274   3.236   0.170   0.683  0.8258 -2.2533 -2.3147
  595TIP3   OH223275   3.275   5.465  13.679 -0.1020  0.0084 -0.5990
  595TIP3    H123276   3.274   5.548  13.725 -1.9827 -0.2913 -0.0441
  595TIP3    H223277   3.209   5.411  13.723 -0.8716 -0.8283 -2.6345
  596TIP3   OH223278   3.808   6.358  12.590 -0.4389  0.2565 -0.4258
  596TIP3    H123279   3.851   6.338  12.508  0.5718  1.2251 -0.1579
  596TIP3    H223280   3.867   6.325  12.658 -0.6079  0.6675 -0.0705
  597TIP3   OH223281   6.638   3.704  16.284 -0.0506 -0.6005  0.2821
  597TIP3    H123282   6.614   3.764  16.214 -0.3324 -0.4958  0.4684
  597TIP3    H223283   6.671   3.626  16.239 -0.7339 -0.7448  0.0245
  598TIP3   OH223284   0.718   1.951   4.480 -0.2088  0.1866 -0.1577
  598TIP3    H123285   0.707   1.929   4.388 -0.9129  2.8009 -0.7664
  598TIP3    H223286   0.813   1.956   4.493 -0.1191  0.5395 -0.9331
  599TIP3   OH223287   6.208   6.655   4.945 -0.1378 -0.2769 -0.0579
  599TIP3    H123288   6.246   6.728   4.993 -0.6436  0.1268 -0.2607
  599TIP3    H223289   6.226   6.578   4.999  0.9571 -0.0975 -0.1609
  600TIP3   OH223290   3.350   4.278  14.818 -0.5483 -0.3251 -0.5423
  600TIP3    H123291   3.418   4.335  14.853 -1.8344  0.1383  1.3567
  600TIP3    H223292   3.398   4.212  14.767  1.7429 -1.8390  3.1166
  601TIP3   OH223293   1.896   1.907  12.047  0.1075 -0.2094 -0.2953
  601TIP3    H123294   1.867   1.870  12.130  0.2624  1.1336  0.3928
  601TIP3    H223295   1.815   1.932  12.002  0.0689  0.6820  0.2482
  602TIP3   OH223296   2.839   1.724   5.648  0.3448  0.0046 -0.2108
  602TIP3    H123297   2.767   1.665   5.670  0.6901  0.1682  1.4575
  602TIP3    H223298   2.857   1.705   5.556 -1.5249 -0.3514 -0.5556
  603TIP3   OH223299   3.537   1.968  15.600  0.4583  0.4848 -0.2694
  603TIP3    H123300   3.449   1.935  15.617  0.9761 -1.8191 -1.6224
  603TIP3    H223301   3.532   2.005  15.511  0.9891 -0.2244 -0.5976
  604TIP3   OH223302   2.085   2.943  14.856 -0.2874 -0.3695 -0.6013
  604TIP3    H123303   2.069   2.849  14.868 -0.3407 -0.2702  0.1554
  604TIP3    H223304   2.014   2.985  14.904  1.5270  0.0724  1.9256
  605TIP3   OH223305   0.075   5.057  11.295  0.3945 -0.1635  0.0869
  605TIP3    H123306   0.061   5.078  11.203 -1.8174 -0.3099  0.3492
  605TIP3    H223307   0.130   4.978  11.293 -0.3810 -0.6908 -1.1270
  606TIP3   OH223308   4.062   0.289   3.323 -0.0180  0.1320  0.1706
  606TIP3    H123309   4.128   0.219   3.331  1.0790  1.0617 -0.4957
  606TIP3    H223310   4.033   0.304   3.413 -0.0204 -0.9423  0.3650
  607TIP3   OH223311   2.602   5.765  14.444 -0.0364 -0.3180 -0.0020
  607TIP3    H123312   2.565   5.852  14.454 -0.1599 -0.4910  1.1300
  607TIP3    H223313   2.527   5.706  14.454  0.3892 -0.6351  1.4730
  608TIP3   OH223314   5.215   3.967  11.085  0.3141 -0.1432  0.0073
  608TIP3    H123315   5.223   4.036  11.019 -0.7387  0.5164  0.5428
  608TIP3    H223316   5.297   3.970  11.134  0.3894  0.5375 -0.1535
  609TIP3   OH223317   6.009   1.124   5.056 -0.1451  0.1444  0.1773
  609TIP3    H123318   6.080   1.079   5.101  1.0452  1.4023 -0.3667
  609TIP3    H223319   5.941   1.135   5.122  0.0191 -1.3586  0.6249
  610TIP3   OH223320   3.780   0.548   1.809  1.3042 -0.2288 -0.7617
  610TIP3    H123321   3.875   0.548   1.812  1.3244 -1.6253 -0.6836
  610TIP3    H223322   3.753   0.481   1.871  0.2837 -0.1308 -1.0672
  611TIP3   OH223323   5.171   0.343  15.129  0.2006  0.4206  0.1099
  611TIP3    H123324   5.150   0.346  15.035 -2.9945  0.2097  0.7134
  611TIP3    H223325   5.211   0.257  15.141 -1.2983 -0.4466 -0.7724
  612TIP3   OH223326   4.227   1.679  12.933 -0.4460  0.2703 -0.4722
  612TIP3    H123327   4.274   1.744  12.985 -0.0548  0.5006 -1.1012
  612TIP3    H223328   4.251   1.699  12.842 -3.4515  1.8172 -1.0657
  613TIP3   OH223329   4.313   6.320  13.946 -0.2628 -0.2640 -0.2221
  613TIP3    H123330   4.301   6.405  13.904 -0.6418 -0.2869 -0.1587
  613TIP3    H223331   4.231   6.274  13.932  0.4439 -1.1929 -1.5513
  614TIP3   OH223332   4.383   2.304  14.964  0.2339 -0.1945  0.4624
  614TIP3    H123333   4.471   2.275  14.940  0.5141 -0.0561  1.2675
  614TIP3    H223334   4.392   2.399  14.976  0.4282 -0.3946  2.2763
  615TIP3   OH223335   6.177   6.707   6.656  0.3889 -0.0855  0.3329
  615TIP3    H123336   6.111   6.770   6.683 -0.0184 -0.2797 -0.2058
  615TIP3    H223337   6.179   6.642   6.727 -0.8386 -0.7165 -0.1890
  616TIP3   OH223338   5.511   2.894   5.286  0.4979  0.5623  0.4391
  616TIP3    H123339   5.556   2.974   5.315  0.0045  0.8770  0.3441
  616TIP3    H223340   5.429   2.894   5.334 -0.4827  1.2669 -1.1746
  617TIP3   OH223341   0.015   4.035   2.885 -0.0641 -1.0703 -0.3918
  617TIP3    H123342   0.089   4.032   2.823  1.4585 -0.0719  1.2666
  617TIP3    H223343  -0.008   4.128   2.889  2.6659 -0.2859  3.4625
  618TIP3   OH223344   6.819   3.603  17.068  0.2487 -0.6283 -0.3294
  618TIP3    H123345   6.824   3.535  17.001 -0.4124 -0.0013 -1.0290
  618TIP3    H223346   6.762   3.670  17.031 -1.0463 -0.7687  1.2968
  619TIP3   OH223347   0.846   2.534  12.089 -1.0904  0.4194  0.0333
  619TIP3    H123348   0.797   2.545  12.008 -0.0180 -0.4750 -0.7724
  619TIP3    H223349   0.812   2.602  12.147 -1.2113  1.7289 -1.4942
  620TIP3   OH223350   6.037   1.467  12.021 -0.0538  0.1933  0.2722
  620TIP3    H123351   6.103   1.429  11.963 -0.9001  0.2581 -0.7769
  620TIP3    H223352   6.069   1.555  12.040 -0.0453  0.3918 -0.6144
  621TIP3   OH223353   1.095   2.786  15.320 -0.2074  0.1623  0.8190
  621TIP3    H123354   1.099   2.879  15.300  0.1755 -0.5114 -3.2540
  621TIP3    H223355   1.004   2.762  15.303  0.3565 -0.6476 -1.4324
  622TIP3   OH223356   4.274   2.975  16.281 -0.0072  0.0397 -0.0697
  622TIP3    H123357   4.251   2.911  16.213  0.3521 -1.3944  1.0963
  622TIP3    H223358   4.368   2.960  16.296  0.0761  0.8390  0.2571
  623TIP3   OH223359   2.021   2.464   4.440 -0.6972 -0.4572 -0.3126
  623TIP3    H123360   1.956   2.517   4.486  0.4102  0.8800 -0.1988
  623TIP3    H223361   2.039   2.390   4.498 -0.7651  0.1549  0.5004
  624TIP3   OH223362   6.709   0.427   2.532  0.0920 -0.2414 -0.7697
  624TIP3    H123363   6.745   0.489   2.595  0.0850 -0.5908 -0.4130
  624TIP3    H223364   6.674   0.356   2.586 -1.1247  0.0841 -1.0929
  625TIP3   OH223365   4.762   6.616   0.713  0.5132  0.1294  0.2750
  625TIP3    H123366   4.826   6.601   0.643 -0.0188 -3.9281  0.4200
  625TIP3    H223367   4.815   6.624   0.793  0.9730  0.2569 -0.0419
  626TIP3   OH223368   5.191   3.878  10.531  0.3706  0.1026 -0.0201
  626TIP3    H123369   5.182   3.783  10.518 -2.2732  0.2059  0.6059
  626TIP3    H223370   5.135   3.898  10.605 -1.5194  2.5747 -1.9446
  627TIP3   OH223371   2.784   1.026  12.956 -0.5458  0.5417 -0.1454
  627TIP3    H123372   2.842   1.091  12.997  0.4592 -0.7324  0.5046
  627TIP3    H223373   2.843   0.971  12.904 -0.8632 -1.8410  1.8664
  628TIP3   OH223374   0.496   3.981  12.885  0.6582 -0.1984 -1.0112
  628TIP3    H123375   0.553   3.937  12.948  1.8978  1.7561 -0.6735
  628TIP3    H223376   0.482   3.917  12.816  0.0128 -2.0888  0.7940
  629TIP3   OH223377   3.837   1.575   3.176  1.0580  0.5806 -0.3161
  629TIP3    H123378   3.806   1.621   3.097  0.3729  0.2793 -0.2266
  629TIP3    H223379   3.763   1.521   3.203  1.6569 -0.1376 -0.0817
  630TIP3   OH223380   5.650   0.593   0.966  0.3569 -0.1060  0.6740
  630TIP3    H123381   5.693   0.639   0.894 -0.3113  0.4498  0.6167
  630TIP3    H223382   5.581   0.653   0.995 -1.2488 -1.4852 -0.1019
  631TIP3   OH223383   1.782   6.781   0.563  0.4550 -0.6504  0.4757
  631TIP3    H123384   1.708   6.758   0.618  0.6954 -1.2468  0.5531
  631TIP3    H223385   1.778   6.718   0.490  1.5689 -1.4566  1.0914
  632TIP3   OH223386   1.581   0.120  13.631 -0.7432  0.0953 -0.1746
  632TIP3    H123387   1.609   0.113  13.539  1.2638  0.0069  0.4051
  632TIP3    H223388   1.574   0.029  13.660 -1.1712  0.1288 -0.1660
  633TIP3   OH223389   4.398   2.370   1.850 -0.0069 -0.2336  0.1442
  633TIP3    H123390   4.408   2.424   1.929  0.2150  1.1837 -0.8095
  633TIP3    H223391   4.431   2.284   1.875  2.0229  0.7351  0.9933
  634TIP3   OH223392   0.552   5.307   4.041  0.0555 -0.1177 -0.2928
  634TIP3    H123393   0.572   5.342   3.954 -1.1819  2.2327  0.3009
  634TIP3    H223394   0.570   5.379   4.101 -0.4289 -1.2490  1.2878
  635TIP3   OH223395   2.100   3.649  14.643  0.5140  0.2833 -0.4241
  635TIP3    H123396   2.184   3.615  14.673  0.0184 -1.6125 -1.0205
  635TIP3    H223397   2.036   3.585  14.674 -0.7067  1.6000 -0.1219
  636TIP3   OH223398   1.298   6.809   1.315 -0.6500 -0.0648 -0.9106
  636TIP3    H123399   1.383   6.839   1.347 -0.3939 -1.2922 -0.4000
  636TIP3    H223400   1.317   6.774   1.228 -0.6598 -0.1803 -0.8664
  637TIP3   OH223401   3.159   4.918   4.959 -0.2691 -0.6288  0.0422
  637TIP3    H123402   3.131   5.001   4.997 -1.1250 -0.7336 -0.3403
  637TIP3    H223403   3.198   4.869   5.032 -3.0275 -1.3654  1.1485
  638TIP3   OH223404   3.191   5.434  16.892 -0.2637  0.6429  0.2121
  638TIP3    H123405   3.242   5.513  16.875 -0.8133  1.1651  0.9450
  638TIP3    H223406   3.132   5.428  16.817  0.1837  0.5892 -0.1420
  639TIP3   OH223407   2.662   4.641   2.116 -0.4811  0.1320  0.1495
  639TIP3    H123408   2.727   4.708   2.098 -0.6243  0.1969 -0.1346
  639TIP3    H223409   2.654   4.640   2.211  0.9798 -0.8852  0.2800
  640TIP3   OH223410   0.555   3.560   0.240  0.3322  0.0727 -0.2437
  640TIP3    H123411   0.531   3.470   0.263  0.0073  0.4527  0.9736
  640TIP3    H223412   0.502   3.579   0.162  1.0896 -1.0856 -1.0752
  641TIP3   OH223413   5.632   3.015   0.319 -0.3914  1.0203  0.0453
  641TIP3    H123414   5.576   3.068   0.375  0.1960  2.5314 -0.7405
  641TIP3    H223415   5.672   2.951   0.378 -3.0953 -0.2976  0.5924
  642TIP3   OH223416   4.460   0.240   6.661  0.0563  0.0563  0.1702
  642TIP3    H123417   4.479   0.169   6.721 -1.3049 -0.8154 -0.3823
  642TIP3    H223418   4.541   0.290   6.655  0.3977 -0.2051  2.2142
  643TIP3   OH223419   2.957   0.871   2.291 -0.1249 -0.3418 -0.3141
  643TIP3    H123420   2.923   0.936   2.229 -1.7660 -2.5148 -1.8555
  643TIP3    H223421   3.033   0.834   2.248 -0.7250 -1.2210 -0.6333
  644TIP3   OH223422   2.342   4.319  16.939 -0.0083  0.4927 -0.1710
  644TIP3    H123423   2.259   4.280  16.968  0.2284  0.5420  0.5983
  644TIP3    H223424   2.317   4.403  16.901 -0.3178  0.4867  0.0122
  645TIP3   OH223425   0.919   4.085   0.610  0.1420 -0.1712  0.1003
  645TIP3    H123426   0.986   4.031   0.653  0.2292 -0.3953 -0.3131
  645TIP3    H223427   0.968   4.136   0.546 -0.0816 -0.3321 -0.1998
  646TIP3   OH223428   5.967   1.172  15.569  0.4204 -0.5966  0.6752
  646TIP3    H123429   5.934   1.087  15.598  1.7325 -1.0758  0.8266
  646TIP3    H223430   5.998   1.157  15.479 -1.6078  0.3501 -0.2481
  647TIP3   OH223431   6.279   6.763   5.949  0.0817 -0.3616 -0.0881
  647TIP3    H123432   6.261   6.684   6.001 -1.2444 -0.9672 -1.4227
  647TIP3    H223433   6.229   6.832   5.993  0.0623 -0.5674  0.2224
  648TIP3   OH223434   0.070   0.954  14.869  0.0453 -0.0967 -0.3264
  648TIP3    H123435   0.099   0.880  14.923  1.0441 -0.0340 -0.7554
  648TIP3    H223436  -0.008   0.921  14.824 -0.0168 -0.5937  0.1334
  649TIP3   OH223437   5.442   5.500  13.807 -0.6178  0.1270 -0.0290
  649TIP3    H123438   5.403   5.584  13.782 -1.6994  0.3483  2.2103
  649TIP3    H223439   5.435   5.446  13.728 -0.5868  1.8639 -1.2853
  650TIP3   OH223440   2.745   1.264   3.862 -0.3781  0.1971 -0.1100
  650TIP3    H123441   2.759   1.205   3.788  1.0724  1.6185 -1.0145
  650TIP3    H223442   2.806   1.336   3.848 -1.1764  1.2872  1.6545
  651TIP3   OH223443   4.422   2.876  16.619 -0.2936  0.3628  0.1960
  651TIP3    H123444   4.517   2.874  16.610 -0.2211 -1.6484  0.9639
  651TIP3    H223445   4.399   2.791  16.658 -2.1865  1.5725  1.9746
  652TIP3   OH223446   5.780   5.673  14.645 -0.1605  0.3562  0.0737
  652TIP3    H123447   5.693   5.633  14.650 -0.5289  1.0487 -0.6411
  652TIP3    H223448   5.779   5.741  14.713 -0.7176  1.3611 -0.9177
  653TIP3   OH223449   0.195   6.595   2.007 -0.6009  0.5786 -0.2166
  653TIP3    H123450   0.238   6.525   2.056  1.6500  2.3081  0.4855
  653TIP3    H223451   0.225   6.583   1.917 -0.0177  0.7487 -0.0518
  654TIP3   OH223452   2.651   5.708   4.703  0.1357 -0.7453  0.5573
  654TIP3    H123453   2.722   5.662   4.748  1.8571 -0.5858 -1.8232
  654TIP3    H223454   2.650   5.795   4.742 -1.5437 -1.9140  3.4157
  655TIP3   OH223455   2.667   0.268   3.409 -0.0009 -0.7026  0.1260
  655TIP3    H123456   2.613   0.265   3.488 -0.0141  1.3996  0.2564
  655TIP3    H223457   2.613   0.314   3.345  0.0715 -2.2530 -1.1136
  656TIP3   OH223458   1.858   0.452   5.295  0.3934 -0.5716  0.0362
  656TIP3    H123459   1.909   0.510   5.239 -0.8022 -0.4648 -1.0173
  656TIP3    H223460   1.881   0.477   5.384  0.4347  1.0499 -0.3950
  657TIP3   OH223461   2.288   6.034  16.736  0.1299 -0.8610  0.5742
  657TIP3    H123462   2.306   6.105  16.675 -1.8311 -1.7838 -1.2078
  657TIP3    H223463   2.369   6.024  16.787  1.2171  1.1063 -0.6627
  658TIP3   OH223464   0.057   5.963   4.668 -0.3561  0.6518  0.6597
  658TIP3    H123465   0.091   5.909   4.597  0.6625  0.8954  0.9478
  658TIP3    H223466   0.033   5.901   4.737 -0.1020  0.5007  0.6131
  659TIP3   OH223467   3.179   0.755  16.434  0.4504  0.3072 -0.0937
  659TIP3    H123468   3.209   0.837  16.395  0.0963  0.7421  0.5378
  659TIP3    H223469   3.212   0.687  16.375  2.1365  0.8067  0.2335
  660TIP3   OH223470   1.217   5.248   1.374 -0.3512 -0.3785  0.2817
  660TIP3    H123471   1.273   5.224   1.300  2.0381  0.5801  1.6371
  660TIP3    H223472   1.152   5.178   1.379  2.2435 -3.0333  0.0811
  661TIP3   OH223473   3.793   2.716   4.586  0.8963 -0.0484 -0.2211
  661TIP3    H123474   3.864   2.780   4.595  1.1322 -0.3419  0.0318
  661TIP3    H223475   3.831   2.634   4.617 -0.0014  0.0797  1.3348
  662TIP3   OH223476   4.540   4.299  15.809  0.2197 -0.5836 -0.4401
  662TIP3    H123477   4.526   4.236  15.739  1.3372 -0.6566 -0.6016
  662TIP3    H223478   4.616   4.266  15.857  0.3441  0.2281 -0.0584
  663TIP3   OH223479   1.922   5.980  16.732  0.7733  0.1914 -0.7300
  663TIP3    H123480   1.919   6.042  16.805  0.9634  1.3862 -1.7050
  663TIP3    H223481   1.974   5.908  16.765  3.1989  1.9101 -0.5259
  664TIP3   OH223482   5.250   3.848   0.923 -0.3453  0.7246  0.2556
  664TIP3    H123483   5.193   3.896   0.984  0.6697  2.0666  0.1786
  664TIP3    H223484   5.337   3.854   0.961  0.0421  0.1931 -0.5184
  665TIP3   OH223485   2.896   2.837  11.608 -0.3790  0.0134 -0.5417
  665TIP3    H123486   2.893   2.750  11.569 -1.0756  0.7212 -2.1661
  665TIP3    H223487   2.805   2.856  11.632 -0.0773 -0.0871  0.7277
  666TIP3   OH223488   4.549   0.654  11.790  0.3955 -0.1597 -0.0374
  666TIP3    H123489   4.572   0.743  11.765  1.9622 -0.4449  0.3001
  666TIP3    H223490   4.624   0.601  11.763  0.7349 -0.9503  2.2081
  667TIP3   OH223491   3.924   2.147   2.956  0.7142 -0.1549 -0.7721
  667TIP3    H123492   3.960   2.059   2.941  0.6057 -0.1543 -1.0214
  667TIP3    H223493   3.949   2.197   2.879  0.2165 -0.1381 -0.9250
  668TIP3   OH223494   5.172   4.490   3.752 -0.9390  0.0837 -0.0652
  668TIP3    H123495   5.098   4.525   3.703 -0.5060  1.6404  0.3177
  668TIP3    H223496   5.208   4.422   3.696 -0.1941  2.0856 -2.1845
  669TIP3   OH223497   1.595   5.205   6.120  0.6094 -0.2966  0.1394
  669TIP3    H123498   1.654   5.130   6.132  1.1277  0.3757  2.4276
  669TIP3    H223499   1.623   5.268   6.187  0.2667  2.0279 -1.7574
  670TIP3   OH223500   1.405   2.698   4.661  0.3449 -0.2968  0.8959
  670TIP3    H123501   1.487   2.682   4.707  0.5122  1.8076  1.4721
  670TIP3    H223502   1.338   2.695   4.730  0.1536 -0.4422  0.7054
  671TIP3   OH223503   6.223   1.940   0.538  0.0082 -0.2109 -0.5170
  671TIP3    H123504   6.255   2.003   0.473  2.8982  0.4500  1.3528
  671TIP3    H223505   6.170   1.993   0.597  0.3984 -0.0214 -0.3293
  672TIP3   OH223506   6.544   4.291  13.976  0.7553  0.5185 -0.5531
  672TIP3    H123507   6.627   4.291  13.928  0.9794 -2.1467 -0.3131
  672TIP3    H223508   6.478   4.292  13.907  1.0100  1.0788 -0.7948
  673TIP3   OH223509   4.641   4.881   2.669  0.0626 -0.0023  0.5080
  673TIP3    H123510   4.691   4.922   2.598  1.8164 -1.0650  1.0899
  673TIP3    H223511   4.577   4.825   2.624 -0.2484  0.9050 -0.2314
  674TIP3   OH223512   1.806   2.943  14.526 -0.1357  0.2064 -0.5700
  674TIP3    H123513   1.796   2.995  14.606 -0.6840 -1.8230  0.7473
  674TIP3    H223514   1.882   2.982  14.481  1.1153  0.5111  1.6729
  675TIP3   OH223515   4.382   1.348   0.425 -0.7718 -0.5702  0.5806
  675TIP3    H123516   4.349   1.267   0.465  2.6629 -2.0470  0.7233
  675TIP3    H223517   4.461   1.369   0.474  1.0659  0.1921 -2.4657
  676TIP3   OH223518   5.727   3.320  13.438  0.0097  0.2358  0.0327
  676TIP3    H123519   5.658   3.281  13.492  0.9405 -0.9672  0.4043
  676TIP3    H223520   5.702   3.412  13.430 -1.1035  0.0464  0.9933
  677TIP3   OH223521   5.255   3.853  11.714 -0.6798  0.7949 -0.4095
  677TIP3    H123522   5.231   3.934  11.759  3.2737  0.9095  1.9423
  677TIP3    H223523   5.313   3.882  11.643 -0.9327  0.1449 -0.8879
  678TIP3   OH223524   6.342   1.240   0.881  0.2874  0.5085  0.4051
  678TIP3    H123525   6.317   1.307   0.945 -0.2116 -1.1240  2.0061
  678TIP3    H223526   6.259   1.202   0.852  0.5359 -2.1439  2.6551
  679TIP3   OH223527   1.753   5.083  11.079 -0.2827 -0.0700 -0.1800
  679TIP3    H123528   1.766   5.129  10.996 -1.1339 -0.3043 -0.4539
  679TIP3    H223529   1.739   5.152  11.143  1.9423  0.1909  0.0930
  680TIP3   OH223530   2.079   2.651  13.495 -0.1529 -0.3757 -0.3811
  680TIP3    H123531   2.080   2.742  13.525  1.1837 -0.4512 -0.0958
  680TIP3    H223532   2.028   2.652  13.414 -1.0105  0.4385  0.1598
  681TIP3   OH223533   0.530   4.614  13.817  0.6842 -0.4737 -0.1226
  681TIP3    H123534   0.508   4.592  13.907  0.4459 -1.9866 -0.5248
  681TIP3    H223535   0.614   4.660  13.824  0.3454  0.0103  0.9157
  682TIP3   OH223536   0.467   3.080   1.429 -0.5993 -0.4334 -0.0818
  682TIP3    H123537   0.488   3.164   1.387 -0.7720 -0.0067  0.6569
  682TIP3    H223538   0.490   3.014   1.364  2.0936  0.0398  0.2443
  683TIP3   OH223539   2.365   0.147  13.022  0.3307  0.4746  0.0118
  683TIP3    H123540   2.427   0.194  13.077 -0.5502  0.0256  1.4373
  683TIP3    H223541   2.359   0.199  12.942  1.4511  1.2831  0.4355
  684TIP3   OH223542   6.501   5.710  15.540 -0.0022 -0.4809  0.2612
  684TIP3    H123543   6.561   5.638  15.561  0.0186  0.1402  2.5913
  684TIP3    H223544   6.555   5.772  15.490  0.6342 -0.9965  0.3032
  685TIP3   OH223545   4.864   3.026  14.700 -0.2329  0.2398  0.1608
  685TIP3    H123546   4.913   3.010  14.619  0.6096 -0.6952  0.8335
  685TIP3    H223547   4.923   2.998  14.770 -1.1513  0.5300  1.0795
  686TIP3   OH223548   0.465   6.057   0.456 -0.4837  0.8832 -0.7847
  686TIP3    H123549   0.520   6.017   0.389  0.5572 -1.6752  1.4261
  686TIP3    H223550   0.379   6.065   0.414  0.0226 -0.9916 -2.3404
  687TIP3   OH223551   1.473   1.392   1.754 -0.1281 -0.2172 -1.5074
  687TIP3    H123552   1.445   1.305   1.726 -1.3998 -0.5724  0.6986
  687TIP3    H223553   1.402   1.425   1.808  0.8575  1.7119 -1.2869
  688TIP3   OH223554   6.538   0.747  14.039 -0.4007  0.2430  0.0544
  688TIP3    H123555   6.589   0.780  14.113 -0.4447 -0.2523  0.3135
  688TIP3    H223556   6.587   0.775  13.961 -1.3834  2.4842  0.1739
  689TIP3   OH223557   4.373   6.408  16.564 -0.0468  0.4527  0.0190
  689TIP3    H123558   4.395   6.325  16.604 -2.9866  0.3904  1.8275
  689TIP3    H223559   4.450   6.432  16.512  2.1314 -1.7882  1.9915
  690TIP3   OH223560   3.662   0.193  12.023 -0.5047  0.2756 -0.2703
  690TIP3    H123561   3.729   0.262  12.025  2.1428 -2.1114 -0.4393
  690TIP3    H223562   3.625   0.198  11.935  1.1736  0.1969 -1.0311
  691TIP3   OH223563   6.308   4.367  11.968 -0.5113 -0.1370  0.5490
  691TIP3    H123564   6.312   4.272  11.980 -0.7565 -0.1863  0.2539
  691TIP3    H223565   6.228   4.382  11.919 -0.0452  0.1478 -0.1385
  692TIP3   OH223566   6.281   4.487  10.862  0.1502  0.3781  0.2194
  692TIP3    H123567   6.338   4.462  10.788 -0.2293 -0.9103  0.3422
  692TIP3    H223568   6.320   4.568  10.895  1.1827  0.2006 -0.4889
  693TIP3   OH223569   4.458   0.762  13.868 -0.1027 -0.8139  0.6506
  693TIP3    H123570   4.552   0.779  13.865 -0.2981  0.2228 -0.9107
  693TIP3    H223571   4.451   0.672  13.900  1.3277 -0.4273  2.2484
  694TIP3   OH223572   6.108   2.710   3.960 -0.1141 -0.5459 -0.0888
  694TIP3    H123573   6.149   2.640   4.011  0.5044  0.4178  0.7952
  694TIP3    H223574   6.154   2.708   3.876 -0.7987 -1.8297 -0.4609
  695TIP3   OH223575   3.026   2.306  16.506 -0.1103 -0.2274 -0.3684
  695TIP3    H123576   3.005   2.228  16.556 -1.8273  0.8829  0.7525
  695TIP3    H223577   3.019   2.278  16.414 -1.2448 -1.2829  0.0106
  696TIP3   OH223578   1.915   1.184  12.029  0.2207  0.0956  0.6325
  696TIP3    H123579   1.856   1.254  12.001  0.4254 -0.4473 -1.2861
  696TIP3    H223580   1.857   1.117  12.065 -0.2140  0.1347  0.0165
  697TIP3   OH223581   0.526   5.793   2.735  0.5801 -0.1342 -0.1271
  697TIP3    H123582   0.587   5.814   2.664  0.4011  2.2401  0.3299
  697TIP3    H223583   0.444   5.771   2.690  0.6263  0.7887 -0.6913
  698TIP3   OH223584   5.803   1.553   1.284  0.4702 -0.3619 -0.2507
  698TIP3    H123585   5.801   1.464   1.249 -0.9266 -1.1113  1.6188
  698TIP3    H223586   5.886   1.559   1.330  0.0073 -1.1676  0.7169
  699TIP3   OH223587   2.769   5.217   6.079 -0.0260 -0.0196 -0.2996
  699TIP3    H123588   2.778   5.164   6.158  2.6231  0.3265 -0.2691
  699TIP3    H223589   2.712   5.289   6.104 -0.6171 -0.8276  0.7565
  700TIP3   OH223590   4.302   3.607  13.750  1.1413  0.4185 -0.6942
  700TIP3    H123591   4.314   3.636  13.841  0.2800 -1.9130  0.2524
  700TIP3    H223592   4.386   3.568  13.726  0.5560 -1.4369  0.1362
  701TIP3   OH223593   5.339   3.000  13.165  0.0599 -0.0383 -0.0996
  701TIP3    H123594   5.316   2.910  13.186 -0.4763  0.6479  2.7293
  701TIP3    H223595   5.310   3.013  13.075 -3.6955 -1.4960  0.7348
  702TIP3   OH223596   2.059   4.622  11.564  0.0409 -0.8731  0.6475
  702TIP3    H123597   2.130   4.686  11.554 -0.5081 -0.3958 -0.3705
  702TIP3    H223598   1.992   4.668  11.614 -0.9252 -0.1272 -1.2360
  703TIP3   OH223599   0.642   0.399  13.691  0.0387  0.5727  0.1096
  703TIP3    H123600   0.549   0.415  13.706 -0.1444 -0.1843 -0.2063
  703TIP3    H223601   0.673   0.358  13.772 -0.1090 -0.0158 -0.1277
  704TIP3   OH223602   6.322   6.013  13.917 -0.1728  0.4023 -0.5392
  704TIP3    H123603   6.301   6.025  14.009  1.1871 -0.5751 -0.0721
  704TIP3    H223604   6.391   6.077  13.900  0.2358 -0.0614 -0.6294
  705TIP3   OH223605   1.583   6.717  13.730  0.7010 -0.0413 -0.0906
  705TIP3    H123606   1.568   6.629  13.696  0.4644  0.1105 -0.3854
  705TIP3    H223607   1.522   6.727  13.802  0.5422 -0.0230 -0.2281
  706TIP3   OH223608   5.237   4.996   0.349 -0.2216  0.3891  0.0797
  706TIP3    H123609   5.271   4.911   0.376 -1.2020  0.4938  1.8097
  706TIP3    H223610   5.290   5.060   0.397  0.1697  0.7557 -0.8126
  707TIP3   OH223611   0.182   4.525   1.850 -0.6111  0.0130  0.0131
  707TIP3    H123612   0.139   4.596   1.802  1.8286  0.0016 -2.4507
  707TIP3    H223613   0.257   4.567   1.892 -0.5368 -0.7149  0.6370
  708TIP3   OH223614   1.102   6.704   3.083 -0.1417  0.5585 -0.0868
  708TIP3    H123615   1.043   6.701   3.008  0.4102  0.6807 -0.5375
  708TIP3    H223616   1.066   6.772   3.139  0.4012  1.7061 -1.0874
  709TIP3   OH223617   0.066   0.483   0.299  0.6410 -0.0697 -0.4447
  709TIP3    H123618   0.044   0.569   0.335  0.9302  0.4476 -1.4698
  709TIP3    H223619   0.070   0.496   0.204 -0.3748 -1.4495 -0.7232
  710TIP3   OH223620   6.420   4.258  15.795 -0.2723 -0.4707  0.4646
  710TIP3    H123621   6.479   4.306  15.737  0.7620 -1.5372  0.5927
  710TIP3    H223622   6.454   4.277  15.883 -2.9523  2.6963  1.0215
  711TIP3   OH223623   5.692   2.092  17.122 -0.0323 -0.1342  0.7253
  711TIP3    H123624   5.633   2.023  17.092  0.9013 -0.2444 -0.9596
  711TIP3    H223625   5.751   2.108  17.048  1.3194  0.7776  1.9331
  712TIP3   OH223626   0.237   4.255   3.522  0.5477 -0.1116  0.1057
  712TIP3    H123627   0.252   4.334   3.574 -0.5059  0.3913 -0.3323
  712TIP3    H223628   0.242   4.284   3.431  2.4621 -1.0063 -0.1215
  713TIP3   OH223629   0.316   5.929   3.861 -0.1364 -0.2828  0.1228
  713TIP3    H123630   0.400   5.973   3.855 -0.3661  0.6477  2.5131
  713TIP3    H223631   0.252   5.995   3.835 -0.2524 -0.3456  0.2461
  714TIP3   OH223632   0.457   2.543  16.686 -0.0722  0.1559  0.5599
  714TIP3    H123633   0.418   2.474  16.741 -0.1552  1.2855  1.9926
  714TIP3    H223634   0.543   2.559  16.724  0.8911 -0.6958 -1.1627
  715TIP3   OH223635   3.044   6.678  11.719  0.1309  0.1073  0.4319
  715TIP3    H123636   3.093   6.602  11.689  0.9094  0.8985 -0.3629
  715TIP3    H223637   2.993   6.646  11.793  0.4517 -1.1774  0.1232
  716TIP3   OH223638   6.591   1.085   5.599 -0.1389 -0.5701 -0.6355
  716TIP3    H123639   6.682   1.057   5.608 -0.7497 -3.2887 -2.0196
  716TIP3    H223640   6.574   1.136   5.679  2.3364 -0.6192  0.0147
  717TIP3   OH223641   2.880   2.967   4.724  0.4348  0.4230  0.3856
  717TIP3    H123642   2.942   2.938   4.791  0.5518  0.8014  0.4467
  717TIP3    H223643   2.851   3.053   4.754  1.0073  0.8964 -0.3954
  718TIP3   OH223644   0.923   6.465   1.419 -0.0941 -0.7944 -0.0350
  718TIP3    H123645   0.961   6.527   1.481  1.0238  0.0206 -1.4524
  718TIP3    H223646   0.883   6.520   1.352 -0.3980 -1.6254 -0.5506
  719TIP3   OH223647   3.319   2.956  15.456 -0.0778  0.3856  0.3016
  719TIP3    H123648   3.398   2.970  15.405  0.2381  2.0735  1.1774
  719TIP3    H223649   3.340   2.885  15.516  0.6969  0.6644  0.3634
  720TIP3   OH223650   4.462   2.893  14.065 -0.1240  0.4427 -0.3816
  720TIP3    H123651   4.426   2.917  14.150 -0.0260  0.5170 -0.3608
  720TIP3    H223652   4.385   2.882  14.009 -0.2356 -0.5633 -0.0385
  721TIP3   OH223653   3.061   2.742   3.973  0.4503  0.3526  0.4693
  721TIP3    H123654   3.052   2.649   3.953  1.5251  0.2110  0.5380
  721TIP3    H223655   2.991   2.760   4.036 -0.2943 -0.1987 -0.1843
  722TIP3   OH223656   3.997   6.518  14.447  0.3360 -0.4730 -0.6625
  722TIP3    H123657   4.071   6.572  14.419  1.1857 -1.2549  0.0227
  722TIP3    H223658   3.932   6.528  14.376  0.9468  0.4914 -1.1044
  723TIP3   OH223659   0.285   2.566  13.434  0.3596 -0.0915  0.3725
  723TIP3    H123660   0.366   2.608  13.403 -1.0601  1.6359 -1.2585
  723TIP3    H223661   0.283   2.584  13.528  0.7309  1.9731  0.0342
  724TIP3   OH223662   1.154   1.674  13.401  0.3193 -0.4600  0.0505
  724TIP3    H123663   1.166   1.769  13.394  0.5350 -0.5125 -0.2878
  724TIP3    H223664   1.195   1.652  13.485 -0.5535 -0.1229  0.5758
  725TIP3   OH223665   2.234   3.684  14.910 -0.2544 -0.1224 -0.6932
  725TIP3    H123666   2.233   3.714  15.001 -2.3652 -0.5992 -0.5239
  725TIP3    H223667   2.147   3.705  14.876 -0.0023 -1.2739 -2.1616
  726TIP3   OH223668   2.436   1.241  13.359  0.2068 -0.3843 -0.3098
  726TIP3    H123669   2.350   1.255  13.400  0.2478  0.6652 -0.5464
  726TIP3    H223670   2.445   1.313  13.297  0.9201 -0.9468 -0.8799
  727TIP3   OH223671   3.800   4.181  14.734  0.8925  0.5333 -1.0522
  727TIP3    H123672   3.842   4.096  14.722  1.9723  0.9647 -0.5669
  727TIP3    H223673   3.732   4.165  14.799  0.4879 -0.1314 -1.6259
  728TIP3   OH223674   1.224   0.931   1.111  0.5334 -0.0434 -0.3627
  728TIP3    H123675   1.207   0.909   1.203  2.1005  0.7965  0.1554
  728TIP3    H223676   1.142   0.969   1.080  0.9791  2.9719  1.7341
  729TIP3   OH223677   6.254   3.346  14.476  0.5292 -0.1022  0.2302
  729TIP3    H123678   6.237   3.284  14.405 -0.4581  0.2879  0.0990
  729TIP3    H223679   6.188   3.325  14.542 -1.1953  2.0778 -0.6814
  730TIP3   OH223680   2.925   6.234   3.141  0.4268 -0.7017  0.4957
  730TIP3    H123681   2.970   6.156   3.109 -0.2201 -0.3911 -1.3040
  730TIP3    H223682   2.985   6.306   3.124  0.9881 -0.7540  2.0800
  731TIP3   OH223683   1.914   6.296  16.458  0.0837  0.0774  0.0661
  731TIP3    H123684   1.968   6.256  16.525  1.2133 -0.1095 -0.9314
  731TIP3    H223685   1.834   6.321  16.504  0.8074 -0.0781  1.4591
  732TIP3   OH223686   0.324   4.675  12.560 -0.1250 -0.1276  0.1642
  732TIP3    H123687   0.331   4.657  12.654 -0.2672  0.4369  0.2876
  732TIP3    H223688   0.251   4.620  12.531  0.2225 -0.6595  0.2864
  733TIP3   OH223689   2.946   4.458  12.034  0.0489 -0.0043 -0.3836
  733TIP3    H123690   2.871   4.517  12.030 -0.1345 -0.2443 -0.5140
  733TIP3    H223691   3.020   4.515  12.053  0.0675  0.4528 -1.6931
  734TIP3   OH223692   0.251   1.521  16.798  0.2038 -0.0898  0.0974
  734TIP3    H123693   0.242   1.559  16.885  0.6330 -0.4231  0.2936
  734TIP3    H223694   0.344   1.499  16.791  0.1164 -0.3391 -0.3259
  735TIP3   OH223695   2.043   0.075   3.136 -0.0020  0.0735  0.2197
  735TIP3    H123696   2.057   0.012   3.065  0.6319 -0.9198  1.1957
  735TIP3    H223697   1.961   0.046   3.177 -0.1848  0.4369  0.1155
  736TIP3   OH223698   4.903   2.099   4.649  0.1086  0.2641  0.4713
  736TIP3    H123699   4.880   2.051   4.728  1.2526 -0.7160  0.2448
  736TIP3    H223700   4.956   2.172   4.681  0.0967  0.1957  0.6511
  737TIP3   OH223701   4.641   6.269   5.825  0.4543  0.2060  0.3576
  737TIP3    H123702   4.712   6.332   5.810 -1.0571  1.5704 -1.6474
  737TIP3    H223703   4.571   6.297   5.765 -0.8843 -2.4940  0.5075
  738TIP3   OH223704   6.467   2.665   0.997  0.1852 -0.2712 -0.1335
  738TIP3    H123705   6.390   2.717   1.023 -0.6971 -0.0739 -2.8382
  738TIP3    H223706   6.540   2.705   1.044 -1.1652  0.3487  1.5331
  739TIP3   OH223707   2.929   2.682  13.791  0.1297 -0.4728  0.1267
  739TIP3    H123708   2.955   2.771  13.765 -1.3950  0.3716  1.3180
  739TIP3    H223709   2.974   2.625  13.729  0.9809  1.1409 -0.8109
  740TIP3   OH223710   6.549   1.192   1.310  0.0714  0.2134 -0.3658
  740TIP3    H123711   6.607   1.118   1.288  0.4367 -0.3392  2.2177
  740TIP3    H223712   6.606   1.254   1.354 -0.6943  1.1133 -0.6276
  741TIP3   OH223713   4.146   3.661   5.814  1.0401 -0.0190  0.6009
  741TIP3    H123714   4.189   3.693   5.734  0.1369  0.2976  0.2250
  741TIP3    H223715   4.091   3.588   5.784  0.6500  0.1412  0.9156
  742TIP3   OH223716   6.144   4.540   1.014 -0.1141  0.4157 -0.3071
  742TIP3    H123717   6.194   4.462   0.989  1.9817  2.3566 -2.8360
  742TIP3    H223718   6.054   4.519   0.991  0.4244 -1.1919 -1.1611
  743TIP3   OH223719   0.104   4.294   1.197  0.3205 -0.0265  0.0115
  743TIP3    H123720   0.109   4.296   1.292  0.1682 -0.6073  0.0412
  743TIP3    H223721   0.167   4.227   1.171 -1.2046 -1.4951 -0.1286
  744TIP3   OH223722   3.778   4.134   3.389  0.6545  0.0980 -0.2544
  744TIP3    H123723   3.734   4.054   3.360 -0.1402  0.2382  0.5158
  744TIP3    H223724   3.725   4.165   3.462 -0.0501  2.2688 -1.5939
  745TIP3   OH223725   5.937   2.389  14.812 -0.1798 -0.3316 -0.3729
  745TIP3    H123726   5.872   2.370  14.745 -1.6178  0.7295  0.6726
  745TIP3    H223727   6.020   2.358  14.774 -0.8430  0.6653 -2.8506
  746TIP3   OH223728   6.333   2.347   1.183 -0.2990  0.2029  0.3503
  746TIP3    H123729   6.247   2.317   1.153 -0.7485  1.7234  0.0361
  746TIP3    H223730   6.325   2.442   1.189  0.5054  0.1973  3.0023
  747TIP3   OH223731   1.777   1.220  14.290 -0.8402 -0.3937 -0.3604
  747TIP3    H123732   1.863   1.207  14.250  0.1214 -1.2635  1.8007
  747TIP3    H223733   1.728   1.141  14.268 -0.9743 -0.0604 -1.2883
  748TIP3   OH223734   0.235   2.121   3.442 -0.0103 -0.2387 -0.2476
  748TIP3    H123735   0.154   2.076   3.467 -0.5274  0.8271  0.0824
  748TIP3    H223736   0.296   2.101   3.513 -0.5429  0.3567  0.3972
  749TIP3   OH223737   5.686   4.247   2.736  0.2922 -0.6972 -0.5131
  749TIP3    H123738   5.591   4.256   2.738  0.3258 -0.2070 -0.8075
  749TIP3    H223739   5.718   4.335   2.718  0.8136 -0.8239 -0.2331
  750TIP3   OH223740   1.268   4.258   2.392 -0.1641 -0.3109  0.0588
  750TIP3    H123741   1.177   4.268   2.420 -0.3086 -0.7540 -0.2499
  750TIP3    H223742   1.314   4.229   2.471  0.0171  1.4363  0.6280
  751TIP3   OH223743   6.747   5.410  14.080  0.0587  0.0792  0.2622
  751TIP3    H123744   6.774   5.319  14.095  0.2204  0.1809  0.6034
  751TIP3    H223745   6.815   5.462  14.123 -0.4708  0.3476  0.7925
  752TIP3   OH223746   6.512   5.535  15.889  0.2743  0.2793  0.0332
  752TIP3    H123747   6.519   5.507  15.981  2.3384 -0.7711 -0.3924
  752TIP3    H223748   6.455   5.469  15.849  2.4380 -1.6089 -0.2088
  753TIP3   OH223749   5.539   0.819  15.965 -1.1147 -0.0773  0.3689
  753TIP3    H123750   5.633   0.833  15.966 -1.0909  0.6863 -2.7731
  753TIP3    H223751   5.506   0.873  16.037  0.6700  1.3448  0.1901
  754TIP3   OH223752   2.247   0.989   3.087 -0.2940 -0.6758  0.0489
  754TIP3    H123753   2.303   0.930   3.136 -0.9380 -1.1348  0.2430
  754TIP3    H223754   2.294   1.004   3.005 -0.0831 -1.3820  0.0381
  755TIP3   OH223755   2.963   4.290  14.895 -0.0404  0.2090  0.0369
  755TIP3    H123756   2.878   4.322  14.864 -0.0776  0.9753  0.9053
  755TIP3    H223757   2.959   4.195  14.881 -0.3775  0.4296 -1.4892
  756TIP3   OH223758   3.962   3.152  17.018  0.4434 -0.0302 -0.3246
  756TIP3    H123759   4.057   3.156  17.006  0.7255  0.0752  1.6558
  756TIP3    H223760   3.940   3.060  17.006  0.5599  0.1538 -2.1671
  757TIP3   OH223761   1.038   3.951  13.706 -0.3848 -0.0963 -0.2687
  757TIP3    H123762   0.989   3.871  13.719 -0.6655  0.1923  0.5176
  757TIP3    H223763   0.992   3.997  13.635 -0.7924 -0.1900 -0.0677
  758TIP3   OH223764   0.688   4.438  16.169 -0.0249  0.0552 -0.0291
  758TIP3    H123765   0.753   4.436  16.099 -0.9374  1.0179 -0.9359
  758TIP3    H223766   0.622   4.500  16.139 -0.8353 -0.0972  1.3465
  759TIP3   OH223767   3.612   4.766   4.582 -0.2162  0.0493  0.3669
  759TIP3    H123768   3.706   4.770   4.567 -0.1464 -2.8044 -0.4912
  759TIP3    H223769   3.575   4.834   4.525  1.3178  2.0703  1.6397
  760TIP3   OH223770   6.406   0.593  13.316 -0.4385 -0.0232 -0.0006
  760TIP3    H123771   6.374   0.507  13.290 -1.3738  0.6055 -1.0301
  760TIP3    H223772   6.327   0.644  13.333  0.0482  1.0278 -0.7533
  761TIP3   OH223773   4.704   5.500   6.520  0.3019  0.4747  0.4630
  761TIP3    H123774   4.640   5.429   6.522  1.4296 -0.5947 -0.2989
  761TIP3    H223775   4.789   5.456   6.526  1.0093  1.8076  0.6149
  762TIP3   OH223776   5.113   6.033   2.773  0.5756 -0.5666 -0.6318
  762TIP3    H123777   5.059   6.111   2.783 -0.3746 -1.4160  1.4499
  762TIP3    H223778   5.101   6.007   2.682 -1.7946 -0.1649 -0.4980
  763TIP3   OH223779   1.553   0.153  10.760  0.3160 -0.5130  0.1712
  763TIP3    H123780   1.579   0.131  10.849  2.2150 -2.1813 -0.7238
  763TIP3    H223781   1.629   0.198  10.723  0.1135 -1.1363 -1.0579
  764TIP3   OH223782   0.619   6.683   2.448  0.3265 -0.2663 -0.8590
  764TIP3    H123783   0.697   6.712   2.495 -0.0865 -0.6941  0.1131
  764TIP3    H223784   0.570   6.631   2.512 -1.6450  1.4493 -0.8850
  765TIP3   OH223785   1.978   5.788   5.447 -0.5111 -0.1999 -0.3563
  765TIP3    H123786   1.899   5.816   5.401 -0.8211  0.1331  0.3511
  765TIP3    H223787   1.947   5.762   5.534  0.1117 -0.4048 -0.1894
  766TIP3   OH223788   4.900   0.729  15.212  0.1845 -0.0738  0.1877
  766TIP3    H123789   4.967   0.691  15.269  0.4584 -0.2339 -0.2352
  766TIP3    H223790   4.869   0.655  15.160 -0.7745 -0.1343  0.8072
  767TIP3   OH223791   3.455   2.616  15.356 -0.2821  0.3874  0.1960
  767TIP3    H123792   3.492   2.704  15.357 -0.7976  0.6134  1.4858
  767TIP3    H223793   3.385   2.619  15.422 -1.8762 -0.3151 -1.3731
  768TIP3   OH223794   2.985   5.435  11.596  0.2081 -0.1209 -0.5209
  768TIP3    H123795   3.077   5.459  11.586 -0.0055  0.5844 -0.9445
  768TIP3    H223796   2.960   5.401  11.510 -0.1061  0.3645 -0.6267
  769TIP3   OH223797   6.673   5.254   4.376 -0.1452  0.0783  0.0263
  769TIP3    H123798   6.743   5.317   4.361 -0.6871  0.6715 -0.0399
  769TIP3    H223799   6.600   5.286   4.323 -0.0785 -1.2002 -0.8895
  770TIP3   OH223800   5.450   1.484  14.130 -0.3769  0.2574 -0.3322
  770TIP3    H123801   5.399   1.537  14.192 -0.2064 -2.0768  1.9744
  770TIP3    H223802   5.509   1.433  14.185  0.7241 -1.0329 -2.5642
  771TIP3   OH223803   0.435   2.075   3.645 -0.1078  0.3429 -0.2202
  771TIP3    H123804   0.509   2.032   3.602  0.8501  0.8824  0.8565
  771TIP3    H223805   0.405   2.012   3.711 -0.7160  0.0702 -0.7408
  772TIP3   OH223806   1.010   4.166   2.557  0.1222  0.4857 -0.5180
  772TIP3    H123807   1.060   4.165   2.639 -1.0384  1.2340  0.2323
  772TIP3    H223808   1.048   4.095   2.505  0.1689 -0.7364  1.1105
  773TIP3   OH223809   2.816   5.339   2.988 -0.3931 -0.2869  0.4289
  773TIP3    H123810   2.769   5.264   3.025 -0.7501 -0.1442  0.2651
  773TIP3    H223811   2.780   5.349   2.900 -1.5728  1.1132  1.0203
  774TIP3   OH223812   5.546   4.759  12.486  0.2117 -0.4398  0.5018
  774TIP3    H123813   5.529   4.705  12.408 -1.2444  0.7409 -0.0408
  774TIP3    H223814   5.460   4.787  12.516  0.7613 -0.7115  2.4637
  775TIP3   OH223815   2.671   0.794   1.422 -0.9113  0.0245  0.2353
  775TIP3    H123816   2.732   0.812   1.350 -1.7997  0.8544 -0.3303
  775TIP3    H223817   2.631   0.879   1.441 -2.3754 -0.6309  0.1433
  776TIP3   OH223818   5.882   4.445   0.338 -0.1345 -0.1843  0.0725
  776TIP3    H123819   5.808   4.385   0.351 -0.1069 -0.3371 -0.4628
  776TIP3    H223820   5.856   4.498   0.262  0.9349 -1.2313 -1.0712
  777TIP3   OH223821   2.489   0.091   3.577 -0.5330  0.4758 -0.0849
  777TIP3    H123822   2.491   0.162   3.640 -0.2751  1.3978 -1.1034
  777TIP3    H223823   2.398   0.087   3.547 -0.7552 -0.2507  0.6326
  778TIP3   OH223824   3.598   6.571   3.673  0.4509 -0.0641  0.2247
  778TIP3    H123825   3.518   6.518   3.675  0.8005 -0.9689 -3.4984
  778TIP3    H223826   3.567   6.661   3.668 -0.1892 -0.0554  2.8931
  779TIP3   OH223827   4.743   3.036   2.147 -0.4687 -0.0478  0.3228
  779TIP3    H123828   4.718   2.962   2.202  1.3769 -0.0148  1.2680
  779TIP3    H223829   4.829   3.012   2.112 -0.7942  0.7348 -1.0959
  780TIP3   OH223830   2.644   1.783  12.353  0.2050 -0.3463  0.2379
  780TIP3    H123831   2.709   1.729  12.310  0.3781 -1.1269  1.4245
  780TIP3    H223832   2.563   1.766  12.305  0.7955  0.4653 -1.1072
  781TIP3   OH223833   1.868   5.126   3.692  0.3840 -0.1646  0.1109
  781TIP3    H123834   1.838   5.037   3.673  1.1171 -0.5876  0.8716
  781TIP3    H223835   1.866   5.133   3.787 -0.4414  0.9240  0.0389
  782TIP3   OH223836   0.025   6.123  16.763  0.0762  0.1046  0.3861
  782TIP3    H123837  -0.036   6.049  16.759 -0.3973  0.4638  0.7543
  782TIP3    H223838   0.036   6.151  16.672 -1.4248  0.9157  0.4184
  783TIP3   OH223839   2.113   6.166   5.196  0.2294 -0.1898 -0.5574
  783TIP3    H123840   2.020   6.169   5.172 -0.5429  0.0615  2.1745
  783TIP3    H223841   2.135   6.256   5.219  1.3191 -0.1693 -1.5698
  784TIP3   OH223842   6.366   2.438  12.729  0.8249  0.0960 -0.0374
  784TIP3    H123843   6.408   2.524  12.739  0.9948 -0.1270  1.4021
  784TIP3    H223844   6.421   2.379  12.780 -0.7977 -0.3499  1.2617
  785TIP3   OH223845   0.338   4.954  14.875  0.4326  0.4481 -0.2364
  785TIP3    H123846   0.307   4.866  14.855 -1.3122  0.8414  0.5779
  785TIP3    H223847   0.287   4.981  14.951 -0.4143  2.8497 -1.5556
  786TIP3   OH223848   6.536   1.837  13.714 -0.2115 -0.3863  0.0924
  786TIP3    H123849   6.489   1.828  13.631  0.1199 -1.9604  0.0515
  786TIP3    H223850   6.503   1.919  13.750 -2.6952 -1.1829 -0.1321
  787TIP3   OH223851   2.074   4.292  15.460 -0.6619  0.4302  0.5345
  787TIP3    H123852   2.092   4.248  15.377 -0.5685  1.5235 -0.0411
  787TIP3    H223853   2.131   4.250  15.523  2.2388  2.1658 -0.7322
  788TIP3   OH223854   3.636   1.089   0.381  0.5235 -0.0148  0.5791
  788TIP3    H123855   3.691   1.021   0.341  0.5840  0.2520  0.1980
  788TIP3    H223856   3.550   1.075   0.343  1.0742  1.6990 -1.5385
  789TIP3   OH223857   0.608   0.228   5.708 -0.1676  0.0370 -0.3650
  789TIP3    H123858   0.543   0.160   5.721  0.3146 -0.2191  0.7837
  789TIP3    H223859   0.582   0.299   5.767  0.3404  0.1116 -0.2215
  790TIP3   OH223860   0.026   6.158  14.606  0.1849 -0.0565 -0.4140
  790TIP3    H123861  -0.017   6.243  14.599  1.3103  0.4905 -1.1053
  790TIP3    H223862   0.031   6.127  14.515 -0.2689 -0.8940 -0.1592
  791TIP3   OH223863   3.923   2.599   4.210  0.3654  0.3298 -0.0837
  791TIP3    H123864   3.887   2.686   4.225  0.4889 -0.0327  2.9854
  791TIP3    H223865   4.006   2.598   4.259  0.6611 -1.3237 -0.5485
  792TIP3   OH223866   3.803   1.278  12.304 -0.3819  0.1990 -0.2243
  792TIP3    H123867   3.772   1.239  12.222  0.1297  1.0740 -0.8426
  792TIP3    H223868   3.829   1.367  12.280 -0.8860  0.7026  1.0308
  793TIP3   OH223869   4.082   2.780  12.842  0.2289 -0.0270  0.0194
  793TIP3    H123870   4.053   2.843  12.775 -0.9383  0.4554  0.9503
  793TIP3    H223871   4.055   2.695  12.808  0.3271  0.1328 -0.4711
  794TIP3   OH223872   1.694   5.840  13.774  0.0077 -0.1979 -0.3934
  794TIP3    H123873   1.660   5.854  13.686  1.9700 -1.3987 -1.4016
  794TIP3    H223874   1.690   5.745  13.787 -2.8726  0.0766  1.9980
  795TIP3   OH223875   4.149   1.608  10.748 -0.3944 -0.1421  0.4672
  795TIP3    H123876   4.112   1.547  10.684 -0.5690 -0.5277  0.9333
  795TIP3    H223877   4.213   1.660  10.698 -0.1580 -0.7846  0.0990
  796TIP3   OH223878   2.724   1.169   3.619  0.2467  0.0107  0.3387
  796TIP3    H123879   2.800   1.152   3.564 -0.9999  0.7181 -1.6911
  796TIP3    H223880   2.669   1.227   3.567 -1.2699  0.2605  2.1239
  797TIP3   OH223881   4.826   3.585   1.336 -0.2429  0.2827  0.4966
  797TIP3    H123882   4.823   3.680   1.323 -0.3852  0.4388  1.5573
  797TIP3    H223883   4.882   3.574   1.413  2.8133 -0.7203 -1.6508
  798TIP3   OH223884   1.758   3.855  12.564  0.0963 -0.1768 -0.0922
  798TIP3    H123885   1.674   3.901  12.552  0.6571  1.4174  1.6397
  798TIP3    H223886   1.823   3.916  12.529  0.8265  0.2637  1.9361
  799TIP3   OH223887   5.106   6.052  12.860 -0.1168 -0.8097  0.7119
  799TIP3    H123888   5.013   6.062  12.883 -0.0831 -0.1172  0.5697
  799TIP3    H223889   5.117   5.958  12.846 -0.9537 -0.8223  0.0798
  800TIP3   OH223890   2.298   3.120  14.930  0.5699 -0.4401 -0.1304
  800TIP3    H123891   2.242   3.172  14.988  0.6752  0.9546 -1.2305
  800TIP3    H223892   2.240   3.051  14.896  0.1981 -0.5403  0.6937
  801TIP3   OH223893   0.498   3.791   2.387 -0.4324 -0.8194  0.2073
  801TIP3    H123894   0.533   3.851   2.321  1.1824 -1.6140  0.2849
  801TIP3    H223895   0.428   3.840   2.430  0.4330  0.7738 -0.1456
  802TIP3   OH223896   3.132   5.335   3.753  0.2176  0.0173  0.4864
  802TIP3    H123897   3.178   5.346   3.670  0.0667 -0.4941  0.3286
  802TIP3    H223898   3.200   5.346   3.820 -0.0309  2.5978  0.4202
  803TIP3   OH223899   3.064   6.605  12.157  0.6098  0.0169  0.3809
  803TIP3    H123900   3.063   6.540  12.086 -3.0149  0.3157 -0.0403
  803TIP3    H223901   3.156   6.611  12.182  1.5590 -2.8377 -1.7744
  804TIP3   OH223902   6.241   1.602   4.116  0.5596  0.5572  0.1665
  804TIP3    H123903   6.313   1.635   4.061 -0.1692  2.0870  0.0718
  804TIP3    H223904   6.284   1.546   4.181  1.8169  1.2478 -0.0412
  805TIP3   OH223905   0.779   5.974  11.708 -0.5715 -0.0925  0.2108
  805TIP3    H123906   0.851   6.038  11.705  0.1744 -0.8819  0.8670
  805TIP3    H223907   0.708   6.017  11.660  0.0207  1.0898  0.3349
  806TIP3   OH223908   2.946   5.960  15.119 -0.1433  0.2376  0.2068
  806TIP3    H123909   2.883   5.992  15.184 -0.3941 -0.4237  0.2957
  806TIP3    H223910   2.894   5.946  15.040 -0.0454  0.0273  0.1779
  807TIP3   OH223911   6.558   1.312   0.230  0.0206  0.4168 -1.0234
  807TIP3    H123912   6.513   1.281   0.152  0.7531 -1.3035 -0.8227
  807TIP3    H223913   6.649   1.325   0.202  0.2880 -0.2112 -0.4754
  808TIP3   OH223914   5.181   1.736   1.735  0.0095  0.7017 -0.7644
  808TIP3    H123915   5.124   1.724   1.810  0.8243 -0.2289 -0.2682
  808TIP3    H223916   5.124   1.726   1.659 -0.3336 -1.2783 -0.3026
  809TIP3   OH223917   4.671   5.406  10.725  0.0229 -0.3013 -0.0776
  809TIP3    H123918   4.635   5.489  10.756  0.5218 -0.7867  2.0089
  809TIP3    H223919   4.759   5.402  10.763  0.0959 -1.6627 -0.3411
  810TIP3   OH223920   0.663   5.887   1.248  0.0570  0.5128  0.1518
  810TIP3    H123921   0.607   5.932   1.310 -1.9588  0.8261 -1.7559
  810TIP3    H223922   0.634   5.919   1.162  0.1243 -2.5729 -1.1654
  811TIP3   OH223923   1.338   0.340  12.572 -0.5589  0.2597 -0.6517
  811TIP3    H123924   1.425   0.304  12.587 -1.2390 -1.7335 -1.1466
  811TIP3    H223925   1.331   0.348  12.477 -1.7878 -2.1297 -0.8362
  812TIP3   OH223926   4.689   0.425  13.774 -0.1863 -0.0432  0.2090
  812TIP3    H123927   4.715   0.444  13.684  0.0831 -1.3892 -0.0128
  812TIP3    H223928   4.599   0.456  13.780  0.0961  0.8983 -0.2360
  813TIP3   OH223929   5.401   0.137  11.390  0.5919  0.3824 -0.3474
  813TIP3    H123930   5.434   0.214  11.436 -0.0374  0.3766  0.1232
  813TIP3    H223931   5.454   0.133  11.310  0.0843  1.7699 -0.7848
  814TIP3   OH223932   0.823   4.055  14.597  0.3850  0.1190  0.1957
  814TIP3    H123933   0.741   4.049  14.646 -0.1369  1.0884 -0.5293
  814TIP3    H223934   0.802   4.021  14.510  0.4052  1.4737 -0.3690
  815TIP3   OH223935   4.863   0.871  13.554  0.8652  0.3853 -0.3892
  815TIP3    H123936   4.893   0.961  13.539 -0.9210  0.5615 -3.7658
  815TIP3    H223937   4.912   0.819  13.490  1.0688 -0.9027  0.7834
  816TIP3   OH223938   5.456   1.623   0.007 -0.0533 -0.2168 -0.5494
  816TIP3    H123939   5.474   1.537  -0.030 -2.0491 -0.7160 -0.4731
  816TIP3    H223940   5.372   1.648  -0.031 -0.0862  1.1612  0.3698
  817TIP3   OH223941   5.506   6.003  12.608  0.4091 -0.1877 -0.8003
  817TIP3    H123942   5.438   5.954  12.561  1.2703 -1.5524 -0.6470
  817TIP3    H223943   5.585   5.990  12.556  0.8960  0.1310 -0.1453
  818TIP3   OH223944   5.991   3.929  16.620  0.4419 -0.1407  0.0964
  818TIP3    H123945   5.941   3.957  16.543  1.2320 -0.1121 -0.4194
  818TIP3    H223946   6.024   4.011  16.659  2.1646 -0.2520 -1.0105
  819TIP3   OH223947   0.941   1.983  14.344 -0.5004  0.2768  0.0638
  819TIP3    H123948   0.948   1.938  14.428 -0.3163 -1.1712 -0.6976
  819TIP3    H223949   0.847   1.979  14.322 -0.2043 -2.0161 -1.1456
  820TIP3   OH223950   0.343   4.713  11.888 -0.0801  0.0177 -0.0222
  820TIP3    H123951   0.427   4.743  11.856  1.0072 -1.2217  1.4911
  820TIP3    H223952   0.325   4.768  11.964 -1.1768  0.9644 -0.9310
  821TIP3   OH223953   6.150   4.252   5.227  0.2476  0.2294  0.2503
  821TIP3    H123954   6.201   4.204   5.292  2.8141  1.0126 -1.0807
  821TIP3    H223955   6.174   4.213   5.143 -0.2206  1.5849 -0.5553
  822TIP3   OH223956   4.083   5.082   6.677  0.0023  0.2756 -0.1711
  822TIP3    H123957   4.146   5.152   6.655 -0.1891  0.7886  0.8225
  822TIP3    H223958   4.104   5.060   6.768 -0.4995 -0.3686 -0.2083
  823TIP3   OH223959   6.698   6.364  16.857 -0.3504 -0.4809 -0.1522
  823TIP3    H123960   6.690   6.371  16.761  0.7766 -0.2557 -0.2388
  823TIP3    H223961   6.755   6.288  16.870 -1.5147 -1.2835  0.3882
  824TIP3   OH223962   4.637   4.611   5.279 -0.3421  0.3580  0.1128
  824TIP3    H123963   4.684   4.531   5.303 -0.4835 -0.0958 -1.0455
  824TIP3    H223964   4.697   4.682   5.303 -0.2760 -0.0684  1.2824
  825TIP3   OH223965   2.444   6.348   1.104 -0.3294 -0.0962 -0.5607
  825TIP3    H123966   2.414   6.268   1.061 -0.3844  0.5197 -1.7182
  825TIP3    H223967   2.468   6.406   1.032  1.5422  0.2557  0.2813
  826TIP3   OH223968   4.959   0.021  16.034  0.1082  0.7337 -0.1152
  826TIP3    H123969   5.045   0.059  16.052  1.3694 -0.8251 -2.2451
  826TIP3    H223970   4.896   0.086  16.065  2.0604  2.3273  0.7197
  827TIP3   OH223971   2.236   1.486  16.705 -0.5623  0.0934 -0.5597
  827TIP3    H123972   2.145   1.456  16.705 -0.5230 -0.0528  0.2897
  827TIP3    H223973   2.284   1.413  16.744 -0.4577  1.2333  1.5476
  828TIP3   OH223974   4.753   2.108   4.368  0.4650  0.1045 -0.1425
  828TIP3    H123975   4.745   2.202   4.353  1.3016  0.6822  2.6098
  828TIP3    H223976   4.846   2.089   4.354  0.2087 -0.4619 -1.2191
  829TIP3   OH223977   0.851   1.282   0.179  0.3422 -0.1524 -0.7664
  829TIP3    H123978   0.859   1.349   0.247 -4.2102  0.4928 -0.5664
  829TIP3    H223979   0.871   1.200   0.225 -1.3136  0.4026  1.1214
  830TIP3   OH223980   3.003   6.751   1.079 -0.1282  0.3090 -0.0329
  830TIP3    H123981   2.923   6.698   1.076 -0.2643  0.5202 -0.1949
  830TIP3    H223982   3.008   6.782   1.169 -0.1673  0.2034  0.0064
  831TIP3   OH223983   2.650   1.411  13.897  0.0569 -0.4016  0.3915
  831TIP3    H123984   2.662   1.316  13.895  0.9526 -0.3574  2.0216
  831TIP3    H223985   2.737   1.446  13.918 -0.8174  0.5969  2.6377
  832TIP3   OH223986   5.873   0.968  11.364 -0.5801 -0.3018  0.4758
  832TIP3    H123987   5.797   1.025  11.351  0.0649  0.9414  1.8516
  832TIP3    H223988   5.900   0.943  11.275 -1.2093  1.0905 -0.1301
  833TIP3   OH223989   0.801   3.332   3.381 -0.1420 -0.3883 -0.1425
  833TIP3    H123990   0.723   3.330   3.326 -0.7612  1.8273  0.5748
  833TIP3    H223991   0.801   3.246   3.424 -2.5825 -0.2047  0.3792
  834TIP3   OH223992   4.101   5.787   6.691 -0.0799  0.0381 -0.3536
  834TIP3    H123993   4.148   5.865   6.661  2.4189 -2.2703 -3.1562
  834TIP3    H223994   4.019   5.788   6.642  0.6567  0.1684 -1.6486
  835TIP3   OH223995   4.108   5.543  11.851  0.5549  0.2285  0.1584
  835TIP3    H123996   4.053   5.466  11.864 -0.0731  0.6931  0.2632
  835TIP3    H223997   4.048   5.612  11.824  1.1098  0.6981  0.0916
  836TIP3   OH223998   6.684   5.658   3.403 -0.1675 -0.2474  0.0726
  836TIP3    H123999   6.672   5.752   3.417  0.6293 -0.1565  0.2400
  836TIP3    H224000   6.695   5.622   3.491 -0.4327 -0.4884  0.0070
  837TIP3   OH224001   5.021   1.858  14.985 -0.3443 -0.1098 -0.1545
  837TIP3    H124002   4.953   1.800  15.018  0.0440 -0.8240 -0.5920
  837TIP3    H224003   5.103   1.821  15.018 -0.0735  0.0512 -0.6349
  838TIP3   OH224004   2.620   4.683  13.439  0.4462  0.4077  0.2050
  838TIP3    H124005   2.608   4.660  13.347  0.1418 -1.2717  0.6361
  838TIP3    H224006   2.538   4.725  13.464  0.3393  0.4200 -0.1598
  839TIP3   OH224007   4.634   5.121  12.427 -0.1795 -0.5059  0.1253
  839TIP3    H124008   4.571   5.100  12.496 -1.5557  0.4604 -0.7681
  839TIP3    H224009   4.631   5.045  12.369  2.5684 -2.3004  2.1077
  840TIP3   OH224010   4.748   3.006  14.191 -0.5960  0.4998  0.1899
  840TIP3    H124011   4.795   3.086  14.167 -1.0054  1.0797  1.2634
  840TIP3    H224012   4.670   3.005  14.135 -1.6311  1.9195  1.5403
  841TIP3   OH224013   5.693   2.604   0.709  0.2826 -0.3748  0.4253
  841TIP3    H124014   5.640   2.543   0.658  1.4795 -1.3688  0.3240
  841TIP3    H224015   5.657   2.690   0.689 -0.8850 -0.9699 -0.1069
  842TIP3   OH224016   5.115   5.608   2.648 -0.0069 -0.1966 -0.0459
  842TIP3    H124017   5.141   5.577   2.734  0.5522 -0.4173 -0.2897
  842TIP3    H224018   5.022   5.630   2.657 -0.2029 -1.1446  0.3512
  843TIP3   OH224019   1.610   5.237  14.752  0.1808 -0.1867  0.5670
  843TIP3    H124020   1.628   5.318  14.800 -0.6990  0.2139  0.2501
  843TIP3    H224021   1.514   5.229  14.754 -0.0226  0.4476 -2.0192
  844TIP3   OH224022   1.071   3.183   5.178  0.5687  0.0862  0.2730
  844TIP3    H124023   1.120   3.108   5.211  1.7673  1.3941  1.5577
  844TIP3    H224024   0.992   3.185   5.231 -0.8018 -1.7656 -1.5149
  845TIP3   OH224025   1.607   1.825  11.487 -0.1808 -0.1555 -0.1279
  845TIP3    H124026   1.677   1.891  11.489  1.6535 -1.8809 -1.9299
  845TIP3    H224027   1.549   1.853  11.416 -0.4337  0.4523  0.3146
  846TIP3   OH224028   0.796   0.955   3.011  0.0176  0.6567 -0.4089
  846TIP3    H124029   0.741   0.887   3.050  1.3832 -0.3910 -0.2064
  846TIP3    H224030   0.768   0.961   2.920  0.5071 -0.9147 -0.6975
  847TIP3   OH224031   1.694   4.408  11.300  0.1897 -0.0487  0.5095
  847TIP3    H124032   1.763   4.352  11.336  1.6249  0.9543 -0.5386
  847TIP3    H224033   1.728   4.434  11.214 -2.8168 -1.8872 -1.4094
  848TIP3   OH224034   0.841   6.158  10.934  0.2329  0.9315 -0.1624
  848TIP3    H124035   0.909   6.141  10.999  0.2273 -0.6248 -0.5267
  848TIP3    H224036   0.828   6.074  10.890 -0.6175  1.6586 -1.3615
  849TIP3   OH224037   4.370   6.772  11.617 -0.5327 -0.4784  0.2246
  849TIP3    H124038   4.416   6.794  11.536 -0.8284 -0.5026  0.0496
  849TIP3    H224039   4.383   6.678  11.628 -1.0053 -0.5867 -0.1197
  850TIP3   OH224040   5.201   6.307  12.825 -0.0438 -0.3763 -0.3637
  850TIP3    H124041   5.227   6.332  12.914  1.1056 -1.1649 -0.4462
  850TIP3    H224042   5.148   6.228  12.837 -2.0812  0.9486 -0.2324
  851TIP3   OH224043   2.209   0.639   3.132 -0.3956 -0.2827  1.0751
  851TIP3    H124044   2.215   0.675   3.221 -1.6674 -1.8829  1.8719
  851TIP3    H224045   2.167   0.554   3.144  0.1755 -0.9031 -0.9952
  852TIP3   OH224046   4.871   5.027   1.915  0.0527  0.0654  0.5535
  852TIP3    H124047   4.886   4.940   1.951  0.4613  0.6328  1.7928
  852TIP3    H224048   4.958   5.061   1.897 -0.0051  0.8264  1.6003
  853TIP3   OH224049   3.972   1.614   2.237  0.3077 -0.6860  0.8254
  853TIP3    H124050   3.884   1.586   2.212 -0.2473  1.0913  0.6722
  853TIP3    H224051   3.971   1.611   2.333  0.3809 -1.4703  0.8128
  854TIP3   OH224052   2.203   1.159   4.534 -0.9352  0.5547 -0.0764
  854TIP3    H124053   2.240   1.186   4.618  0.9328 -0.2578 -0.5937
  854TIP3    H224054   2.181   1.067   4.546  0.8447 -0.0304 -0.9010
  855TIP3   OH224055   2.213   4.510  16.819 -0.1519  0.1977 -0.0033
  855TIP3    H124056   2.127   4.530  16.783 -0.9554 -0.1950  1.6417
  855TIP3    H224057   2.268   4.495  16.742 -0.9782  2.6185 -1.1727
  856TIP3   OH224058   4.928   1.807  13.810 -0.8920  0.0760 -0.0132
  856TIP3    H124059   4.893   1.875  13.752 -2.8379  0.2026  1.2040
  856TIP3    H224060   5.003   1.848  13.853 -1.8608  1.4044  0.4887
  857TIP3   OH224061   1.803   5.238   2.927 -0.6870 -0.4188 -0.0300
  857TIP3    H124062   1.832   5.287   2.850 -1.1949 -0.4911 -0.2666
  857TIP3    H224063   1.878   5.243   2.987 -0.0263 -0.9493 -0.7890
  858TIP3   OH224064   6.587   0.713   4.645  0.0642  0.5006  0.9155
  858TIP3    H124065   6.590   0.805   4.619  0.6848  0.5963  1.3121
  858TIP3    H224066   6.494   0.690   4.641 -0.1495  1.2739  1.2640
  859TIP3   OH224067   4.536   3.462  13.680  0.7913  0.1428  0.0953
  859TIP3    H124068   4.507   3.397  13.617  0.4910  0.4034 -0.0367
  859TIP3    H224069   4.630   3.473  13.662  0.9749 -0.6864  0.5156
  860TIP3   OH224070   2.764   3.975   2.750  0.0564 -0.0867  0.1524
  860TIP3    H124071   2.749   3.960   2.657 -1.1963 -1.0864  0.4875
  860TIP3    H224072   2.803   3.893   2.782  1.1471  0.5008  0.3932
  861TIP3   OH224073   1.911   0.678  14.500 -0.2686 -0.3168  0.3483
  861TIP3    H124074   1.900   0.707  14.410  0.1146  0.9996  0.7124
  861TIP3    H224075   1.912   0.758  14.552 -2.7517 -1.0999  1.8123
  862TIP3   OH224076   0.732   1.011  11.309 -0.3040  0.2542  0.1647
  862TIP3    H124077   0.764   0.936  11.259  1.2623  1.5359 -0.8483
  862TIP3    H224078   0.810   1.062  11.329 -1.4368  2.2401 -0.2025
  863TIP3   OH224079   3.987   1.353   3.335 -0.4684 -0.0162  1.3940
  863TIP3    H124080   3.929   1.392   3.269 -1.2985 -3.7729 -0.3613
  863TIP3    H224081   3.951   1.381   3.419 -1.9755  1.4445  0.3246
  864TIP3   OH224082   0.132   1.634   2.383 -0.4631  0.6850 -0.0058
  864TIP3    H124083   0.151   1.728   2.385 -0.0776  0.5999  0.9119
  864TIP3    H224084   0.091   1.620   2.298 -0.8388  1.7432 -0.0160
  865TIP3   OH224085   0.292   2.934  13.051 -0.2675  0.0889  0.1144
  865TIP3    H124086   0.208   2.896  13.024 -0.3691 -1.1506  1.9894
  865TIP3    H224087   0.279   3.029  13.043 -2.0116 -0.0566  0.7782
  866TIP3   OH224088   3.734   6.477  15.948 -0.3297  0.0257 -0.4618
  866TIP3    H124089   3.805   6.536  15.972 -0.6103  0.6030 -1.0492
  866TIP3    H224090   3.714   6.497  15.857 -0.1544 -1.2545 -0.8091
  867TIP3   OH224091   3.961   3.178   0.369 -0.2087  0.4144 -0.4216
  867TIP3    H124092   4.036   3.137   0.326 -1.7733 -0.8619 -2.0971
  867TIP3    H224093   3.930   3.243   0.306 -2.0897 -0.9527 -0.9872
  868TIP3   OH224094   2.459   2.392   1.004 -0.0422  0.3339  0.3054
  868TIP3    H124095   2.472   2.298   1.004 -0.1547  0.3113  1.1709
  868TIP3    H224096   2.383   2.405   0.947 -0.5735 -0.1868  0.8813
  869TIP3   OH224097   1.115   6.594   4.479 -0.1148 -0.2611 -0.0398
  869TIP3    H124098   1.106   6.621   4.388  0.6129 -1.4969 -0.5038
  869TIP3    H224099   1.090   6.501   4.480 -0.4622 -0.1750  1.0847
  870TIP3   OH224100   5.949   3.416  15.811 -0.1328  0.2209  0.0447
  870TIP3    H124101   5.880   3.388  15.751 -0.2218  1.9959 -0.7664
  870TIP3    H224102   5.923   3.380  15.896 -0.1672 -2.0995 -0.8778
  871TIP3   OH224103   4.876   4.479  13.084  0.3336  1.0601 -0.5705
  871TIP3    H124104   4.954   4.504  13.134  1.7878 -2.1510 -0.9568
  871TIP3    H224105   4.830   4.417  13.140 -1.0967  1.6713 -1.0215
  872TIP3   OH224106   4.260   5.894  11.824 -0.3536  0.0538  0.4576
  872TIP3    H124107   4.224   5.983  11.832 -1.1847 -0.2053 -0.2465
  872TIP3    H224108   4.291   5.873  11.912  1.2211  1.5991  0.3296
  873TIP3   OH224109   1.951   3.673  15.040  0.0812  0.5972 -0.1524
  873TIP3    H124110   1.901   3.638  14.966  1.6400  1.2414 -1.6003
  873TIP3    H224111   1.936   3.768  15.036  0.9109  0.7343 -0.2447
  874TIP3   OH224112   3.333   5.375   3.529  0.1384  0.0496  0.2862
  874TIP3    H124113   3.270   5.412   3.467 -1.6316 -1.9797  0.7350
  874TIP3    H224114   3.357   5.291   3.490 -0.0766 -0.7113  1.7308
  875TIP3   OH224115   2.245   1.561  15.307 -0.0024  0.1078 -0.0897
  875TIP3    H124116   2.292   1.627  15.357 -0.6563  0.9129 -0.4922
  875TIP3    H224117   2.308   1.491  15.293  1.1874  1.2735 -0.8660
  876TIP3   OH224118   0.662   5.638  12.818 -0.0841 -0.4941 -0.2382
  876TIP3    H124119   0.749   5.606  12.839  0.1654 -0.5432 -1.2853
  876TIP3    H224120   0.605   5.596  12.882  0.7411  0.2074  1.0164
  877TIP3   OH224121   6.742   3.959  14.927  0.2111 -0.4689 -0.0153
  877TIP3    H124122   6.773   3.913  14.848  0.5292 -1.0335  0.4281
  877TIP3    H224123   6.740   4.051  14.902  2.8337 -0.3022  0.0776
  878TIP3   OH224124   3.808   1.711  14.761  0.5232  0.0267  0.4343
  878TIP3    H124125   3.718   1.683  14.746  1.2089 -1.5149 -1.2160
  878TIP3    H224126   3.800   1.789  14.816 -1.8743  0.8880 -0.9854
  879TIP3   OH224127   6.538   6.199  15.931  0.0987  0.1988  0.0211
  879TIP3    H124128   6.614   6.215  15.875 -0.3403 -0.4958 -0.7869
  879TIP3    H224129   6.464   6.194  15.871 -0.2734 -1.3502  0.5509
  880TIP3   OH224130   2.653   1.223   0.848  0.5615 -0.3737  0.0585
  880TIP3    H124131   2.570   1.176   0.855 -0.3807  0.6858 -2.7254
  880TIP3    H224132   2.628   1.316   0.847  1.8790 -0.0010  0.0532
  881TIP3   OH224133   6.008   1.232  11.377  0.1841 -0.9610 -0.0133
  881TIP3    H124134   5.961   1.257  11.297 -0.1222  0.7175  0.6542
  881TIP3    H224135   6.028   1.139  11.364 -1.3488 -1.1711 -1.2885
  882TIP3   OH224136   1.160   4.414  14.068 -0.2232  0.0476 -0.3463
  882TIP3    H124137   1.184   4.344  14.007 -0.2746  0.1796 -0.5175
  882TIP3    H224138   1.072   4.440  14.042 -0.9721 -1.1117  0.8892
  883TIP3   OH224139   4.331   3.707   2.617  0.5249 -0.2449  0.0165
  883TIP3    H124140   4.377   3.791   2.609  1.3042 -0.5584  0.9336
  883TIP3    H224141   4.401   3.643   2.629 -0.0715 -1.0074 -0.4773
  884TIP3   OH224142   0.808   2.922  12.310  0.2074  0.3034 -0.3218
  884TIP3    H124143   0.779   2.965  12.391  0.7287 -3.4551  2.0906
  884TIP3    H224144   0.903   2.934  12.309  0.2981 -0.3537  0.0965
  885TIP3   OH224145   3.875   1.634   3.464  0.2753 -0.1768  0.0460
  885TIP3    H124146   3.861   1.727   3.480 -0.2434 -0.2056 -0.2280
  885TIP3    H224147   3.849   1.621   3.373 -0.2426 -0.7116  0.2627
  886TIP3   OH224148   4.334   5.868  12.159  0.1777  0.4142 -0.5343
  886TIP3    H124149   4.294   5.783  12.140  0.9640 -0.5703  1.9067
  886TIP3    H224150   4.427   5.855  12.144  0.6011  0.0990  2.0302
  887TIP3   OH224151   5.741   2.518   5.294  0.0931  0.3060  0.1916
  887TIP3    H124152   5.660   2.563   5.318  0.1204  0.7065 -0.4479
  887TIP3    H224153   5.810   2.582   5.310  0.0727  0.7581 -1.3475
  888TIP3   OH224154   6.221   3.484  14.813  0.3788  0.3125  0.0762
  888TIP3    H124155   6.314   3.490  14.789  0.3300 -0.2935 -0.3067
  888TIP3    H224156   6.205   3.390  14.822 -0.1481  0.4243  0.3517
  889TIP3   OH224157   5.895   2.428  16.458 -0.7846 -0.5409 -0.5988
  889TIP3    H124158   5.884   2.362  16.527  0.2765 -0.0709  0.0596
  889TIP3    H224159   5.986   2.416  16.429 -0.4186  0.9089 -0.1354
  890TIP3   OH224160   6.094   2.816   5.133 -0.0729 -0.2570 -0.5411
  890TIP3    H124161   6.136   2.792   5.051 -0.5514 -0.9676 -0.5884
  890TIP3    H224162   6.035   2.888   5.110 -0.1731 -0.4263 -0.8143
  891TIP3   OH224163   2.153   1.651  12.664 -0.1250 -0.5877 -0.8886
  891TIP3    H124164   2.188   1.610  12.743 -0.7710 -0.5570 -0.5826
  891TIP3    H224165   2.222   1.639  12.599  0.3881 -0.6713 -0.3420
  892TIP3   OH224166   5.200   5.884   5.423 -0.0888  0.0765  0.1160
  892TIP3    H124167   5.261   5.858   5.492  1.0144 -1.5123 -1.3555
  892TIP3    H224168   5.256   5.897   5.346 -1.4187  0.4012 -0.8262
  893TIP3   OH224169   0.598   0.514   3.248 -0.0600 -0.2239  0.0424
  893TIP3    H124170   0.536   0.445   3.271  1.4672 -1.7413 -0.1741
  893TIP3    H224171   0.679   0.468   3.227  1.4968  1.7168  1.3716
  894TIP3   OH224172   1.488   1.339   2.091 -0.8520  0.2935  0.1196
  894TIP3    H124173   1.562   1.400   2.086  0.8016 -0.6990  5.4377
  894TIP3    H224174   1.515   1.264   2.038  1.7728  0.2536  1.3455
  895TIP3   OH224175   6.574   2.860  11.382 -0.2186  0.8500 -0.0007
  895TIP3    H124176   6.661   2.897  11.396 -0.8295  1.7852  1.6711
  895TIP3    H224177   6.514   2.930  11.409 -1.4590 -0.2053  0.0526
  896TIP3   OH224178   0.843   0.548   2.712 -0.0402 -0.1899 -0.0039
  896TIP3    H124179   0.794   0.549   2.629 -1.7957  0.1464  0.9915
  896TIP3    H224180   0.778   0.525   2.778  1.3398 -0.5135  1.3004
  897TIP3   OH224181   4.012   0.387   4.251 -0.1541 -0.2581  0.1638
  897TIP3    H124182   3.933   0.356   4.296  0.4440  0.5856  1.8425
  897TIP3    H224183   4.084   0.346   4.298  0.6115  2.5356  1.6329
  898TIP3   OH224184   0.237   2.433   2.657 -0.2270 -0.2484  0.1770
  898TIP3    H124185   0.185   2.514   2.660  0.5196  0.2232  1.0167
  898TIP3    H224186   0.185   2.369   2.706 -1.4825 -0.7137 -1.6716
  899TIP3   OH224187   0.015   6.099  14.875  0.2010 -0.2284  0.3745
  899TIP3    H124188   0.019   6.097  14.779  0.2102  0.8687  0.3416
  899TIP3    H224189   0.100   6.065  14.903  1.2406  1.8718 -0.0561
  900TIP3   OH224190   4.478   6.797   3.430  0.1284  0.0080 -0.2353
  900TIP3    H124191   4.481   6.704   3.409  0.4899 -0.1321  0.4134
  900TIP3    H224192   4.495   6.802   3.524  1.6956  0.8121 -0.5200
  901TIP3   OH224193   1.511   2.636   5.323  0.2173 -0.0393  0.2756
  901TIP3    H124194   1.605   2.619   5.329  0.3250 -0.2886 -1.4733
  901TIP3    H224195   1.496   2.714   5.376  1.8764  1.5327 -1.4577
  902TIP3   OH224196   1.115   3.869  13.992 -0.1121  0.2727  0.4175
  902TIP3    H124197   1.188   3.830  13.944 -0.3969  1.4588 -1.0774
  902TIP3    H224198   1.151   3.892  14.077  1.2930  0.9368 -0.3327
  903TIP3   OH224199   1.626   5.627  16.222  0.1527 -0.5549 -0.0705
  903TIP3    H124200   1.644   5.721  16.221  0.7892 -0.6194  1.7342
  903TIP3    H224201   1.690   5.589  16.162 -0.5456  0.1912 -1.3480
  904TIP3   OH224202   2.516   5.673   0.578  0.5185  0.4003  0.3337
  904TIP3    H124203   2.429   5.679   0.539  0.6994  1.1951  0.0315
  904TIP3    H224204   2.572   5.643   0.507  0.4380 -0.4600  0.6223
  905TIP3   OH224205   3.918   0.256  11.469  0.2238 -0.2180 -0.0402
  905TIP3    H124206   3.940   0.165  11.491  1.0558  0.0150  0.1066
  905TIP3    H224207   3.828   0.266  11.500 -0.3112 -1.3414 -1.1358
  906TIP3   OH224208   2.853   5.759   1.350  0.2568  0.4685  0.1026
  906TIP3    H124209   2.791   5.732   1.282  2.2655 -0.8794 -1.3270
  906TIP3    H224210   2.850   5.689   1.415  0.1445  0.5166  0.1502
  907TIP3   OH224211   0.249   0.983   1.266 -0.1551  0.1388 -0.0464
  907TIP3    H124212   0.337   0.977   1.304 -1.3593 -0.8551  2.8364
  907TIP3    H224213   0.240   0.904   1.214  0.9809  0.7689 -1.2766
  908TIP3   OH224214   0.230   2.776   3.465  0.0413  0.2585 -0.0255
  908TIP3    H124215   0.321   2.766   3.436  1.3682  1.2557  3.3616
  908TIP3    H224216   0.232   2.849   3.527 -2.9501 -0.1455  0.7045
  909TIP3   OH224217   2.457   1.553   3.427 -0.5794  0.2801  0.1942
  909TIP3    H124218   2.374   1.507   3.439 -1.7102  1.2283 -3.0103
  909TIP3    H224219   2.446   1.635   3.476 -1.1018 -0.0560  0.6559
  910TIP3   OH224220   1.685   1.039  12.116 -0.1314 -0.6494 -0.0417
  910TIP3    H124221   1.621   0.969  12.129 -0.2046 -0.7785 -1.0511
  910TIP3    H224222   1.632   1.118  12.108 -0.1830 -0.7565 -0.8785
  911TIP3   OH224223   5.668   6.228  12.992  0.3387  0.3185 -0.1101
  911TIP3    H124224   5.689   6.134  12.987  0.4141  0.3636 -0.8374
  911TIP3    H224225   5.572   6.232  12.988  0.3425  0.2777 -0.2487
  912TIP3   OH224226   5.256   5.105  11.262 -0.0166 -0.6157 -0.5598
  912TIP3    H124227   5.264   5.067  11.174 -0.5294 -1.4114 -0.2737
  912TIP3    H224228   5.231   5.196  11.246 -1.2645 -1.0446 -1.2475
  913TIP3   OH224229   2.755   6.409   0.557 -0.0104 -0.6056 -0.6964
  913TIP3    H124230   2.758   6.470   0.630 -1.2847 -2.4729  1.0531
  913TIP3    H224231   2.822   6.343   0.578  0.7599 -0.2844 -2.0917
  914TIP3   OH224232   0.075   6.350   5.771  0.4412 -0.0357  0.7284
  914TIP3    H124233   0.106   6.335   5.682  0.2340  0.6530  0.5374
  914TIP3    H224234   0.152   6.383   5.818  0.3944  0.1918  0.6465
  915TIP3   OH224235   1.296   4.435  14.298  0.7300 -0.2704  0.0720
  915TIP3    H124236   1.243   4.447  14.219 -1.4210 -0.1867  1.4240
  915TIP3    H224237   1.325   4.524  14.320  0.1965 -0.0927  0.0890
  916TIP3   OH224238   2.906   3.922  15.573 -0.2629  0.2780 -0.3246
  916TIP3    H124239   2.810   3.923  15.573 -0.3237 -1.3169 -1.5574
  916TIP3    H224240   2.931   3.965  15.492  0.1552  1.8974  0.6134
  917TIP3   OH224241   6.737   1.130  14.716 -0.2585 -0.2146  0.0001
  917TIP3    H124242   6.796   1.190  14.761 -1.2427  0.9201 -0.1464
  917TIP3    H224243   6.716   1.175  14.634  0.6520 -1.7459 -1.1194
  918TIP3   OH224244   6.760   5.504   0.105 -0.6910 -0.5487 -0.2326
  918TIP3    H124245   6.808   5.569   0.157 -1.1442  0.1009 -0.6224
  918TIP3    H224246   6.718   5.448   0.171 -0.9284  0.0198  0.1060
  919TIP3   OH224247   6.236   0.161   4.646  0.8894 -0.1543  0.1040
  919TIP3    H124248   6.220   0.191   4.736  2.4594  1.1994 -0.0182
  919TIP3    H224249   6.245   0.242   4.596 -1.1189 -0.8745 -1.5504
  920TIP3   OH224250   1.157   2.014  14.773  0.6350  0.2327 -0.1972
  920TIP3    H124251   1.171   2.105  14.801 -2.9743  0.3429  1.8882
  920TIP3    H224252   1.184   1.961  14.848  1.2107 -0.3494 -0.7974
  921TIP3   OH224253   6.843   0.729  15.504 -0.4076  0.5705 -0.5251
  921TIP3    H124254   6.796   0.812  15.492  1.5231  1.6731 -0.8100
  921TIP3    H224255   6.886   0.737  15.589  2.9104  1.5781 -2.1347
  922TIP3   OH224256   4.276   5.271  11.084  0.6217  0.4058  0.4130
  922TIP3    H124257   4.245   5.235  11.001 -2.0316  1.7270  0.7213
  922TIP3    H224258   4.305   5.360  11.063  2.7555 -0.2110  0.4629
  923TIP3   OH224259   1.028   1.740   2.267 -0.0133 -0.4858 -0.2823
  923TIP3    H124260   1.053   1.708   2.180  1.9926 -0.4265  0.2283
  923TIP3    H224261   1.011   1.661   2.318  0.7993 -0.6067 -0.1869
  924TIP3   OH224262   2.250   4.897  12.919 -0.2994  0.4505 -0.0196
  924TIP3    H124263   2.262   4.834  12.848  1.2229  0.8246 -0.1289
  924TIP3    H224264   2.155   4.901  12.932 -0.5033 -0.8355 -0.9220
  925TIP3   OH224265   4.702   0.585   5.118  0.4771 -0.0037 -0.0975
  925TIP3    H124266   4.661   0.640   5.185  0.2930 -1.2900  0.8896
  925TIP3    H224267   4.628   0.540   5.076  0.7211 -1.0532  0.5415
  926TIP3   OH224268   5.160   5.696  15.606 -0.3648  0.1883 -0.4430
  926TIP3    H124269   5.112   5.774  15.578  1.1924  1.3770  0.0466
  926TIP3    H224270   5.120   5.671  15.690 -1.0518  0.2891 -0.7402
  927TIP3   OH224271   3.087   4.337   5.319 -0.1952  0.4163  0.0172
  927TIP3    H124272   3.080   4.399   5.391 -0.0698 -0.2042  0.5708
  927TIP3    H224273   3.081   4.251   5.360 -0.4220  0.0555 -0.7448
  928TIP3   OH224274   0.188   4.071   3.910  0.4662 -0.1162  0.4349
  928TIP3    H124275   0.162   4.130   3.840  0.2440 -0.0285  0.5901
  928TIP3    H224276   0.127   4.089   3.981  1.0045  0.1607  0.8414
  929TIP3   OH224277   3.885   2.657  11.263  0.3599  0.4376  0.0832
  929TIP3    H124278   3.853   2.602  11.192  1.0007 -0.1110  0.2163
  929TIP3    H224279   3.946   2.718  11.222  1.0390 -0.1444  0.2270
  930TIP3   OH224280   1.586   4.049  11.128  0.1688  0.4851 -0.1055
  930TIP3    H124281   1.681   4.045  11.130  0.1410 -2.1859  1.7277
  930TIP3    H224282   1.562   3.997  11.051  0.1987  0.6576 -0.2308
  931TIP3   OH224283   5.647   2.617  14.016 -0.1798  0.3559  0.5696
  931TIP3    H124284   5.686   2.665  14.089 -2.4706  1.3227  1.2572
  931TIP3    H224285   5.649   2.678  13.943 -1.3906  0.8494  0.9275
  932TIP3   OH224286   2.663   0.640  15.735 -0.7673  0.1796  0.2998
  932TIP3    H124287   2.726   0.693  15.783  0.7439  0.0923 -1.4878
  932TIP3    H224288   2.596   0.702  15.707 -0.2512  0.7041  0.2226
  933TIP3   OH224289   2.922   0.024  14.430 -0.6602 -0.1979 -0.6914
  933TIP3    H124290   3.010   0.029  14.393 -0.7452 -0.6130 -0.9611
  933TIP3    H224291   2.895  -0.067  14.415 -0.6528 -0.4034  0.4837
  934TIP3   OH224292   0.053   6.722   0.265  0.5218 -0.0857 -0.1008
  934TIP3    H124293   0.065   6.748   0.173 -0.1074 -0.8692 -0.4205
  934TIP3    H224294   0.088   6.795   0.315 -1.2975  1.4754 -0.9491
  935TIP3   OH224295   5.472   3.283   5.858 -0.1416 -0.2366 -0.2716
  935TIP3    H124296   5.419   3.287   5.938 -0.0731 -0.3815 -0.2186
  935TIP3    H224297   5.525   3.204   5.868 -0.1421 -0.2627 -0.4671
  936TIP3   OH224298   0.140   3.998   5.535 -0.3164  0.0181 -0.3571
  936TIP3    H124299   0.057   3.955   5.516  0.8971 -2.5241 -0.3899
  936TIP3    H224300   0.166   4.039   5.452 -1.1912  0.1921 -0.5456
  937TIP3   OH224301   1.905   4.608  11.910  0.5898  0.1824 -0.0833
  937TIP3    H124302   1.887   4.675  11.844  1.1374  0.4382  0.0221
  937TIP3    H224303   1.991   4.574  11.887 -0.8105 -2.5630 -1.8828
  938TIP3   OH224304   4.099   1.907   3.770 -0.3800  0.4260 -0.1943
  938TIP3    H124305   4.039   1.910   3.844  3.0394 -2.0174  3.0656
  938TIP3    H224306   4.180   1.944   3.803  1.6635 -1.7788 -2.2775
  939TIP3   OH224307   0.032   5.040  16.830 -0.3930  0.1585  0.2145
  939TIP3    H124308   0.065   4.962  16.786  1.6959  0.8267  0.4950
  939TIP3    H224309   0.056   5.029  16.922  0.6738  1.4556  0.1284
  940TIP3   OH224310   5.686   1.643   2.375  0.0163 -0.2127 -0.0921
  940TIP3    H124311   5.653   1.703   2.442 -2.5436 -2.3259  0.7349
  940TIP3    H224312   5.691   1.696   2.295 -0.8329  1.4279  0.8976
  941TIP3   OH224313   4.794   2.102   6.567 -0.0815  0.6671  0.0182
  941TIP3    H124314   4.768   2.193   6.563  0.3342  0.9203  1.9086
  941TIP3    H224315   4.886   2.102   6.542 -0.2134  0.7027 -0.4595
  942TIP3   OH224316   1.812   1.721   3.391 -0.4083  0.2663 -0.2377
  942TIP3    H124317   1.785   1.742   3.302 -0.6738  1.8659  0.1896
  942TIP3    H224318   1.732   1.731   3.444 -0.1414 -0.1539  0.2568
  943TIP3   OH224319   5.301   2.529  12.082  0.3390 -0.0945  0.6380
  943TIP3    H124320   5.361   2.531  12.006 -1.5070 -0.0976 -0.8988
  943TIP3    H224321   5.301   2.618  12.115 -1.2579  0.7819 -1.4530
  944TIP3   OH224322   4.878   0.829  11.609  0.3756 -0.5146  0.0969
  944TIP3    H124323   4.826   0.903  11.642  0.0566 -1.5360  2.0188
  944TIP3    H224324   4.886   0.846  11.515 -0.8366  1.2514  0.2515
  945TIP3   OH224325   3.728   6.009   1.585 -0.1500  0.2824 -0.4833
  945TIP3    H124326   3.807   6.045   1.624  0.1801  0.7354 -1.5156
  945TIP3    H224327   3.669   5.994   1.659  0.9145 -0.1339  0.3104
  946TIP3   OH224328   4.891   1.754  11.601  0.4399 -0.2164 -0.0894
  946TIP3    H124329   4.812   1.796  11.635 -0.0548 -1.8266  0.8528
  946TIP3    H224330   4.910   1.684  11.663  1.2740 -1.3305 -1.5395
  947TIP3   OH224331   3.794   1.089  12.047  0.3808  0.4466  0.9723
  947TIP3    H124332   3.876   1.075  12.000 -1.3820 -2.8412 -1.5728
  947TIP3    H224333   3.779   1.007  12.094 -1.8384  0.5822  0.6136
  948TIP3   OH224334   1.330   1.252  14.882 -0.3574 -0.2466 -0.1744
  948TIP3    H124335   1.287   1.187  14.826  1.5801 -1.2295 -0.5745
  948TIP3    H224336   1.309   1.225  14.971 -1.4710 -0.0495 -0.3572
  949TIP3   OH224337   4.834   1.636   0.524 -0.1862 -0.3103  0.0679
  949TIP3    H124338   4.824   1.672   0.436 -0.0207 -0.2046  0.0913
  949TIP3    H224339   4.926   1.654   0.547 -0.4188  0.3346  0.5481
  950TIP3   OH224340   2.634   5.920  13.027 -0.1181  0.1421 -0.4787
  950TIP3    H124341   2.635   5.982  12.954  2.0915  2.2062  1.1274
  950TIP3    H224342   2.571   5.957  13.089 -0.5208 -0.5195 -0.4829
  951TIP3   OH224343   5.876   3.217   2.250  0.4614 -0.5816 -0.0100
  951TIP3    H124344   5.893   3.309   2.270  1.7379 -0.2092 -2.4679
  951TIP3    H224345   5.927   3.169   2.317 -1.6654  0.3599  2.4481
  952TIP3   OH224346   1.754   0.327   2.519  0.0660  0.1774  0.3346
  952TIP3    H124347   1.819   0.285   2.462  0.4846  0.4759  0.5851
  952TIP3    H224348   1.686   0.359   2.460  0.6208  0.7104 -0.0245
  953TIP3   OH224349   0.984   6.335  16.354 -0.3224  0.3603 -0.4402
  953TIP3    H124350   1.054   6.388  16.394  0.6658 -0.6493 -0.7701
  953TIP3    H224351   1.030   6.277  16.293 -1.2411 -1.5755  0.6247
  954TIP3   OH224352   5.622   5.660  12.591 -0.3691  0.2504  0.5384
  954TIP3    H124353   5.661   5.605  12.523 -0.6505 -0.2312  0.7584
  954TIP3    H224354   5.559   5.715  12.543 -0.7976 -0.3062  0.4384
  955TIP3   OH224355   5.720   2.046   5.137 -0.0618 -0.1078 -0.9913
  955TIP3    H124356   5.742   2.029   5.229  0.8646  0.7588 -1.0320
  955TIP3    H224357   5.662   2.122   5.139 -1.4978 -1.1742 -1.0218
  956TIP3   OH224358   2.587   6.558  16.586  0.1193 -0.5217  0.5344
  956TIP3    H124359   2.647   6.557  16.661  1.6072 -0.7516 -0.5988
  956TIP3    H224360   2.629   6.617  16.524 -1.5234  0.3458  0.1967
  957TIP3   OH224361   0.660   6.174   2.549 -0.0869  0.0820  0.2328
  957TIP3    H124362   0.587   6.213   2.598 -2.9464 -3.5646 -0.6864
  957TIP3    H224363   0.647   6.205   2.459 -1.6258 -1.8132 -0.2566
  958TIP3   OH224364   5.781   4.868  11.274 -0.1705 -0.1699  0.3332
  958TIP3    H124365   5.809   4.786  11.314 -0.7114 -0.3921  0.2628
  958TIP3    H224366   5.837   4.935  11.313  0.9472 -0.6921 -0.3336
  959TIP3   OH224367   2.321   5.345   3.371 -0.1329  0.3888  0.0562
  959TIP3    H124368   2.226   5.353   3.381 -0.7814 -2.4055 -2.4927
  959TIP3    H224369   2.346   5.419   3.315 -0.4576  1.9836  1.9082
  960TIP3   OH224370   0.373   4.502  11.482  0.4578 -0.2268  0.2213
  960TIP3    H124371   0.320   4.558  11.538  0.4949  0.3184 -0.2830
  960TIP3    H224372   0.315   4.478  11.410  0.8528  0.2735 -0.2706
  961TIP3   OH224373   0.965   2.694   4.194 -0.1129  0.4371 -0.0801
  961TIP3    H124374   1.061   2.693   4.187 -0.2104  1.0513 -2.5957
  961TIP3    H224375   0.943   2.786   4.199 -0.5976  0.3997 -1.1534
  962TIP3   OH224376   5.299   2.288  12.558 -0.2044 -0.0958  1.1265
  962TIP3    H124377   5.305   2.314  12.650 -0.5716 -1.8056  1.6614
  962TIP3    H224378   5.386   2.255  12.537 -0.1659  0.1487  0.8967
  963TIP3   OH224379   5.158   5.161  14.561  0.1302  0.3579  0.2883
  963TIP3    H124380   5.250   5.174  14.581  0.2325  0.7717 -0.4194
  963TIP3    H224381   5.114   5.238  14.599  0.2758  0.9416 -0.6850
  964TIP3   OH224382   1.847   3.952   1.732 -0.2259 -0.0731 -0.9578
  964TIP3    H124383   1.867   3.934   1.641  0.8736  0.2235 -0.7891
  964TIP3    H224384   1.926   3.928   1.780 -1.0782 -1.0462  0.0328
  965TIP3   OH224385   5.883   0.184  12.371  0.5215  0.1648 -0.1045
  965TIP3    H124386   5.862   0.277  12.371 -0.8235 -0.0957  1.4181
  965TIP3    H224387   5.801   0.141  12.396  1.3600 -1.3617  0.1534
  966TIP3   OH224388   5.400   5.937  11.897  0.4743 -0.2762 -0.2643
  966TIP3    H124389   5.404   6.028  11.868  2.9325 -0.3942 -0.5383
  966TIP3    H224390   5.401   5.887  11.815  2.0179 -0.5443 -0.1098
  967TIP3   OH224391   0.876   0.330  12.114  0.0426 -0.3064  0.0243
  967TIP3    H124392   0.789   0.354  12.144  0.2992  1.6194 -0.6216
  967TIP3    H224393   0.880   0.235  12.124 -0.9191 -0.1036  3.2121
  968TIP3   OH224394   6.817   1.109   0.286 -0.0861 -0.9819 -0.3298
  968TIP3    H124395   6.768   1.083   0.209 -1.0856 -0.0426 -0.0332
  968TIP3    H224396   6.855   1.194   0.264 -0.3612 -0.7162  0.1897
  969TIP3   OH224397   6.288   5.848   2.907 -0.4765 -0.5260  0.5316
  969TIP3    H124398   6.309   5.795   2.830  1.6725 -1.1492  1.4512
  969TIP3    H224399   6.248   5.787   2.968 -3.4335  0.2496 -0.4877
  970TIP3   OH224400   3.039   4.037  11.655  0.2963  0.6050  0.4693
  970TIP3    H124401   3.007   4.064  11.569  0.6832 -0.4154 -0.0086
  970TIP3    H224402   2.973   3.977  11.688  0.8009 -0.0707  0.2791
  971TIP3   OH224403   6.514   3.970   0.824  0.6219 -0.0996 -0.3961
  971TIP3    H124404   6.529   3.905   0.756  2.5198  0.8096 -0.9044
  971TIP3    H224405   6.424   3.953   0.854 -0.2500 -0.5824 -3.0473
  972TIP3   OH224406   1.407   3.972  11.662  0.5597  0.4524  0.1248
  972TIP3    H124407   1.320   4.010  11.660 -0.1765 -1.1286  0.8411
  972TIP3    H224408   1.439   3.981  11.572 -1.2029 -0.8326 -0.6706
  973TIP3   OH224409   6.652   2.182  14.571  0.4406 -0.1751  0.2202
  973TIP3    H124410   6.584   2.240  14.606 -0.7824 -1.6749  0.4741
  973TIP3    H224411   6.728   2.238  14.559 -0.2170  1.1678  1.8463
  974TIP3   OH224412   4.158   3.192  11.752  0.1328  0.0529 -1.0067
  974TIP3    H124413   4.117   3.164  11.834  0.5199 -1.0347 -1.1691
  974TIP3    H224414   4.220   3.261  11.779 -1.6272  1.6215 -0.7456
  975TIP3   OH224415   3.501   1.825  12.577  0.3421  0.3764  0.2521
  975TIP3    H124416   3.473   1.887  12.645 -0.5211 -0.3746  0.6076
  975TIP3    H224417   3.431   1.760  12.574  1.6980 -1.1687  0.6279
  976TIP3   OH224418   2.048   6.434  16.255 -0.0378  0.3410  0.0243
  976TIP3    H124419   2.010   6.511  16.298  0.6037 -0.0857  1.4209
  976TIP3    H224420   1.999   6.360  16.291  0.8374 -0.0671  0.4015
  977TIP3   OH224421   5.136   4.042   0.527 -0.4124 -0.2798 -0.0691
  977TIP3    H124422   5.209   4.104   0.526 -0.1871 -0.4621  1.5519
  977TIP3    H224423   5.107   4.037   0.436 -0.0217  1.6999 -0.3471
  978TIP3   OH224424   4.143   0.453  13.026  0.1318  0.0694 -0.0238
  978TIP3    H124425   4.132   0.519  12.958  1.0108  0.7322  0.4712
  978TIP3    H224426   4.212   0.395  12.993 -0.3530 -0.3771 -0.2729
  979TIP3   OH224427   2.209   0.543  16.692 -0.3531 -0.0404  0.0267
  979TIP3    H124428   2.179   0.493  16.616 -1.5564  0.1197  0.3785
  979TIP3    H224429   2.240   0.626  16.657 -1.1670  0.1418 -0.2631
  980TIP3   OH224430   2.432   1.403   6.459  0.3831 -0.2678 -0.1500
  980TIP3    H124431   2.353   1.427   6.506  2.3296  2.2686  2.1762
  980TIP3    H224432   2.430   1.457   6.380  0.9333  1.9021  1.2103
  981TIP3   OH224433   4.632   1.500   6.807  0.0668  0.0641 -0.1007
  981TIP3    H124434   4.683   1.537   6.734 -0.8793 -0.8182 -1.2437
  981TIP3    H224435   4.550   1.549   6.805  0.3175  0.5422  0.8655
  982TIP3   OH224436   0.169   1.985  15.899  0.1470 -0.1330  0.1261
  982TIP3    H124437   0.133   1.899  15.878  0.6629 -0.6669  1.3424
  982TIP3    H224438   0.117   2.046  15.846 -0.2258 -1.1751 -0.7626
  983TIP3   OH224439   1.179   2.886  13.618 -0.3061 -0.4043  0.5413
  983TIP3    H124440   1.122   2.916  13.689 -0.7980  1.0628 -0.4275
  983TIP3    H224441   1.129   2.901  13.538  1.4902  1.2328 -0.3696
  984TIP3   OH224442   5.706   6.004  11.238  0.0537  0.4935  0.5633
  984TIP3    H124443   5.770   6.052  11.290  0.5785  0.9252 -0.4751
  984TIP3    H224444   5.710   6.042  11.151 -2.8227  1.6979  0.8262
  985TIP3   OH224445   4.199   6.220  15.326 -0.3009 -0.0854 -0.8927
  985TIP3    H124446   4.271   6.282  15.315 -0.3716  0.9348  3.0489
  985TIP3    H224447   4.240   6.142  15.363 -1.0545  0.3767  1.0452
  986TIP3   OH224448   2.948   5.313  11.364  0.2577  0.7892 -0.3524
  986TIP3    H124449   3.012   5.335  11.297 -0.4081  0.9257 -0.9609
  986TIP3    H224450   2.937   5.218  11.357  0.2735  0.7884 -0.3642
  987TIP3   OH224451   5.214   0.413  13.976  0.0572  0.1184  0.2952
  987TIP3    H124452   5.282   0.350  13.953 -1.7200 -1.6391 -0.4904
  987TIP3    H224453   5.183   0.385  14.062  0.2444  0.8523  0.6110
  988TIP3   OH224454   5.729   6.036  11.848 -0.2225  0.1563 -0.2337
  988TIP3    H124455   5.662   6.087  11.894  0.4260  0.4402  0.4186
  988TIP3    H224456   5.804   6.036  11.908 -0.0151 -1.0902 -0.4851
  989TIP3   OH224457   4.495   1.602  12.663  0.6435 -0.4621  0.3766
  989TIP3    H124458   4.556   1.640  12.600 -0.4411 -0.2500 -0.5754
  989TIP3    H224459   4.548   1.585  12.740  1.4510  1.7162  0.3575
  990TIP3   OH224460   5.068   1.138   5.084 -0.4600  0.1883 -0.1042
  990TIP3    H124461   4.995   1.103   5.032 -0.9302 -0.6255  1.0647
  990TIP3    H224462   5.080   1.227   5.052 -0.6254 -0.3371 -1.7169
  991TIP3   OH224463   0.415   5.948  15.863  0.3179 -0.3620 -0.1040
  991TIP3    H124464   0.324   5.957  15.837  0.2341 -0.5485  0.1172
  991TIP3    H224465   0.428   6.016  15.929  0.9904  1.2120 -1.8043
  992TIP3   OH224466   3.836   1.950  13.959 -0.1063 -0.0340 -0.1825
  992TIP3    H124467   3.916   1.929  14.008 -0.3400  1.1612  0.7583
  992TIP3    H224468   3.846   2.041  13.933 -0.7316 -0.1639 -0.9458
  993TIP3   OH224469   2.708   3.922  14.817 -0.9370 -0.3246 -0.0625
  993TIP3    H124470   2.705   3.837  14.862 -0.7885 -1.0625 -1.3798
  993TIP3    H224471   2.620   3.957  14.828 -0.9938 -0.6246  0.5271
  994TIP3   OH224472   1.727   0.031   3.204 -0.6313  0.3080 -0.3328
  994TIP3    H124473   1.668   0.025   3.129 -0.7957  1.6250 -0.3240
  994TIP3    H224474   1.703  -0.045   3.258 -0.2388 -0.9003 -1.7633
  995TIP3   OH224475   5.996   4.715  15.199  0.0826  0.2971  0.1670
  995TIP3    H124476   5.909   4.715  15.238  0.6732 -1.0803  1.6090
  995TIP3    H224477   6.005   4.629  15.159  0.7369  0.4607 -0.0554
  996TIP3   OH224478   1.816   2.994  16.974 -0.0917  0.0563 -0.1958
  996TIP3    H124479   1.846   3.000  17.065 -1.0438  2.5518  0.0132
  996TIP3    H224480   1.897   2.998  16.922  0.3608  0.0689  0.4917
  997TIP3   OH224481   4.949   6.083   0.515  0.5808  0.0575  0.1573
  997TIP3    H124482   4.991   6.162   0.479  0.1486  0.1626 -0.1284
  997TIP3    H224483   4.884   6.059   0.449  1.9917 -1.6751 -0.7171
  998TIP3   OH224484   5.258   1.861   2.934 -0.4424  0.3469  0.0228
  998TIP3    H124485   5.282   1.797   2.867 -0.4337 -0.2129  0.5568
  998TIP3    H224486   5.322   1.848   3.004 -1.5374 -0.3413  0.9456
  999TIP3   OH224487   0.488   4.792  10.737 -0.5379  0.6638  0.2251
  999TIP3    H124488   0.519   4.829  10.654  1.2585 -0.1813  0.4791
  999TIP3    H224489   0.437   4.715  10.711 -1.6126  1.4791 -0.1526
 1000TIP3   OH224490   3.695   5.849   0.124 -0.4428  0.8924  0.6419
 1000TIP3    H124491   3.685   5.757   0.102  0.0622  1.1864 -0.9262
 1000TIP3    H224492   3.786   5.856   0.153 -0.6744  0.7864  1.4156
 1001TIP3   OH224493   4.711   4.437   0.560 -0.1366 -0.4489 -0.4068
 1001TIP3    H124494   4.755   4.404   0.481  0.7045 -1.7141  0.5562
 1001TIP3    H224495   4.736   4.530   0.563  0.2053 -0.4941 -1.3757
 1002TIP3   OH224496   6.274   0.744  14.138 -0.0472 -0.4868 -0.2628
 1002TIP3    H124497   6.351   0.750  14.081 -0.6984 -0.1636 -1.1244
 1002TIP3    H224498   6.214   0.810  14.105 -0.6574 -0.6516  0.4823
 1003TIP3   OH224499   0.919   0.682   1.677  0.3049  0.4910 -0.1660
 1003TIP3    H124500   0.841   0.725   1.642 -0.9268  0.4409  2.3211
 1003TIP3    H224501   0.990   0.743   1.660 -0.4627  1.0797 -1.4336
 1004TIP3   OH224502   1.862   4.088  11.166 -0.1354 -0.0472 -0.0075
 1004TIP3    H124503   1.950   4.119  11.148 -1.1367  2.5885 -0.8770
 1004TIP3    H224504   1.863   4.062  11.258  1.3686  0.5704  0.1737
 1005TIP3   OH224505   6.030   3.690  16.783  0.9105 -0.0063  0.1184
 1005TIP3    H124506   6.124   3.700  16.797  0.6875  1.9050  0.5030
 1005TIP3    H224507   6.004   3.769  16.735 -0.5555 -0.3331  0.3243
 1006TIP3   OH224508   2.061   1.842  13.295 -0.1546  0.4358  0.1471
 1006TIP3    H124509   2.113   1.848  13.375  0.9075  0.0862 -0.4966
 1006TIP3    H224510   2.030   1.751  13.294  0.7278  0.1262 -0.3606
 1007TIP3   OH224511   5.617   4.164  15.794 -0.5581  0.1926  0.1312
 1007TIP3    H124512   5.534   4.197  15.829 -0.6237  0.9212 -0.6668
 1007TIP3    H224513   5.684   4.211  15.843 -0.6521  1.8235 -1.2012
 1008TIP3   OH224514   1.484   2.772  10.886 -0.1453 -0.0256 -0.0854
 1008TIP3    H124515   1.565   2.822  10.885 -0.7451  1.0917  1.4848
 1008TIP3    H224516   1.466   2.757  10.979 -1.9779  0.1817 -0.3619
 1009TIP3   OH224517   5.083   0.285  14.865 -0.0029 -0.1698 -0.1087
 1009TIP3    H124518   4.992   0.259  14.879  0.1983 -0.3931  0.9045
 1009TIP3    H224519   5.092   0.294  14.770 -1.1404  0.0951 -0.1995
 1010TIP3   OH224520   1.205   5.058  13.414  0.0249  0.9896  0.0695
 1010TIP3    H124521   1.143   4.987  13.432 -0.6303  1.5093 -0.0892
 1010TIP3    H224522   1.159   5.138  13.443 -0.5411  1.7285 -2.5467
 1011TIP3   OH224523   4.564   2.205  12.659 -0.7431 -0.2766  0.4832
 1011TIP3    H124524   4.625   2.213  12.585 -1.1433  0.7103  0.2468
 1011TIP3    H224525   4.540   2.112  12.660 -1.1835 -0.2043 -1.0027
 1012TIP3   OH224526   5.205   5.112   4.824 -0.3068 -0.1441  0.0190
 1012TIP3    H124527   5.116   5.077   4.836 -1.3120  2.1434 -0.3179
 1012TIP3    H224528   5.211   5.129   4.730  0.8697 -1.1531 -0.1122
 1013TIP3   OH224529   6.573   6.763  16.227 -0.1144 -0.3729 -0.5235
 1013TIP3    H124530   6.640   6.750  16.295 -0.7340 -0.5476  0.0588
 1013TIP3    H224531   6.559   6.857  16.224  2.4981  0.0860 -2.9343
 1014TIP3   OH224532   1.688   2.093  11.191  0.5666 -0.2629 -0.2879
 1014TIP3    H124533   1.650   2.075  11.104  0.2572  0.1057 -0.2318
 1014TIP3    H224534   1.617   2.134  11.240  0.3222 -1.6805  0.5792
 1015TIP3   OH224535   5.343   1.858   2.231  0.3724  0.5259  0.2692
 1015TIP3    H124536   5.258   1.814   2.237 -0.5728  1.8707 -1.9147
 1015TIP3    H224537   5.344   1.920   2.304 -0.1683 -0.0312  0.7628
 1016TIP3   OH224538   3.687   3.553   6.202 -0.2974  0.0295  0.4701
 1016TIP3    H124539   3.655   3.478   6.252  0.5154  0.4840  1.7321
 1016TIP3    H224540   3.744   3.600   6.263  1.5532  0.0842 -1.1902
 1017TIP3   OH224541   6.715   6.742   1.630  0.0163  0.1043 -0.3482
 1017TIP3    H124542   6.692   6.701   1.546 -1.5346  0.0650  0.0629
 1017TIP3    H224543   6.773   6.814   1.606 -0.5952  0.2480 -1.4974
 1018TIP3   OH224544   1.802   0.374   2.254 -0.7327 -0.0513  0.8974
 1018TIP3    H124545   1.883   0.326   2.270 -0.6606 -0.6335 -0.9780
 1018TIP3    H224546   1.829   0.465   2.247 -0.5070 -0.0209  1.8995
 1019TIP3   OH224547   0.904   2.290  12.936  0.0261  0.3670  0.1562
 1019TIP3    H124548   0.901   2.292  13.031  0.9529  1.3230  0.1799
 1019TIP3    H224549   0.996   2.304  12.914 -0.3211  1.2010 -0.8772
 1020TIP3   OH224550   0.173   1.457  14.082  0.5481 -0.2237  0.3171
 1020TIP3    H124551   0.257   1.426  14.048 -0.1505 -0.7360 -0.9747
 1020TIP3    H224552   0.142   1.520  14.018  0.3804  0.6933  1.2715
 1021TIP3   OH224553   1.264   2.970  12.448  0.4695 -0.3128  0.0944
 1021TIP3    H124554   1.194   2.981  12.383  1.8975 -1.9634 -1.8749
 1021TIP3    H224555   1.232   2.904  12.508 -0.4619  0.4791  0.4966
 1022TIP3   OH224556   1.589   6.289  13.017  0.2769 -0.1168 -0.3976
 1022TIP3    H124557   1.584   6.385  13.013  0.8977 -0.1029 -3.7605
 1022TIP3    H224558   1.504   6.260  12.983  0.5875 -0.7426 -0.6433
 1023TIP3   OH224559   2.381   6.415   4.868 -0.0436  0.0790  0.5135
 1023TIP3    H124560   2.303   6.369   4.900  0.3455  0.0051  1.3805
 1023TIP3    H224561   2.355   6.506   4.862 -0.4976 -0.0846 -0.1908
 1024TIP3   OH224562   3.299   2.590   3.397 -0.0430 -0.2956  0.3167
 1024TIP3    H124563   3.264   2.672   3.363  2.7954  0.6065 -0.6809
 1024TIP3    H224564   3.331   2.612   3.484 -0.3503 -0.6602  0.5255
 1025TIP3   OH224565   1.862   5.679   3.554  0.0751  0.0408 -0.0098
 1025TIP3    H124566   1.860   5.746   3.486  0.2316 -0.8483 -0.9119
 1025TIP3    H224567   1.953   5.678   3.583  0.2425 -0.2893 -0.5279
 1026TIP3   OH224568   0.141   2.157  12.175  0.0607 -0.3013 -0.1975
 1026TIP3    H124569   0.194   2.237  12.181 -0.7634  0.6491 -3.4654
 1026TIP3    H224570   0.050   2.188  12.181 -0.2502 -1.4346  1.5706
 1027TIP3   OH224571   1.823   0.328  15.034 -0.2201 -0.4805  0.2825
 1027TIP3    H124572   1.894   0.321  14.971  0.3035  3.3846  0.2122
 1027TIP3    H224573   1.750   0.365  14.984 -0.2324  1.3364  1.5443
 1028TIP3   OH224574   5.207   3.488   2.326 -0.0226  0.0434  0.4960
 1028TIP3    H124575   5.251   3.407   2.350 -1.5436 -1.4180 -1.3239
 1028TIP3    H224576   5.117   3.476   2.354 -0.4727  0.7236 -0.5885
 1029TIP3   OH224577   1.004   2.749  11.920 -0.6920  0.0556  0.7222
 1029TIP3    H124578   0.964   2.681  11.866 -0.7167  1.5788 -1.2980
 1029TIP3    H224579   0.931   2.793  11.963 -0.9922  0.9644 -0.6709
 1030TIP3   OH224580   1.885   5.795  13.180 -0.6898  0.5386 -0.0350
 1030TIP3    H124581   1.980   5.798  13.192 -0.5671 -0.6125 -0.5913
 1030TIP3    H224582   1.867   5.867  13.119 -0.0870  0.4031 -0.3886
 1031TIP3   OH224583   6.292   5.561  13.372  0.2778 -0.4041  0.3945
 1031TIP3    H124584   6.380   5.525  13.386  1.1006  1.4338  0.2213
 1031TIP3    H224585   6.284   5.630  13.438 -0.7695 -0.0887 -0.0476
 1032TIP3   OH224586   5.487   4.714   5.212  0.3123  0.0463  0.5639
 1032TIP3    H124587   5.567   4.764   5.193  0.0759  0.5289  0.8136
 1032TIP3    H224588   5.470   4.665   5.132 -0.7777  2.2102 -0.6308
 1033TIP3   OH224589   0.876   5.599   3.043 -0.9661  0.3821 -0.5630
 1033TIP3    H124590   0.903   5.682   3.080  2.4725 -0.3985 -1.0394
 1033TIP3    H224591   0.883   5.536   3.115  0.2415 -0.1310 -1.0989
 1034TIP3   OH224592   0.386   2.365   6.026 -0.1069 -0.1800  0.2214
 1034TIP3    H124593   0.439   2.443   6.013 -0.0023 -0.0782  1.1883
 1034TIP3    H224594   0.369   2.363   6.120 -3.0464  0.6105 -0.1910
 1035TIP3   OH224595   1.106   4.256   3.735 -0.1677  0.3111 -0.2618
 1035TIP3    H124596   1.141   4.232   3.820  0.6653  0.8870 -0.4269
 1035TIP3    H224597   1.011   4.255   3.746 -0.0954 -0.6130  0.3856
 1036TIP3   OH224598   2.364   0.499  12.455 -0.0028  0.0919  0.1546
 1036TIP3    H124599   2.276   0.535  12.468  0.1312  0.3307  0.4017
 1036TIP3    H224600   2.420   0.550  12.513  0.5491  0.9081 -1.0546
 1037TIP3   OH224601   4.254   1.473   4.286  0.2768 -0.6509  0.1762
 1037TIP3    H124602   4.190   1.499   4.220  0.9692 -1.7979 -0.9960
 1037TIP3    H224603   4.277   1.383   4.264 -1.6229 -2.2342  3.7308
 1038TIP3   OH224604   6.512   3.741   3.261  0.0564 -0.3121  0.4499
 1038TIP3    H124605   6.516   3.702   3.349 -2.4934  0.3341  0.9054
 1038TIP3    H224606   6.547   3.830   3.273 -2.4154  0.6121  1.3986
 1039TIP3   OH224607   0.137   4.452  12.779  0.9468  0.3193 -0.2318
 1039TIP3    H124608   0.228   4.449  12.749  0.9378 -1.0587 -0.2011
 1039TIP3    H224609   0.117   4.362  12.804 -0.2353  0.7198  0.3682
 1040TIP3   OH224610   2.255   4.165   2.204  0.6050 -0.1110 -0.1360
 1040TIP3    H124611   2.290   4.116   2.130  1.1388  0.8378 -0.5231
 1040TIP3    H224612   2.172   4.202   2.172  0.4609 -0.3200 -0.0099
 1041TIP3   OH224613   6.680   2.388   0.699  0.2417  0.3427 -0.0495
 1041TIP3    H124614   6.635   2.423   0.623  0.9497  2.0637  0.2816
 1041TIP3    H224615   6.617   2.396   0.770  1.0611  3.0517  0.4841
 1042TIP3   OH224616   4.035   1.152  13.315  0.1671  0.4863 -0.5276
 1042TIP3    H124617   3.996   1.232  13.279  1.7693  1.5019 -0.0831
 1042TIP3    H224618   4.044   1.093  13.240  1.1594  1.6280 -1.3303
 1043TIP3   OH224619   0.531   4.606   4.819  0.5753  0.1198  0.0466
 1043TIP3    H124620   0.498   4.560   4.742  2.0892 -1.3170  0.2093
 1043TIP3    H224621   0.462   4.669   4.840 -0.5949 -0.5763 -1.4980
 1044TIP3   OH224622   2.751   2.377  15.767  0.2459 -0.4583 -0.0754
 1044TIP3    H124623   2.725   2.454  15.817 -2.5443 -1.0360 -0.4538
 1044TIP3    H224624   2.784   2.412  15.684  0.3334  0.3792  0.3087
 1045TIP3   OH224625   1.861   3.077  12.608  0.1693  0.0146 -0.5491
 1045TIP3    H124626   1.788   3.075  12.547 -0.0592  0.6544 -0.3005
 1045TIP3    H224627   1.821   3.092  12.693  0.6636  1.5686 -0.5652
 1046TIP3   OH224628   4.393   4.176   1.085  0.0308 -0.2446  0.2771
 1046TIP3    H124629   4.379   4.200   1.176 -0.5316 -0.1516  0.1681
 1046TIP3    H224630   4.392   4.258   1.037  1.3658 -0.1839  0.2997
 1047TIP3   OH224631   4.852   5.777   0.407 -0.0568 -0.4087  0.4666
 1047TIP3    H124632   4.931   5.806   0.361 -1.3253 -1.4726 -2.6510
 1047TIP3    H224633   4.883   5.712   0.470  1.8241  1.3826  1.5233
 1048TIP3   OH224634   1.389   5.244   0.069 -0.1659  0.8222 -0.0709
 1048TIP3    H124635   1.451   5.317   0.074  1.1726 -0.3632  2.5012
 1048TIP3    H224636   1.360   5.231   0.159 -0.9036 -1.3646 -0.5609
 1049TIP3   OH224637   6.204   3.679   4.157  0.9900  0.4134 -0.7605
 1049TIP3    H124638   6.194   3.751   4.219  0.4054 -1.6449  1.6648
 1049TIP3    H224639   6.299   3.663   4.154  1.1838  1.5944 -1.7652
 1050TIP3   OH224640   3.836   3.173  13.487 -0.4751  1.4710  0.0048
 1050TIP3    H124641   3.769   3.216  13.541 -0.4604 -1.3147  2.4879
 1050TIP3    H224642   3.919   3.198  13.528 -0.2631  1.4550 -0.4118
 1051TIP3   OH224643   0.403   3.800  12.723  1.0502 -0.8663  0.8451
 1051TIP3    H124644   0.332   3.864  12.728  1.5529 -0.2319  0.0960
 1051TIP3    H224645   0.367   3.721  12.763 -0.9025 -1.2824 -1.5210
 1052TIP3   OH224646   6.609   5.928   3.381  0.6018  0.2563  0.2110
 1052TIP3    H124647   6.515   5.919   3.394  0.4117 -0.5612 -1.5258
 1052TIP3    H224648   6.635   5.996   3.443 -1.0593  0.2380  0.9777
 1053TIP3   OH224649   3.594   3.818   2.343  0.1675  0.2224 -0.3373
 1053TIP3    H124650   3.564   3.907   2.326  0.2967  0.3990  0.2963
 1053TIP3    H224651   3.683   3.830   2.377  0.3395 -0.1786 -0.6415
 1054TIP3   OH224652   2.350   2.153   3.157  0.0956  0.4631 -0.3832
 1054TIP3    H124653   2.365   2.118   3.069 -0.1148 -3.2058  0.8760
 1054TIP3    H224654   2.258   2.180   3.157 -0.0421  0.0253 -1.1203
 1055TIP3   OH224655   2.437   5.610  14.041 -0.3588 -0.0059  0.0588
 1055TIP3    H124656   2.349   5.625  14.005 -0.0935 -1.1033 -1.1242
 1055TIP3    H224657   2.490   5.587  13.965  0.6220 -0.7962  0.9533
 1056TIP3   OH224658   1.454   3.706  14.450 -0.1474 -0.3091  0.1655
 1056TIP3    H124659   1.404   3.684  14.371  0.7953 -3.7100  0.3540
 1056TIP3    H224660   1.525   3.761  14.419 -0.6368 -0.3741 -1.1272
 1057TIP3   OH224661   3.395   5.784   4.107 -0.0581 -0.1147  0.0312
 1057TIP3    H124662   3.420   5.873   4.081  0.2219  0.1191  1.0372
 1057TIP3    H224663   3.345   5.751   4.033  0.4171  0.6306 -0.6506
 1058TIP3   OH224664   0.252   5.645   5.620 -0.7070 -0.1476 -0.3704
 1058TIP3    H124665   0.278   5.578   5.683  0.0757 -0.8745 -1.4133
 1058TIP3    H224666   0.334   5.673   5.579 -1.1206  0.8320 -0.5507
 1059TIP3   OH224667   1.768   0.277  10.657 -0.1789 -0.5460 -0.7445
 1059TIP3    H124668   1.860   0.260  10.640  0.0616 -0.6795  0.6152
 1059TIP3    H224669   1.765   0.369  10.684 -0.3611 -0.6986 -0.2350
 1060TIP3   OH224670   3.081   3.015  12.988  0.3436  0.0659  0.1814
 1060TIP3    H124671   2.997   2.987  13.023 -0.4014  0.0304 -1.5771
 1060TIP3    H224672   3.143   2.997  13.059 -0.5805 -2.9837  0.3595
 1061TIP3   OH224673   5.959   4.176   0.015 -0.0774 -0.1655 -0.3830
 1061TIP3    H124674   5.896   4.248   0.011  0.9807  0.7756 -0.8514
 1061TIP3    H224675   5.935   4.127   0.094 -0.4322  1.0974  0.3253
 1062TIP3   OH224676   2.228   0.451   5.135 -0.5835 -0.5930 -0.4681
 1062TIP3    H124677   2.293   0.475   5.069 -0.9156 -0.8285 -0.8862
 1062TIP3    H224678   2.257   0.366   5.167 -0.1269 -0.2331  0.0745
 1063TIP3   OH224679   6.299   2.759   0.141 -0.1329 -0.3245  0.0971
 1063TIP3    H124680   6.372   2.806   0.182  1.5835 -1.6725 -1.2043
 1063TIP3    H224681   6.289   2.679   0.194 -0.3513 -0.3567  0.0071
 1064TIP3   OH224682   3.834   6.261  13.487  0.8028  0.1133  0.2266
 1064TIP3    H124683   3.805   6.299  13.570 -0.4172  2.8507 -1.3539
 1064TIP3    H224684   3.918   6.304  13.469  0.4611  0.4675 -0.5511
 1065TIP3   OH224685   0.612   2.944  12.993 -0.2926 -0.0543 -0.1655
 1065TIP3    H124686   0.624   2.921  12.901  0.6207 -0.0874 -0.0473
 1065TIP3    H224687   0.518   2.958  13.002 -0.7972 -2.7398 -0.4694
 1066TIP3   OH224688   0.935   3.074   1.065 -0.5574 -0.5262  0.1500
 1066TIP3    H124689   0.979   3.114   0.991  0.2752  0.5991  1.2151
 1066TIP3    H224690   0.946   2.980   1.052 -1.1639 -0.3986 -1.5671
 1067TIP3   OH224691   1.272   5.545  15.632 -0.3180 -0.1262  0.2904
 1067TIP3    H124692   1.224   5.628  15.634 -0.1540  0.0059 -0.5718
 1067TIP3    H224693   1.363   5.569  15.648 -0.1549 -0.0277 -0.7068
 1068TIP3   OH224694   1.760   0.913  14.413  0.5596 -0.3711  0.1909
 1068TIP3    H124695   1.736   0.907  14.321 -0.7100 -1.7945  0.5586
 1068TIP3    H224696   1.828   0.980  14.417 -0.8066  1.2191 -1.4915
 1069TIP3   OH224697   3.970   1.493  14.776  0.2372 -0.1873  0.0353
 1069TIP3    H124698   4.055   1.538  14.778  0.0106  0.2304  0.3707
 1069TIP3    H224699   3.906   1.563  14.783 -0.1819 -0.3846 -1.4693
 1070TIP3   OH224700   2.026   6.578  12.247 -0.7501 -0.2737  0.4944
 1070TIP3    H124701   1.953   6.518  12.258 -2.0955  1.3135  0.5540
 1070TIP3    H224702   1.994   6.662  12.279  0.6753  0.7562 -0.6138
 1071TIP3   OH224703   5.284   2.475  13.906  0.0189 -0.1382 -0.1577
 1071TIP3    H124704   5.320   2.489  13.818 -2.1791  0.9053 -0.9796
 1071TIP3    H224705   5.317   2.549  13.957 -2.4825  2.0444 -1.4701
 1072TIP3   OH224706   2.277   5.366  13.535  0.0163  0.1171  0.1081
 1072TIP3    H124707   2.365   5.381  13.571  0.3692  0.7851 -0.9721
 1072TIP3    H224708   2.268   5.271  13.533  1.7656 -0.0853 -2.1100
 1073TIP3   OH224709   4.899   2.453   2.373  1.0210  0.4230 -0.0584
 1073TIP3    H124710   4.969   2.408   2.419  1.1940  0.5912 -0.1539
 1073TIP3    H224711   4.843   2.488   2.442  1.5891  1.1618  0.0477
 1074TIP3   OH224712   4.616   6.772   2.746  0.2111 -0.2229  0.0619
 1074TIP3    H124713   4.678   6.824   2.796 -0.9923  0.7190  0.6216
 1074TIP3    H224714   4.533   6.779   2.794 -0.2639 -1.7540 -0.4545
 1075TIP3   OH224715   5.224   2.363   2.224 -0.1636  0.0896 -0.4873
 1075TIP3    H124716   5.176   2.370   2.306  1.0568  0.0957  0.2576
 1075TIP3    H224717   5.159   2.335   2.160 -0.4671 -3.8276  1.2327
 1076TIP3   OH224718   1.482   6.392  13.930 -0.4076  0.2835 -0.2008
 1076TIP3    H124719   1.444   6.304  13.936  0.5868 -0.0922  0.8640
 1076TIP3    H224720   1.540   6.387  13.854 -0.7897  0.2067 -0.4972
 1077TIP3   OH224721   6.334   4.259  12.733  0.6321  0.0802 -0.1370
 1077TIP3    H124722   6.322   4.294  12.821  1.9782  0.8617 -0.2356
 1077TIP3    H224723   6.249   4.269  12.691 -0.0902 -0.4975  1.1193
 1078TIP3   OH224724   4.145   4.723   5.452  0.0448 -0.0807 -0.5353
 1078TIP3    H124725   4.064   4.673   5.449 -0.3061  0.3903  0.5369
 1078TIP3    H224726   4.175   4.716   5.543 -0.3143  2.0791 -0.1904
 1079TIP3   OH224727   3.842   5.617  16.755 -0.2207 -0.5972 -0.3424
 1079TIP3    H124728   3.796   5.617  16.671  0.0349 -0.1900 -0.4841
 1079TIP3    H224729   3.926   5.658  16.736  0.5151 -2.0069 -0.2477
 1080TIP3   OH224730   1.638   0.105   4.302  0.5015 -0.5591  0.7861
 1080TIP3    H124731   1.643   0.112   4.398 -1.1328 -0.3593  0.8845
 1080TIP3    H224732   1.637   0.195   4.272 -0.0897 -0.6015  0.6660
 1081TIP3   OH224733   2.825   3.480  14.778  0.0907 -0.2959 -0.2980
 1081TIP3    H124734   2.782   3.533  14.845 -0.4247  0.0453 -0.8885
 1081TIP3    H224735   2.871   3.543  14.723 -0.4293 -0.4698 -0.9341
 1082TIP3   OH224736   2.654   4.502   0.189 -0.7490 -0.4340 -0.0336
 1082TIP3    H124737   2.727   4.446   0.160 -1.2503 -2.7803  2.8021
 1082TIP3    H224738   2.588   4.491   0.121  0.3508 -0.7621 -1.1047
 1083TIP3   OH224739   5.492   4.633   1.404  0.1580  0.0119 -0.5954
 1083TIP3    H124740   5.434   4.678   1.342 -0.5498 -0.8439 -0.5748
 1083TIP3    H224741   5.469   4.669   1.489  0.0841  0.1041 -0.6539
 1084TIP3   OH224742   0.486   5.174   4.823  0.7150  0.3523 -1.0344
 1084TIP3    H124743   0.536   5.112   4.876 -0.2083  0.8509  0.4970
 1084TIP3    H224744   0.440   5.120   4.759 -0.2542 -0.6229  0.4244
 1085TIP3   OH224745   0.615   0.295   4.773 -0.4152  0.5677 -0.5185
 1085TIP3    H124746   0.707   0.276   4.753 -0.2034  0.0963  0.7626
 1085TIP3    H224747   0.616   0.386   4.804  0.0001 -0.0431  1.4354
 1086TIP3   OH224748   5.951   1.324   1.580 -0.5100 -0.0338  0.4765
 1086TIP3    H124749   5.995   1.246   1.613 -2.3738 -1.1973  0.3577
 1086TIP3    H224750   5.936   1.306   1.487 -0.0451  0.9381  0.1957
 1087TIP3   OH224751   2.866   0.197  14.146 -0.2525  0.0422 -0.5104
 1087TIP3    H124752   2.916   0.125  14.184 -0.8613 -1.4053 -2.2845
 1087TIP3    H224753   2.926   0.237  14.083  0.5800  2.1005  1.4582
 1088TIP3   OH224754   5.144   2.005   4.929  0.3550 -0.4517 -0.4021
 1088TIP3    H124755   5.066   2.059   4.921  0.1805 -0.5280  0.6452
 1088TIP3    H224756   5.111   1.917   4.946  0.6485 -0.7970 -1.5464
 1089TIP3   OH224757   0.225   5.793   1.361 -0.0490 -0.3599  0.0119
 1089TIP3    H124758   0.231   5.868   1.420 -1.5148  0.1047 -0.3714
 1089TIP3    H224759   0.313   5.784   1.323  0.0859  1.3736 -0.1668
 1090TIP3   OH224760   5.757   0.364  14.885  0.2421 -0.0367  0.1397
 1090TIP3    H124761   5.709   0.282  14.899  0.6689 -0.4192 -0.5808
 1090TIP3    H224762   5.839   0.337  14.844 -0.2466  0.8777 -1.5135
 1091TIP3   OH224763   3.245   3.542  11.508 -0.2971  0.0444  0.1438
 1091TIP3    H124764   3.199   3.458  11.514 -0.3885  0.0634 -0.2706
 1091TIP3    H224765   3.184   3.606  11.542 -0.2918 -0.0341  0.3018
 1092TIP3   OH224766   0.088   5.150  10.655  0.3693 -0.0898  0.4258
 1092TIP3    H124767   0.063   5.059  10.675  1.3335 -0.8934 -1.7569
 1092TIP3    H224768   0.035   5.173  10.579  1.7028  0.3815 -0.3934
 1093TIP3   OH224769   6.486   1.611  16.419 -0.6173 -0.2106 -0.1564
 1093TIP3    H124770   6.430   1.676  16.462  0.3003  0.4245  0.0954
 1093TIP3    H224771   6.451   1.605  16.330 -2.4971 -1.4818  0.5931
 1094TIP3   OH224772   3.550   3.369   1.877  0.6079  0.2866  0.6120
 1094TIP3    H124773   3.459   3.348   1.897  0.7952 -1.3314 -0.0491
 1094TIP3    H224774   3.546   3.412   1.792  0.3219  2.0409  1.4631
 1095TIP3   OH224775   4.462   5.459   0.201  0.2768  0.1405 -0.1516
 1095TIP3    H124776   4.514   5.488   0.276  1.2460  2.7534 -1.7137
 1095TIP3    H224777   4.518   5.397   0.155  2.0394  2.6719 -1.6313
 1096TIP3   OH224778   5.765   4.622  12.586 -0.2793  0.0432  0.3530
 1096TIP3    H124779   5.695   4.675  12.547 -0.6342  0.4357  1.4819
 1096TIP3    H224780   5.840   4.682  12.592  0.1599 -0.3518 -0.7729
 1097TIP3   OH224781   6.143   5.360  16.046  0.0605  0.2495  0.1296
 1097TIP3    H124782   6.115   5.401  15.965 -0.8607 -0.5727  0.0203
 1097TIP3    H224783   6.065   5.315  16.079  1.0265 -1.4756  0.1996
 1098TIP3   OH224784   4.870   6.350  14.940  0.4908  0.2849  0.2380
 1098TIP3    H124785   4.950   6.366  14.990 -0.2022  0.0799  1.4463
 1098TIP3    H224786   4.819   6.290  14.994 -0.5762  0.5695 -0.4189
 1099TIP3   OH224787   0.395   4.341  14.610 -0.0576 -0.2829 -0.1885
 1099TIP3    H124788   0.314   4.330  14.661 -0.0448 -4.3313 -0.7074
 1099TIP3    H224789   0.465   4.326  14.673  0.1480 -0.2878 -0.4170
 1100TIP3   OH224790   0.131   4.129  11.668 -0.2725 -0.4590 -0.0147
 1100TIP3    H124791   0.097   4.040  11.679 -2.2517  0.1467 -0.8189
 1100TIP3    H224792   0.055   4.180  11.642  0.9668  1.3564 -0.2080
 1101TIP3   OH224793   2.266   1.760   6.429  0.2392  0.1133 -0.2418
 1101TIP3    H124794   2.245   1.837   6.375 -0.5208  0.5373  0.6423
 1101TIP3    H224795   2.202   1.694   6.402 -0.5591  0.5381  0.5842
 1102TIP3   OH224796   3.118   3.051   3.529  0.4753 -0.1978  0.2251
 1102TIP3    H124797   3.120   3.044   3.624 -0.2184  3.8334  0.7112
 1102TIP3    H224798   3.028   3.075   3.508  1.1605  1.3300 -1.1464
 1103TIP3   OH224799   1.884   3.696   4.683 -0.1367 -0.6829  0.4053
 1103TIP3    H124800   1.916   3.718   4.771 -0.1768 -2.8443  1.0192
 1103TIP3    H224801   1.813   3.634   4.698 -1.8331  0.7677 -1.1130
 1104TIP3   OH224802   6.073   5.082  13.887 -0.1321  0.2626 -0.0798
 1104TIP3    H124803   5.990   5.036  13.875  1.2693 -2.1485 -1.3312
 1104TIP3    H224804   6.082   5.091  13.982 -0.3262 -2.4319  0.2487
 1105TIP3   OH224805   0.822   0.814  15.756 -0.2520  0.4470  0.3862
 1105TIP3    H124806   0.861   0.901  15.759  2.8621 -0.8169 -0.0910
 1105TIP3    H224807   0.728   0.830  15.770  0.4108  3.6447  2.2631
 1106TIP3   OH224808   6.203   1.766   0.955  0.6928 -0.0242 -0.7820
 1106TIP3    H124809   6.258   1.825   1.007  0.0508  1.2741 -1.5283
 1106TIP3    H224810   6.113   1.792   0.978  0.3413 -2.1170  0.4300
 1107TIP3   OH224811   4.544   2.077   2.238  0.0565 -0.1438 -0.2073
 1107TIP3    H124812   4.618   2.019   2.256 -0.7852 -1.1960 -0.0626
 1107TIP3    H224813   4.583   2.164   2.229  1.0227 -0.2462  2.3630
 1108TIP3   OH224814   4.151   2.857   5.219 -0.4548 -0.0063 -0.8924
 1108TIP3    H124815   4.179   2.814   5.138  1.8255  1.3294 -0.8856
 1108TIP3    H224816   4.191   2.944   5.215 -0.9070  0.3478  1.3395
 1109TIP3   OH224817   0.966   2.522  11.674  0.8071 -0.1432  0.1650
 1109TIP3    H124818   0.939   2.441  11.630  2.7871  0.1656 -1.7299
 1109TIP3    H224819   0.885   2.574  11.679  0.5533  0.1343 -3.9188
 1110TIP3   OH224820   5.583   1.436   3.451 -0.7238  0.1422 -0.9003
 1110TIP3    H124821   5.553   1.419   3.362 -1.7554 -0.8729 -0.3738
 1110TIP3    H224822   5.636   1.360   3.474  1.2525  1.3063 -1.3322
 1111TIP3   OH224823   2.093   4.632  17.058 -0.1197  0.2085 -0.1802
 1111TIP3    H124824   2.003   4.609  17.035 -0.2531  1.0125 -0.5163
 1111TIP3    H224825   2.147   4.574  17.004 -0.3972 -1.5240  1.3047
 1112TIP3   OH224826   4.116   0.334  12.695  0.5408  0.1435  0.5456
 1112TIP3    H124827   4.050   0.397  12.724 -0.2090 -0.2941 -0.1478
 1112TIP3    H224828   4.144   0.290  12.775  0.0440  0.3917  0.8662
 1113TIP3   OH224829   2.729   3.499   6.287 -0.3706  0.5549  0.2066
 1113TIP3    H124830   2.663   3.450   6.237 -1.6897  2.8769 -0.5026
 1113TIP3    H224831   2.684   3.522   6.368 -0.7938  2.7714 -0.5790
 1114TIP3   OH224832   4.856   3.221   3.790 -0.6161 -0.7358  0.2734
 1114TIP3    H124833   4.826   3.296   3.739  1.7421 -0.2033 -0.4457
 1114TIP3    H224834   4.794   3.216   3.863 -0.6601  2.1665  0.5707
 1115TIP3   OH224835   2.325   1.447  11.023  0.3927  0.2317  0.2437
 1115TIP3    H124836   2.254   1.509  11.039 -0.9042 -0.8890 -0.8747
 1115TIP3    H224837   2.395   1.500  10.987 -0.1282  1.2632  0.6876
 1116TIP3   OH224838   0.338   2.599   0.661  0.2091 -0.0705 -0.1737
 1116TIP3    H124839   0.397   2.525   0.670  1.1376  0.5572 -0.9598
 1116TIP3    H224840   0.394   2.677   0.666 -0.7256  0.5878  0.5181
 1117TIP3   OH224841   3.117   5.662   1.939  0.4486  0.5212 -0.5492
 1117TIP3    H124842   3.118   5.703   2.026 -0.2763  1.0012 -0.7530
 1117TIP3    H224843   3.035   5.613   1.937 -0.0198  1.3146 -1.3112
 1118TIP3   OH224844   4.484   2.012   5.767  0.2992  0.7138  0.1270
 1118TIP3    H124845   4.515   2.044   5.852 -0.4000  3.0631 -0.4212
 1118TIP3    H224846   4.479   2.091   5.712 -3.8619  0.1352 -0.6704
 1119TIP3   OH224847   4.479   3.265  12.230  0.6897 -0.0467 -0.5425
 1119TIP3    H124848   4.399   3.314  12.246  0.3340 -1.0314  0.9609
 1119TIP3    H224849   4.527   3.317  12.166 -0.2283  1.5984  0.0425
 1120TIP3   OH224850   1.439   3.377  15.046 -0.1724 -0.1382 -0.4367
 1120TIP3    H124851   1.509   3.439  15.068  1.6996 -2.8151  1.9104
 1120TIP3    H224852   1.382   3.377  15.123 -0.3857 -0.9687 -0.5899
 1121TIP3   OH224853   2.046   4.673  16.392 -0.0340  0.3639 -0.8929
 1121TIP3    H124854   2.034   4.627  16.309 -1.4604  2.0888 -1.6998
 1121TIP3    H224855   2.129   4.720  16.383  0.7907 -0.9643 -0.5464
 1122TIP3   OH224856   3.985   3.772   0.105 -0.2902  0.3757  0.2241
 1122TIP3    H124857   3.962   3.844   0.164  1.3877 -0.0231  1.4321
 1122TIP3    H224858   3.921   3.779   0.034 -1.4042  1.8347  1.2895
 1123TIP3   OH224859   0.656   1.856   4.751  0.3151 -0.5060 -0.4272
 1123TIP3    H124860   0.648   1.886   4.661 -0.7271 -0.1359 -0.2237
 1123TIP3    H224861   0.570   1.874   4.790  1.0594  0.2922  0.9196
 1124TIP3   OH224862   6.167   4.429   4.150  0.0103 -0.1254  0.4786
 1124TIP3    H124863   6.096   4.414   4.212 -1.3278 -2.7092 -1.4882
 1124TIP3    H224864   6.131   4.492   4.087  0.0008 -0.3508  0.2601
 1125TIP3   OH224865   6.525   0.534  13.854  0.1615  0.4708 -0.7283
 1125TIP3    H124866   6.619   0.546  13.848  1.0198 -3.1728  1.9394
 1125TIP3    H224867   6.500   0.578  13.935  0.6001 -2.3628  1.0853
 1126TIP3   OH224868   3.677   6.459  11.845 -0.5468 -0.4181 -0.1987
 1126TIP3    H124869   3.685   6.554  11.856 -0.4295 -0.4843  0.3245
 1126TIP3    H224870   3.696   6.444  11.752  2.7767 -0.2810  0.3335
 1127TIP3   OH224871   0.495   6.623  13.846 -0.3919 -0.3259  0.1496
 1127TIP3    H124872   0.473   6.715  13.846 -1.5117 -0.5624 -1.4341
 1127TIP3    H224873   0.434   6.583  13.908  0.2649  0.0025  1.0335
 1128TIP3   OH224874   5.790   2.493  12.000 -0.2728  0.2534 -0.4385
 1128TIP3    H124875   5.721   2.515  11.937  0.2919  1.5793 -0.6226
 1128TIP3    H224876   5.869   2.532  11.964  0.0568  1.0823  1.1118
 1129TIP3   OH224877   5.710   1.691  16.236  0.1184  0.1259 -0.3305
 1129TIP3    H124878   5.615   1.686  16.228  0.1314 -0.3743 -0.2162
 1129TIP3    H224879   5.731   1.627  16.304  0.3483  1.5927  1.0450
 1130TIP3   OH224880   2.703   3.073  10.654  0.3687  0.3752 -0.2218
 1130TIP3    H124881   2.717   3.035  10.568 -0.3063  0.1711 -0.2529
 1130TIP3    H224882   2.783   3.122  10.673  0.9678 -0.4690 -0.4948
 1131TIP3   OH224883   2.458   3.624  16.828 -0.5050  0.1286 -0.1619
 1131TIP3    H124884   2.483   3.545  16.781 -0.1853 -0.5106  1.0450
 1131TIP3    H224885   2.479   3.695  16.768 -0.9041 -0.7008 -1.3075
 1132TIP3   OH224886   1.518   1.795  12.058  0.0071 -0.0437  0.4137
 1132TIP3    H124887   1.514   1.844  11.976  1.0957 -0.4160  0.1296
 1132TIP3    H224888   1.576   1.847  12.114  1.4628 -1.1549 -0.0132
 1133TIP3   OH224889   3.777   5.280  10.851 -0.3895  0.1951 -0.3080
 1133TIP3    H124890   3.683   5.269  10.864 -0.2490 -0.6278  0.1280
 1133TIP3    H224891   3.802   5.209  10.792 -0.5151  2.1946 -2.9175
 1134TIP3   OH224892   5.840   6.441  15.188 -0.1102 -0.2706  0.1299
 1134TIP3    H124893   5.767   6.381  15.179 -0.9063  0.7196 -0.2819
 1134TIP3    H224894   5.843   6.462  15.282 -0.2798 -0.3943  0.1625
 1135TIP3   OH224895   0.202   4.344  13.950  0.2952 -0.2967  0.4667
 1135TIP3    H124896   0.297   4.333  13.957  0.0413 -2.3310  1.3563
 1135TIP3    H224897   0.190   4.407  13.879  2.3161  0.6859  0.9117
 1136TIP3   OH224898   3.808   6.337  11.583  0.4318 -0.0211  0.0960
 1136TIP3    H124899   3.804   6.432  11.595  0.8467 -0.0291  0.2880
 1136TIP3    H224900   3.719   6.307  11.603 -0.1410  0.4978 -1.4525
 1137TIP3   OH224901   3.381   1.950   0.052 -0.5033  0.3669 -0.4526
 1137TIP3    H124902   3.388   1.855   0.050  0.6839  0.3321  1.8602
 1137TIP3    H224903   3.425   1.980  -0.027  3.2691 -0.9252  0.9345
 1138TIP3   OH224904   4.522   4.709  12.300 -0.3984 -0.1337  0.3121
 1138TIP3    H124905   4.471   4.737  12.224 -0.6686  1.5065  1.0587
 1138TIP3    H224906   4.498   4.771  12.369  1.1498 -0.5297  1.2489
 1139TIP3   OH224907   5.250   6.566   5.500 -0.3982 -0.3825 -0.0740
 1139TIP3    H124908   5.286   6.571   5.412 -0.4894  3.0665 -0.0428
 1139TIP3    H224909   5.157   6.545   5.487 -0.6544  1.1803 -0.9104
 1140TIP3   OH224910   1.412   1.349  11.853  0.5039  0.0813  0.5357
 1140TIP3    H124911   1.414   1.395  11.769 -0.0693 -0.5587  0.1516
 1140TIP3    H224912   1.436   1.415  11.918 -1.6939  1.3205  0.1849
 1141TIP3   OH224913   4.304   2.886  12.073  0.5889  0.2779  0.1005
 1141TIP3    H124914   4.358   2.919  12.002 -0.6467  2.5489  0.1222
 1141TIP3    H224915   4.260   2.963  12.108 -3.0001 -1.4136 -0.2151
 1142TIP3   OH224916   1.076   4.828   2.549  0.0876 -0.4106 -0.0505
 1142TIP3    H124917   1.058   4.918   2.577  0.9947 -0.4313  0.6505
 1142TIP3    H224918   1.160   4.807   2.590  0.5097 -1.1404 -1.2381
 1143TIP3   OH224919   2.429   6.698   3.416  0.3273  0.0616 -0.2448
 1143TIP3    H124920   2.441   6.783   3.459 -0.8001  0.2817 -0.3524
 1143TIP3    H224921   2.374   6.716   3.340  1.8301 -0.4164 -1.5270
 1144TIP3   OH224922   4.214   2.134  17.110  0.3275 -0.1616 -0.2127
 1144TIP3    H124923   4.214   2.060  17.050 -0.1425 -2.0238  1.9415
 1144TIP3    H224924   4.127   2.133  17.150  0.8458  0.5664  0.9837
 1145TIP3   OH224925   1.849   6.363   4.904 -0.1163  0.1495 -0.0853
 1145TIP3    H124926   1.852   6.454   4.933  1.3068  0.4955 -1.1627
 1145TIP3    H224927   1.763   6.352   4.865  0.1439  1.4504 -1.1100
 1146TIP3   OH224928   3.147   0.776   1.173 -0.7584 -0.2302  0.3051
 1146TIP3    H124929   3.108   0.732   1.098 -1.5844 -1.5607  1.4697
 1146TIP3    H224930   3.156   0.867   1.145 -1.5281 -0.5830 -1.2051
 1147TIP3   OH224931   2.917   6.780   3.395  0.5179  0.0653 -0.1645
 1147TIP3    H124932   3.004   6.819   3.385  0.4366 -0.0157 -1.2921
 1147TIP3    H224933   2.870   6.805   3.316  0.0595 -1.3128 -0.3505
 1148TIP3   OH224934   1.925   3.909  13.862  0.4955 -1.0529 -0.2825
 1148TIP3    H124935   1.900   3.933  13.772  0.6986 -2.0159 -0.6049
 1148TIP3    H224936   1.908   3.815  13.867 -2.2755 -0.5699  1.5856
 1149TIP3   OH224937   3.142   5.671  15.040  0.0021 -0.1275 -0.2384
 1149TIP3    H124938   3.110   5.738  15.101  0.2768  0.3233 -0.5747
 1149TIP3    H224939   3.237   5.685  15.038  0.1098 -0.7884 -0.0172
 1150TIP3   OH224940   0.925   6.133   4.389 -0.2928 -0.0096  0.5841
 1150TIP3    H124941   0.847   6.178   4.358 -1.1192 -0.8527  1.3640
 1150TIP3    H224942   0.927   6.051   4.339 -1.2103 -1.0261  2.1183
 1151TIP3   OH224943   5.978   3.570  16.219 -0.0983  0.2405 -0.0270
 1151TIP3    H124944   5.895   3.616  16.236  0.8786  1.4291  1.8316
 1151TIP3    H224945   5.994   3.583  16.125 -1.0894  1.5730 -0.0331
 1152TIP3   OH224946   1.929   1.026  12.931 -0.1388  0.5836 -0.0834
 1152TIP3    H124947   1.851   1.052  12.980 -0.3722  1.1303 -0.7324
 1152TIP3    H224948   1.994   1.004  12.998 -0.4279  1.3974  0.4712
 1153TIP3   OH224949   0.990   3.953   3.704  0.3922 -0.1154  0.3141
 1153TIP3    H124950   1.024   4.038   3.675  1.6091  0.4650  3.0732
 1153TIP3    H224951   0.899   3.970   3.729  0.0276 -0.1234 -0.9403
 1154TIP3   OH224952   1.830   5.336   3.516 -0.4797 -0.2354 -0.0575
 1154TIP3    H124953   1.823   5.262   3.576  1.5799 -1.0593 -0.7424
 1154TIP3    H224954   1.801   5.412   3.567 -1.2578 -1.2913  1.1166
 1155TIP3   OH224955   3.183   1.264  10.750 -0.4058 -0.5605 -0.8140
 1155TIP3    H124956   3.111   1.266  10.813  0.1982  0.2681 -0.1374
 1155TIP3    H224957   3.168   1.339  10.693  0.2036 -0.0871 -0.3541
 1156TIP3   OH224958   2.962   1.558   6.206 -0.2858  0.2449 -0.4222
 1156TIP3    H124959   2.902   1.621   6.246  0.7992  1.3807 -0.5157
 1156TIP3    H224960   2.936   1.474   6.243 -0.4346  1.0228  1.3511
 1157TIP3   OH224961   6.249   2.581  11.363  0.0615 -0.5767 -0.3622
 1157TIP3    H124962   6.181   2.640  11.328  0.5511  0.1375 -0.1370
 1157TIP3    H224963   6.245   2.595  11.458  0.8174 -0.1956 -0.3820
 1158TIP3   OH224964   2.789   1.243   5.435 -0.7068  0.1221  0.2422
 1158TIP3    H124965   2.716   1.182   5.429 -0.9157  0.4000 -0.0801
 1158TIP3    H224966   2.841   1.225   5.356  1.3444 -2.2994  1.9924
 1159TIP3   OH224967   1.358   4.535  12.496  0.7377 -0.1379  0.4776
 1159TIP3    H124968   1.303   4.597  12.545 -0.5389  0.5958 -1.7567
 1159TIP3    H224969   1.302   4.459  12.484  1.1252 -0.3986  0.3310
 1160TIP3   OH224970   5.870   1.850  16.565  0.0880  0.2413  0.3275
 1160TIP3    H124971   5.880   1.761  16.599  0.9004  0.2543  0.1565
 1160TIP3    H224972   5.955   1.892  16.581 -0.2815  0.9853  0.4030
 1161TIP3   OH224973   1.314   1.473   4.357 -0.0028 -0.2669 -0.3057
 1161TIP3    H124974   1.278   1.387   4.380  0.2660 -0.0609  0.9406
 1161TIP3    H224975   1.389   1.453   4.300 -0.2901 -0.8287 -0.4960
 1162TIP3   OH224976   3.665   3.338  13.649 -0.2224  0.4464  0.0917
 1162TIP3    H124977   3.581   3.371  13.680 -1.1080 -0.9655 -0.7359
 1162TIP3    H224978   3.729   3.376  13.710 -1.5504  0.6655  1.4055
 1163TIP3   OH224979   4.006   6.154   4.808 -0.2269  0.3009 -0.4115
 1163TIP3    H124980   3.942   6.217   4.773 -1.9101 -0.2461  1.5221
 1163TIP3    H224981   4.028   6.188   4.894 -0.3069 -1.1412  0.1977
 1164TIP3   OH224982   6.207   1.336  13.155  0.0252 -0.1054 -0.4921
 1164TIP3    H124983   6.112   1.352  13.158 -0.0230 -0.1369 -1.5704
 1164TIP3    H224984   6.238   1.389  13.082  0.6412 -1.1091 -0.9658
 1165TIP3   OH224985   3.933   3.453  11.247  0.2704  0.4132  0.1184
 1165TIP3    H124986   3.841   3.479  11.239  0.5795  1.8563  0.7796
 1165TIP3    H224987   3.982   3.525  11.206  1.1595  0.6130  1.4399
 1166TIP3   OH224988   3.243   4.870  15.517  0.1876 -0.0177  0.1833
 1166TIP3    H124989   3.222   4.929  15.590  0.4511 -1.2258  1.2673
 1166TIP3    H224990   3.279   4.792  15.558 -0.0151 -0.8984 -1.2281
 1167TIP3   OH224991   0.425   2.818  11.773 -0.4717 -0.1028 -0.1030
 1167TIP3    H124992   0.476   2.899  11.779  0.4969 -0.5968 -1.3470
 1167TIP3    H224993   0.416   2.790  11.864  1.6721 -0.0948  0.1714
 1168TIP3   OH224994   0.200   0.784  13.870 -0.2060 -0.0067 -0.7893
 1168TIP3    H124995   0.153   0.831  13.939 -0.8510  0.9772 -1.8576
 1168TIP3    H224996   0.267   0.733  13.917 -0.5354  0.7317  0.5429
 1169TIP3   OH224997   5.594   0.100   4.833  0.0298 -0.0517  0.3210
 1169TIP3    H124998   5.552   0.018   4.805 -1.0476  0.5395  0.1709
 1169TIP3    H224999   5.608   0.089   4.927  0.9825 -0.8693  0.1107
 1170TIP3   OH225000   0.707   3.922  16.193 -0.9667 -0.1209 -0.3110
 1170TIP3    H125001   0.723   3.923  16.099  2.1641  0.0917  0.1149
 1170TIP3    H225002   0.777   3.866  16.228 -0.2617  2.0719  2.1038
 1171TIP3   OH225003   0.901   4.825   3.554  0.2852  0.1169  0.6027
 1171TIP3    H125004   0.914   4.786   3.468  1.1090  1.2069  0.2140
 1171TIP3    H225005   0.828   4.775   3.592 -0.0158 -0.4498 -0.6629
 1172TIP3   OH225006   5.009   2.222   5.476 -0.2380 -0.3683 -0.1604
 1172TIP3    H125007   5.034   2.241   5.385  0.3218 -1.2193 -0.1945
 1172TIP3    H225008   5.019   2.127   5.484 -0.0258 -0.2657  0.8753
 1173TIP3   OH225009   1.695   3.736  16.995 -0.5994  0.6627 -0.2177
 1173TIP3    H125010   1.712   3.656  17.044 -3.5458  0.0327 -0.0478
 1173TIP3    H225011   1.755   3.800  17.034  0.5761 -0.9912  0.8561
 1174TIP3   OH225012   1.010   6.724   1.906 -0.2291  0.6014  0.1831
 1174TIP3    H125013   1.028   6.667   1.981 -0.0658  0.7708  0.2744
 1174TIP3    H225014   1.095   6.762   1.883 -0.0312 -0.4893 -0.9621
 1175TIP3   OH225015   4.956   0.028   4.604  0.1878 -0.1948  1.3033
 1175TIP3    H125016   5.009   0.045   4.681  1.9936 -0.4310  0.1679
 1175TIP3    H225017   5.018   0.001   4.537 -0.9236  2.4067 -0.9956
 1176TIP3   OH225018   5.674   2.459  16.250  0.0860 -0.5663 -0.2159
 1176TIP3    H125019   5.707   2.396  16.313 -1.3151 -1.3816 -0.2543
 1176TIP3    H225020   5.701   2.424  16.165 -0.0432 -0.7221 -0.1939
 1177TIP3   OH225021   5.834   3.771   4.574  0.2083 -0.6847 -0.1752
 1177TIP3    H125022   5.915   3.821   4.565  1.2260 -1.8840  1.6079
 1177TIP3    H225023   5.844   3.699   4.511  0.1591 -0.3790 -0.5337
 1178TIP3   OH225024   1.955   1.518   3.260 -0.3679  0.1320 -0.8201
 1178TIP3    H125025   1.993   1.461   3.327 -0.9066 -0.2429 -0.8354
 1178TIP3    H225026   1.911   1.587   3.309  0.3544  0.5988 -0.8017
 1179TIP3   OH225027   2.844   3.806   0.942  0.0413 -0.1021 -0.7997
 1179TIP3    H125028   2.916   3.760   0.986  0.1008  1.8000  1.2505
 1179TIP3    H225029   2.785   3.832   1.012 -1.0157  1.1438 -2.0871
 1180TIP3   OH225030   2.920   2.345  13.360 -0.2758 -0.3550 -0.0944
 1180TIP3    H125031   2.891   2.364  13.271 -0.7720 -0.9031 -0.0511
 1180TIP3    H225032   2.844   2.365  13.415 -0.2203 -0.7508  0.1315
 1181TIP3   OH225033   3.233   2.667  13.051  0.6634  0.3631  0.0309
 1181TIP3    H125034   3.269   2.638  13.135 -1.3008 -0.8988  0.4927
 1181TIP3    H225035   3.143   2.692  13.070  1.0707  3.0748 -1.1626
 1182TIP3   OH225036   4.812   4.279  13.258 -0.5957 -0.2216  0.0359
 1182TIP3    H125037   4.806   4.299  13.351 -2.4895 -1.2433  0.1636
 1182TIP3    H225038   4.834   4.186  13.254 -0.7174 -0.2303 -0.5511
 1183TIP3   OH225039   3.334   0.428  16.001  0.2206 -0.5537 -0.5117
 1183TIP3    H125040   3.365   0.345  16.038 -1.2474 -1.2206 -0.6956
 1183TIP3    H225041   3.262   0.402  15.943 -2.2243  1.0272  1.5864
 1184TIP3   OH225042   0.977   6.665   2.303 -0.3681 -0.5466 -0.1119
 1184TIP3    H125043   1.043   6.731   2.326 -1.1098  0.3092 -0.3599
 1184TIP3    H225044   0.895   6.714   2.302 -0.8077 -1.2829 -1.2217
 1185TIP3   OH225045   1.567   0.847   3.798  0.4672  0.7028 -0.4608
 1185TIP3    H125046   1.612   0.919   3.754 -0.0008  1.6622  0.5703
 1185TIP3    H225047   1.637   0.792   3.833  0.8275  0.6340 -1.2795
 1186TIP3   OH225048   1.462   1.852   4.559 -0.9902 -0.4197 -0.4617
 1186TIP3    H125049   1.384   1.801   4.541 -2.6790  1.9097 -0.2145
 1186TIP3    H225050   1.437   1.943   4.540  1.6731  0.4247 -0.4282
 1187TIP3   OH225051   5.700   1.754  15.920  0.1201  0.1388  0.6036
 1187TIP3    H125052   5.648   1.676  15.942  1.2070 -1.1518 -1.1134
 1187TIP3    H225053   5.644   1.828  15.944 -0.6157 -1.1129  3.1021
 1188TIP3   OH225054   0.877   0.251  14.985  0.3359  0.1288  0.3440
 1188TIP3    H125055   0.896   0.292  15.069  3.2399  0.1437 -0.2107
 1188TIP3    H225056   0.799   0.295  14.953  0.1389  1.2711  2.2625
 1189TIP3   OH225057   3.608   5.283   2.793  0.3975 -0.0236  0.1645
 1189TIP3    H125058   3.534   5.343   2.794  0.6335  0.2831 -0.1415
 1189TIP3    H225059   3.571   5.198   2.772  0.1226  0.1201  0.0628
 1190TIP3   OH225060   1.593   6.784   0.228 -0.0727  0.6223 -0.2594
 1190TIP3    H125061   1.682   6.814   0.212  0.0737 -0.2304 -1.1054
 1190TIP3    H225062   1.546   6.804   0.146 -0.1311 -0.8074 -0.6036
 1191TIP3   OH225063   3.004   4.146  17.098  0.1029 -0.1685 -0.2347
 1191TIP3    H125064   3.073   4.211  17.089 -1.1981  1.1469 -1.2118
 1191TIP3    H225065   3.039   4.082  17.160  3.1081 -0.8470 -2.4103
 1192TIP3   OH225066   5.531   2.952  12.297 -0.3738  0.1965 -0.6036
 1192TIP3    H125067   5.501   2.961  12.387  0.4924  0.0879 -0.3040
 1192TIP3    H225068   5.533   3.041  12.263 -0.6934  0.2385 -0.5194
 1193TIP3   OH225069   0.211   4.751  14.414  0.1135  0.1095 -0.4299
 1193TIP3    H125070   0.132   4.805  14.427 -0.3543 -0.5255 -0.5908
 1193TIP3    H225071   0.280   4.799  14.459 -0.0744  1.3622 -1.4095
 1194TIP3   OH225072   0.880   6.246  12.675  0.5059 -0.4859 -0.0715
 1194TIP3    H125073   0.828   6.176  12.637  0.7159  0.1315 -1.5523
 1194TIP3    H225074   0.971   6.216  12.664  0.5411 -1.1486  1.6862
 1195TIP3   OH225075   0.502   6.610   3.785 -0.2134 -0.1108 -0.2533
 1195TIP3    H125076   0.573   6.650   3.734 -1.0175  0.9642 -0.5821
 1195TIP3    H225077   0.498   6.663   3.865 -0.5143 -0.2941 -0.1462
 1196TIP3   OH225078   1.001   6.194   0.176  0.0414 -0.1016 -0.3968
 1196TIP3    H125079   1.064   6.264   0.159  2.6018 -1.7979  1.2543
 1196TIP3    H225080   0.970   6.211   0.265 -0.2273 -0.3709 -0.4378
 1197TIP3   OH225081   6.099   1.692   3.736  0.3015  0.5160  0.3236
 1197TIP3    H125082   6.149   1.639   3.675 -0.1019 -1.0177  1.2818
 1197TIP3    H225083   6.021   1.718   3.688 -0.1911 -0.9897  0.2684
 1198TIP3   OH225084   3.453   0.061   4.609  0.7111  0.0667  0.4786
 1198TIP3    H125085   3.374   0.101   4.645  0.3737 -1.3174  1.3931
 1198TIP3    H225086   3.434  -0.033   4.611  1.3633 -0.1663 -1.8028
 1199TIP3   OH225087   6.839   3.539  11.733  0.4013  0.1469 -0.0433
 1199TIP3    H125088   6.931   3.545  11.707  0.1909  0.5404 -0.7202
 1199TIP3    H225089   6.809   3.455  11.699  0.5966 -0.1441  0.4852
 1200TIP3   OH225090   4.801   6.261   6.192 -0.0471  0.6483  0.0336
 1200TIP3    H125091   4.845   6.199   6.251  0.8763  1.4052  0.1453
 1200TIP3    H225092   4.739   6.307   6.249  1.2477  1.7845  0.5766
 1201TIP3   OH225093   6.153   1.404   1.943  0.6419  0.0074 -0.4621
 1201TIP3    H125094   6.176   1.325   1.895  0.3148 -1.2856  1.3770
 1201TIP3    H225095   6.234   1.430   1.987  0.8159  0.8808 -1.2733
 1202TIP3   OH225096   1.500   1.465   3.738  0.0871  0.0218  0.2303
 1202TIP3    H125097   1.584   1.503   3.764 -0.3854  2.2775 -1.3156
 1202TIP3    H225098   1.513   1.371   3.749  2.5962  0.3453  0.6985
 1203TIP3   OH225099   5.478   4.640  16.232  0.4177 -0.0144  0.0940
 1203TIP3    H125100   5.446   4.684  16.153  0.7529 -0.2109 -0.1503
 1203TIP3    H225101   5.414   4.663  16.300 -0.0085 -0.0546 -0.2921
 1204TIP3   OH225102   3.751   0.782   5.586 -0.3769  0.0896  0.2473
 1204TIP3    H125103   3.696   0.734   5.648 -1.3628 -0.9452 -1.3651
 1204TIP3    H225104   3.781   0.716   5.524 -1.5143  1.4345 -1.8663
 1205TIP3   OH225105   1.197   0.242   5.927 -0.1370  0.1171 -0.0192
 1205TIP3    H125106   1.239   0.292   5.997 -0.5553  1.8476 -0.9249
 1205TIP3    H225107   1.108   0.227   5.958 -0.7873  2.1921 -0.7142
 1206TIP3   OH225108   3.299   5.174   3.149 -0.1115 -0.1368  0.8798
 1206TIP3    H125109   3.294   5.085   3.114 -0.1887 -0.1299  0.8715
 1206TIP3    H225110   3.244   5.226   3.090 -0.4129 -0.1655  1.1325
 1207TIP3   OH225111   3.521   1.956   0.285  0.0883  0.7580  0.3390
 1207TIP3    H125112   3.459   1.960   0.212 -0.4185  0.4846  0.7473
 1207TIP3    H225113   3.467   1.931   0.361  0.6704  0.6777  0.7312
 1208TIP3   OH225114   5.521   6.491   2.477 -0.0770  0.6395 -0.0722
 1208TIP3    H125115   5.606   6.532   2.459 -0.2464  0.6871 -0.7955
 1208TIP3    H225116   5.514   6.493   2.572  1.0982 -0.1179  0.0564
 1209TIP3   OH225117   0.354   4.457   4.279  0.0837 -0.0074 -0.3239
 1209TIP3    H125118   0.445   4.461   4.251 -0.6253 -0.5637 -3.0634
 1209TIP3    H225119   0.308   4.519   4.222 -1.4048 -0.5547  0.2119
 1210TIP3   OH225120   5.730   2.518   0.308 -0.3732  0.6845 -0.1639
 1210TIP3    H125121   5.723   2.469   0.389 -0.0675 -0.0579 -0.5749
 1210TIP3    H225122   5.739   2.451   0.240  0.1350  1.3106 -0.7295
 1211TIP3   OH225123   6.588   1.851   4.213 -0.4802  0.0323 -0.1252
 1211TIP3    H125124   6.526   1.907   4.167 -1.6136 -0.7154  0.4456
 1211TIP3    H225125   6.644   1.912   4.261 -0.9737  0.7114 -0.4006
 1212TIP3   OH225126   5.927   0.389   4.859 -0.3609  0.1573  0.1078
 1212TIP3    H125127   5.935   0.472   4.813  1.8000 -0.8706 -1.5760
 1212TIP3    H225128   5.873   0.334   4.802 -1.1914  0.1638  0.8669
 1213TIP3   OH225129   3.979   4.586  14.535 -0.1092  0.2987  0.0083
 1213TIP3    H125130   3.934   4.502  14.545  0.5753 -0.0766 -0.0560
 1213TIP3    H225131   3.928   4.646  14.590 -0.2331 -0.2951  0.5642
 1214TIP3   OH225132   2.220   2.414  11.974 -0.1748 -0.8224  0.1108
 1214TIP3    H125133   2.233   2.398  11.880 -0.5273  0.8703 -0.2618
 1214TIP3    H225134   2.302   2.385  12.014 -0.7488 -3.4279 -0.4213
 1215TIP3   OH225135   4.331   5.039  12.281  0.8950 -0.3668 -0.0488
 1215TIP3    H125136   4.239   5.020  12.262  0.4565  0.1330  1.4517
 1215TIP3    H225137   4.376   5.023  12.198 -0.4017 -1.4800 -0.5857
 1216TIP3   OH225138   1.879   0.035   4.918 -0.7694  0.9948  0.1977
 1216TIP3    H125139   1.875   0.006   4.827 -0.6969  1.7378 -0.0546
 1216TIP3    H225140   1.830  -0.030   4.968  0.3199 -0.1466 -0.1861
 1217TIP3   OH225141   4.553   5.212  13.051 -0.6164  0.3760 -0.0950
 1217TIP3    H125142   4.615   5.265  13.102 -1.0015  0.5244  0.2197
 1217TIP3    H225143   4.544   5.259  12.968  0.3767 -0.1116 -0.4996
 1218TIP3   OH225144   6.529   0.667  15.392  0.1371 -0.0481  0.0269
 1218TIP3    H125145   6.484   0.585  15.411 -0.9044  0.3333 -0.7668
 1218TIP3    H225146   6.601   0.669  15.456 -1.0862 -0.5475  1.4686
 1219TIP3   OH225147   5.382   0.141  15.582  0.1535  0.1697 -0.2032
 1219TIP3    H125148   5.342   0.060  15.612  0.7530  0.0522  0.3080
 1219TIP3    H225149   5.409   0.186  15.662 -0.8514  1.2490 -0.4313
 1220TIP3   OH225150   2.158   1.912  12.771 -0.2108  0.8586  0.5192
 1220TIP3    H125151   2.228   1.954  12.821 -0.3043 -1.8026  3.1166
 1220TIP3    H225152   2.200   1.840  12.724 -0.7177  1.2494 -0.5863
 1221TIP3   OH225153   0.656   1.999  14.561  0.1865  0.4516  0.2804
 1221TIP3    H125154   0.713   2.053  14.615  0.7019  1.7605 -1.4667
 1221TIP3    H225155   0.572   2.045  14.561 -0.9093 -1.3082  2.5954
 1222TIP3   OH225156   2.464   5.196  15.067 -0.1787 -0.3710  0.6333
 1222TIP3    H125157   2.467   5.103  15.043  1.3283 -0.0303 -0.6297
 1222TIP3    H225158   2.393   5.231  15.014 -1.6139 -0.9983  2.0443
 1223TIP3   OH225159   0.995   1.209  16.131 -0.1623 -0.3420 -0.0519
 1223TIP3    H125160   1.080   1.228  16.172 -1.4925 -1.9977  4.0121
 1223TIP3    H225161   0.989   1.113  16.133 -1.8149 -0.2896 -1.0194
 1224TIP3   OH225162   3.869   3.548   4.573  0.5989  0.0994 -0.2204
 1224TIP3    H125163   3.820   3.498   4.508  0.6481 -1.2881  0.7711
 1224TIP3    H225164   3.895   3.628   4.528 -1.1627  0.1144 -1.2591
 1225TIP3   OH225165   2.733   0.356  14.836 -0.6007  0.2810  0.4868
 1225TIP3    H125166   2.777   0.331  14.918 -0.6077  0.3372  0.5071
 1225TIP3    H225167   2.747   0.281  14.779 -1.2765 -0.0956  0.8038
 1226TIP3   OH225168   3.102   3.534  11.754 -0.7235 -0.0730 -0.1229
 1226TIP3    H125169   3.120   3.628  11.748  1.9644 -0.4589  0.8286
 1226TIP3    H225170   3.018   3.529  11.800 -1.5156  1.8364 -1.2186
 1227TIP3   OH225171   2.584   5.028  14.316 -0.5720 -0.0114  0.3084
 1227TIP3    H125172   2.663   5.059  14.271 -0.4957 -0.8598 -0.1728
 1227TIP3    H225173   2.597   5.054  14.407 -1.2519  2.7933 -0.2875
 1228TIP3   OH225174   3.897   5.825  12.846 -0.3724 -0.1379 -0.1299
 1228TIP3    H125175   3.860   5.907  12.878 -0.1774  0.7528 -2.0509
 1228TIP3    H225176   3.920   5.777  12.925 -2.0299  0.9239  1.0720
 1229TIP3   OH225177   6.429   5.578   1.724 -0.8396  0.1117 -0.3199
 1229TIP3    H125178   6.425   5.484   1.736  0.4122  0.0038 -0.5918
 1229TIP3    H225179   6.420   5.615   1.812  0.7227 -0.3632  0.0732
 1230TIP3   OH225180   3.672   4.133  14.050  0.4206 -0.0934  0.5956
 1230TIP3    H125181   3.710   4.181  14.124  0.4571 -0.5585  0.8815
 1230TIP3    H225182   3.689   4.041  14.070  0.9469 -0.1984 -0.2749
 1231TIP3   OH225183   4.719   6.347   1.878 -0.5714 -0.0562  0.2631
 1231TIP3    H125184   4.702   6.431   1.922  0.8532 -0.3580  1.5064
 1231TIP3    H225185   4.813   6.349   1.860 -0.9285 -0.4434 -1.8150
 1232TIP3   OH225186   2.704   3.455   0.565 -0.0534  0.3757  0.4272
 1232TIP3    H125187   2.614   3.461   0.532 -1.1211 -2.3875  2.4467
 1232TIP3    H225188   2.703   3.506   0.646  0.5446  1.2424 -0.1000
 1233TIP3   OH225189   0.902   0.369  16.374  0.3794 -0.2486  0.3054
 1233TIP3    H125190   0.813   0.343  16.398  1.1453 -1.4832  2.0930
 1233TIP3    H225191   0.949   0.286  16.363  0.5702  0.2125 -4.2806
 1234TIP3   OH225192   1.833   5.163  14.603 -0.4735 -0.1875 -0.4865
 1234TIP3    H125193   1.834   5.071  14.630  1.2986 -0.0675  0.0115
 1234TIP3    H225194   1.768   5.204  14.659  0.5123 -0.6782  1.0868
 1235TIP3   OH225195   3.390   2.938   1.588 -0.8079 -0.5269  0.0430
 1235TIP3    H125196   3.462   2.993   1.622 -0.5941  0.3179 -1.6513
 1235TIP3    H225197   3.433   2.879   1.526 -1.7459  1.3292 -2.5331
 1236TIP3   OH225198   0.677   4.163   4.856 -0.5085  0.0756  0.3829
 1236TIP3    H125199   0.674   4.091   4.792  0.8100 -0.7210  1.1592
 1236TIP3    H225200   0.770   4.169   4.879 -0.8181  1.0673  1.4225
 1237TIP3   OH225201   5.092   3.191   5.420  0.3627 -0.1168 -0.0571
 1237TIP3    H125202   5.184   3.171   5.407  0.9074  0.0800  2.6993
 1237TIP3    H225203   5.082   3.280   5.386  1.7842  0.6988  1.4665
 1238TIP3   OH225204   2.232   2.658   5.689 -0.2457  0.1985 -0.5782
 1238TIP3    H125205   2.255   2.638   5.780  0.2998 -0.2981 -0.8172
 1238TIP3    H225206   2.259   2.580   5.640 -1.0547  0.2330 -1.0908
 1239TIP3   OH225207   6.125   5.015  14.251 -0.1902  0.5542 -0.1630
 1239TIP3    H125208   6.038   4.975  14.252  0.2445 -0.4753 -1.4743
 1239TIP3    H225209   6.125   5.074  14.327 -2.0091  0.5424 -0.1131
 1240TIP3   OH225210   5.155   2.485  15.708 -0.3658  0.1227 -0.5533
 1240TIP3    H125211   5.109   2.402  15.703  0.2769 -0.2113 -1.1066
 1240TIP3    H225212   5.182   2.492  15.799 -0.9889  0.0427 -0.3591
 1241TIP3   OH225213   6.738   2.409   5.409 -0.3723 -0.0807 -0.1488
 1241TIP3    H125214   6.698   2.459   5.338 -0.8139  0.6421  0.5827
 1241TIP3    H225215   6.685   2.432   5.486  0.1554 -0.7665  0.4258
 1242TIP3   OH225216   4.725   0.587   4.565 -0.4900  0.2329 -0.2111
 1242TIP3    H125217   4.686   0.670   4.541  1.0871  0.9780 -0.3268
 1242TIP3    H225218   4.806   0.583   4.514 -0.3517 -1.1980  0.0832
 1243TIP3   OH225219   4.680   0.521  16.645 -0.3023 -0.3019 -0.1298
 1243TIP3    H125220   4.616   0.562  16.703  0.9931  0.4581  0.8148
 1243TIP3    H225221   4.756   0.579  16.648  1.4512 -2.5254  0.9085
 1244TIP3   OH225222   5.650   1.231  13.178  0.3520  0.0784 -0.3835
 1244TIP3    H125223   5.656   1.136  13.184  0.7476  0.1413  0.3441
 1244TIP3    H225224   5.558   1.248  13.154  0.3402 -0.4863 -0.7592
 1245TIP3   OH225225   2.937   4.435  11.224 -0.2147 -0.2440  0.2678
 1245TIP3    H125226   2.895   4.400  11.146  0.1930  0.8863 -0.4839
 1245TIP3    H225227   2.995   4.504  11.192 -0.2065  0.4028  1.5831
 1246TIP3   OH225228   1.972   5.521  13.164  0.1583  0.1453  0.4457
 1246TIP3    H125229   2.038   5.586  13.140  0.4709  0.4602  2.0881
 1246TIP3    H225230   2.021   5.447  13.199 -0.3305  0.1926  1.2556
 1247TIP3   OH225231   6.055   0.411  13.131  0.2594  0.3961 -0.1428
 1247TIP3    H125232   6.025   0.325  13.101 -0.1343 -0.7484  3.0930
 1247TIP3    H225233   5.979   0.468  13.120 -0.1875 -0.2140 -0.3061
 1248TIP3   OH225234   5.125   0.914  14.431 -0.6718  0.0548 -0.9401
 1248TIP3    H125235   5.197   0.866  14.389 -0.3666  0.0491 -0.4161
 1248TIP3    H225236   5.163   0.950  14.511 -1.2783 -0.0442 -0.5972
 1249TIP3   OH225237   4.445   2.892   4.412  0.0968 -0.0518  0.5263
 1249TIP3    H125238   4.494   2.861   4.487  0.6214  1.5781  0.8904
 1249TIP3    H225239   4.468   2.985   4.404 -0.7909  0.0794 -0.9745
 1250TIP3   OH225240   1.213   4.959   1.546 -0.0185  0.0231  0.0277
 1250TIP3    H125241   1.149   4.969   1.477 -1.1978  1.4437  1.2593
 1250TIP3    H225242   1.169   4.904   1.612  0.5651 -0.1724  0.2624
 1251TIP3   OH225243   3.930   1.628  11.567 -0.1025  0.4311 -0.0135
 1251TIP3    H125244   4.023   1.615  11.549  0.2654 -0.1954  2.0559
 1251TIP3    H225245   3.884   1.575  11.501  0.9349  1.3905 -1.5740
 1252TIP3   OH225246   5.090   2.350  12.065 -0.1652  0.2417 -0.4190
 1252TIP3    H125247   5.177   2.384  12.047  1.2128 -2.3781  0.7031
 1252TIP3    H225248   5.051   2.414  12.124  1.5958  0.7561  0.2485
 1253TIP3   OH225249   4.890   0.923  11.354 -0.2047  0.1776 -0.2887
 1253TIP3    H125250   4.912   0.873  11.276  0.1770  0.2262 -0.2149
 1253TIP3    H225251   4.960   0.988  11.362  0.8600 -1.0696  1.1756
 1254TIP3   OH225252   4.833   6.432   5.685  0.2962  0.3511 -0.0280
 1254TIP3    H125253   4.850   6.524   5.666  1.3741 -0.0769 -1.4109
 1254TIP3    H225254   4.844   6.388   5.600 -1.6979 -0.8686  0.2777
 1255TIP3   OH225255   3.032   1.366   4.428 -1.0153 -0.4820 -0.3738
 1255TIP3    H125256   2.945   1.343   4.461 -0.4599  0.2357  1.7392
 1255TIP3    H225257   3.090   1.299   4.464 -0.4923 -0.2227 -0.7159
 1256TIP3   OH225258   3.228   1.517  11.341  0.6546  0.2562  0.0739
 1256TIP3    H125259   3.199   1.583  11.278  1.3805 -0.7116 -1.3181
 1256TIP3    H225260   3.272   1.568  11.410  0.2549  1.3045 -0.4170
 1257TIP3   OH225261   1.340   2.409   3.471  0.8405  0.0131  0.5135
 1257TIP3    H125262   1.322   2.499   3.443  1.0825 -0.0802  0.0577
 1257TIP3    H225263   1.294   2.354   3.408 -1.1673 -0.1893  2.0487
 1258TIP3   OH225264   3.417   6.691  16.067 -0.1693  0.0556 -0.5837
 1258TIP3    H125265   3.504   6.673  16.104 -0.9731  0.3563  1.6292
 1258TIP3    H225266   3.380   6.605  16.048 -0.5507 -0.2943  1.4786
 1259TIP3   OH225267   4.445   2.872  14.419 -0.3302  0.3962 -0.2242
 1259TIP3    H125268   4.377   2.938  14.404  0.2607  0.5025 -2.7864
 1259TIP3    H225269   4.513   2.920  14.467 -0.8755  1.0129 -0.0395
 1260TIP3   OH225270   3.653   2.615   1.287 -0.0495 -0.1582 -0.1005
 1260TIP3    H125271   3.646   2.594   1.194  1.0291 -0.7082 -0.0774
 1260TIP3    H225272   3.722   2.558   1.319  1.5640  1.9326  0.4312
 1261TIP3   OH225273   3.222   3.577   3.937  0.2165  0.2103  0.5008
 1261TIP3    H125274   3.177   3.564   3.853  0.0098  0.7297  0.5229
 1261TIP3    H225275   3.315   3.570   3.916  0.2846  2.3157 -0.1812
 1262TIP3   OH225276   5.558   3.683   3.562  0.0959 -0.9430  0.0907
 1262TIP3    H125277   5.580   3.592   3.580  0.1272 -0.6635  1.6265
 1262TIP3    H225278   5.524   3.716   3.645 -1.6490 -0.0528 -0.9051
 1263TIP3   OH225279   3.553   0.832   4.065 -0.4096  0.4439 -0.4759
 1263TIP3    H125280   3.506   0.796   3.989 -0.6440  0.2533 -0.2418
 1263TIP3    H225281   3.624   0.770   4.081 -0.3808  0.4663 -0.5137
 1264TIP3   OH225282   3.865   3.907   2.875 -0.3553 -0.0794  0.2692
 1264TIP3    H125283   3.878   3.878   2.785 -1.4493 -2.1973  0.7363
 1264TIP3    H225284   3.833   3.997   2.867 -3.9325 -1.3515 -1.6992
 1265TIP3   OH225285   3.947   5.119  16.726  0.3372 -0.1079 -0.2536
 1265TIP3    H125286   3.891   5.191  16.695 -0.7384  0.5840  2.9295
 1265TIP3    H225287   3.887   5.045  16.736  0.6626 -0.3222  0.0977
 1266TIP3   OH225288   2.980   3.780   2.876 -0.0813 -0.0398 -0.2013
 1266TIP3    H125289   3.060   3.744   2.837  0.7139  1.0372  0.3815
 1266TIP3    H225290   2.989   3.759   2.970 -0.1473  0.6781 -0.0320
 1267TIP3   OH225291   5.344   4.358   3.969 -0.5088  0.2149  0.0828
 1267TIP3    H125292   5.288   4.368   3.892 -0.6864  1.5897  0.3674
 1267TIP3    H225293   5.423   4.408   3.948  0.7201 -1.7988 -0.3623
 1268TIP3   OH225294   6.207   4.906  13.228 -0.5377  0.0214 -0.2081
 1268TIP3    H125295   6.136   4.941  13.283 -0.6028  0.8808 -0.8148
 1268TIP3    H225296   6.286   4.949  13.261 -0.4480 -0.1512 -0.2004
 1269TIP3   OH225297   3.092   0.322  15.710 -0.2324 -0.1024 -0.0047
 1269TIP3    H125298   3.167   0.306  15.653  0.3097 -0.2756  0.7294
 1269TIP3    H225299   3.058   0.235  15.730 -2.1163  0.0572 -2.2053
 1270TIP3   OH225300   2.960   3.376   6.285  0.1432  0.2566 -0.5729
 1270TIP3    H125301   2.878   3.419   6.308  0.3146  1.4261 -2.0510
 1270TIP3    H225302   3.026   3.445   6.291  0.8800 -0.4476 -0.3388
 1271TIP3   OH225303   3.577   3.075   4.320 -0.6633 -0.0656 -0.3941
 1271TIP3    H125304   3.552   3.010   4.387 -0.7462 -1.2346 -1.5233
 1271TIP3    H225305   3.494   3.109   4.287 -0.6983 -0.9848 -1.3045
 1272TIP3   OH225306   5.556   0.375   5.163  0.4509  0.3830 -0.4271
 1272TIP3    H125307   5.552   0.368   5.068 -0.2692 -0.8056 -0.3375
 1272TIP3    H225308   5.639   0.335   5.187  0.8608  1.1207 -0.5680
 1273TIP3   OH225309   2.278   0.031  15.804 -0.3838  0.3290  0.4767
 1273TIP3    H125310   2.330  -0.008  15.874  0.3562  0.1843 -0.1398
 1273TIP3    H225311   2.195  -0.017  15.806 -0.2758  0.1531  1.0819
 1274TIP3   OH225312   2.240   2.011  13.847 -0.2432  0.5232 -0.2235
 1274TIP3    H125313   2.185   2.089  13.850 -1.7744 -0.5606  1.6988
 1274TIP3    H225314   2.270   2.006  13.756 -2.0031  2.0480 -0.9287
 1275TIP3   OH225315   2.185   5.836   0.434  0.0157  0.6467  0.5635
 1275TIP3    H125316   2.267   5.873   0.400  0.4612 -1.3852 -0.7702
 1275TIP3    H225317   2.210   5.748   0.464 -2.0571 -1.1430 -2.4103
 1276TIP3   OH225318   2.502   6.262  15.588 -0.9474  0.4670  0.2994
 1276TIP3    H125319   2.479   6.197  15.655  2.5655  0.4067  1.6531
 1276TIP3    H225320   2.566   6.319  15.631  1.1680  0.6829 -2.8446
 1277TIP3   OH225321   2.614   4.357   2.140 -0.5871  0.5357  0.4275
 1277TIP3    H125322   2.524   4.343   2.112 -1.0393  0.4402  1.8964
 1277TIP3    H225323   2.635   4.446   2.111 -0.6079  0.0414 -1.2538
 1278TIP3   OH225324   0.016   6.254  10.962 -0.2475  0.4049  0.2504
 1278TIP3    H125325   0.093   6.305  10.987  0.2386  0.6940 -1.6344
 1278TIP3    H225326  -0.057   6.298  11.005  0.6138  0.1402  2.0449
 1279TIP3   OH225327   5.598   0.621   3.896 -0.2103  0.0160  0.1424
 1279TIP3    H125328   5.671   0.584   3.947  0.2443  1.9041  0.9620
 1279TIP3    H225329   5.598   0.571   3.815  1.2404 -0.8435  0.6305
 1280TIP3   OH225330   0.254   3.061  12.764 -0.8206 -0.1368  0.0805
 1280TIP3    H125331   0.287   3.111  12.840 -0.7296 -0.0220 -0.0331
 1280TIP3    H225332   0.323   2.996  12.747 -0.7358 -0.0146 -0.0452
 1281TIP3   OH225333   2.363   5.143   2.121 -0.2553  0.1844 -0.4264
 1281TIP3    H125334   2.314   5.131   2.203 -0.6442  0.5228 -0.6080
 1281TIP3    H225335   2.421   5.068   2.118  2.2818  1.8623  1.9050
 1282TIP3   OH225336   5.141   2.248   4.059  0.0471 -0.2994 -0.4451
 1282TIP3    H125337   5.135   2.214   3.969  1.5592 -0.2302 -0.6029
 1282TIP3    H225338   5.173   2.174   4.110  0.3244 -0.0089 -0.1962
 1283TIP3   OH225339   6.207   3.628  15.179  0.3419  0.1861  0.1690
 1283TIP3    H125340   6.284   3.633  15.122  0.9804 -0.8796  0.8940
 1283TIP3    H225341   6.160   3.710  15.164  1.7789  0.9968 -0.0646
 1284TIP3   OH225342   5.348   3.173  11.740 -0.1881  0.0396 -0.2670
 1284TIP3    H125343   5.292   3.250  11.752  0.3845  0.2317  1.4470
 1284TIP3    H225344   5.293   3.099  11.765  0.1931  0.2084  1.1870
 1285TIP3   OH225345   0.310   0.214   1.978  0.5229  0.3384 -0.3620
 1285TIP3    H125346   0.237   0.153   1.973  1.6467 -0.9061 -3.4403
 1285TIP3    H225347   0.387   0.164   1.950  2.3102  2.0739  1.0549
 1286TIP3   OH225348   5.747   6.537   2.065  0.0016 -0.1946  0.4136
 1286TIP3    H125349   5.770   6.552   1.973 -0.2009 -0.6103  0.2950
 1286TIP3    H225350   5.652   6.531   2.065 -0.1485  1.6217  0.9214
 1287TIP3   OH225351   4.108   3.555  13.283  0.0807  0.5274 -0.3723
 1287TIP3    H125352   4.068   3.608  13.352  1.8001 -0.6938  1.6625
 1287TIP3    H225353   4.033   3.522  13.232 -1.1511  2.5159  0.0405
 1288TIP3   OH225354   6.545   3.860   4.645  0.3801 -0.9014  0.2050
 1288TIP3    H125355   6.633   3.896   4.661 -0.2888 -0.0353  2.2871
 1288TIP3    H225356   6.558   3.766   4.635  1.6451 -0.6676 -0.5213
 1289TIP3   OH225357   4.125   1.068  15.869 -0.1240 -0.1507 -0.0242
 1289TIP3    H125358   4.169   1.086  15.785  0.9147 -1.2588  0.2598
 1289TIP3    H225359   4.032   1.061  15.846  0.1546 -0.4933 -1.0991
 1290TIP3   OH225360   2.489   0.328   0.018 -0.4709 -0.2860 -0.4241
 1290TIP3    H125361   2.443   0.315  -0.065  0.6737 -1.9972 -0.8395
 1290TIP3    H225362   2.556   0.259   0.019  1.4225  1.4822  0.6126
 1291TIP3   OH225363   5.835   0.871   4.866  0.5846 -0.1958 -0.2664
 1291TIP3    H125364   5.806   0.782   4.847  1.7233 -0.5927 -0.2462
 1291TIP3    H225365   5.896   0.892   4.796 -0.5695  1.0465 -0.9485
 1292TIP3   OH225366   1.767   2.197   1.909 -0.2914 -0.0553 -0.1384
 1292TIP3    H125367   1.859   2.184   1.886  0.4605  1.2378  1.8708
 1292TIP3    H225368   1.748   2.126   1.971 -0.6676 -0.3339 -0.5673
 1293TIP3   OH225369   1.785   4.115  10.231  0.2987 -0.1165  0.2521
 1293TIP3    H125370   1.781   4.189  10.170  1.9273  0.1220  0.3921
 1293TIP3    H225371   1.866   4.128  10.280 -0.9259 -0.3515  2.4583
 1294TIP3   OH225372   1.445   2.997  16.397 -0.1138 -0.1440  0.1088
 1294TIP3    H125373   1.445   2.916  16.448 -0.6235 -1.0953 -1.3241
 1294TIP3    H225374   1.357   3.003  16.361 -0.2327  1.3335  0.5837
 1295TIP3   OH225375   3.425   6.194   3.328  0.2445  0.1824 -0.2120
 1295TIP3    H125376   3.481   6.238   3.393  0.3173  0.6304 -0.5741
 1295TIP3    H225377   3.425   6.253   3.253 -0.4204  0.0094 -0.3540
 1296TIP3   OH225378   2.018   3.237   6.481 -0.4619  0.2707  0.1086
 1296TIP3    H125379   2.062   3.274   6.405 -1.1868  1.9909  0.4819
 1296TIP3    H225380   2.078   3.170   6.513  0.0386 -0.2041 -1.7134
 1297TIP3   OH225381   2.845   3.048  11.386  0.1870 -0.5095 -0.3921
 1297TIP3    H125382   2.774   3.016  11.330 -1.1782  1.2792  0.2557
 1297TIP3    H225383   2.849   2.983  11.457 -1.6983 -0.0121  0.2445
 1298TIP3   OH225384   6.676   3.995   5.381  0.3550 -0.8659  0.2505
 1298TIP3    H125385   6.617   3.937   5.429  1.6784 -1.4652  1.2323
 1298TIP3    H225386   6.663   4.080   5.422  1.0911 -1.2661  1.3767
 1299TIP3   OH225387   5.386   3.814  12.616  0.0055  0.1615  0.6313
 1299TIP3    H125388   5.448   3.766  12.561 -0.7479  0.5221 -0.5853
 1299TIP3    H225389   5.321   3.749  12.641 -1.2943  0.5892 -1.4374
 1300TIP3   OH225390   2.414   3.778   3.707 -0.0232  0.3725  0.2347
 1300TIP3    H125391   2.506   3.755   3.698  0.1458  0.9071  0.5423
 1300TIP3    H225392   2.398   3.776   3.801 -0.3934  0.0451  0.1680
 1301TIP3   OH225393   3.656   2.275  17.141  0.4942  0.1715 -0.2693
 1301TIP3    H125394   3.592   2.214  17.104  1.1481 -1.0089  0.4914
 1301TIP3    H225395   3.608   2.319  17.212  0.2838 -0.1330 -0.2179
 1302TIP3   OH225396   4.460   6.108   0.368  0.0105 -0.0740 -0.0363
 1302TIP3    H125397   4.526   6.061   0.417  1.3123 -0.1687 -1.7619
 1302TIP3    H225398   4.408   6.040   0.325  0.7748 -0.0208 -1.1114
 1303TIP3   OH225399   1.002   1.859   3.793  0.0816  0.0888 -0.1959
 1303TIP3    H125400   1.087   1.820   3.770  0.6815  1.2036  0.0651
 1303TIP3    H225401   0.963   1.883   3.710  0.4389  0.3966 -0.2818
 1304TIP3   OH225402   2.825   6.195   2.775  0.2365  0.0192  0.1062
 1304TIP3    H125403   2.735   6.173   2.751  0.6659 -0.7362 -0.8557
 1304TIP3    H225404   2.840   6.151   2.858 -0.2862  0.1827  0.2910
 1305TIP3   OH225405   3.438   0.764   6.505  0.3262  0.1893 -0.3948
 1305TIP3    H125406   3.359   0.818   6.495  0.4489  0.6405  0.8677
 1305TIP3    H225407   3.436   0.737   6.597  1.8841  0.5907 -0.2217
 1306TIP3   OH225408   4.603   1.690   0.664 -0.0610  0.0166 -0.0279
 1306TIP3    H125409   4.690   1.659   0.641 -0.1570 -1.1773  1.1519
 1306TIP3    H225410   4.618   1.760   0.727  0.0806  1.1760 -1.2907
 1307TIP3   OH225411   6.256   5.194   2.786 -0.6502  0.0240  0.4067
 1307TIP3    H125412   6.252   5.196   2.881 -1.5268 -0.1157  0.3785
 1307TIP3    H225413   6.307   5.116   2.765 -2.2675 -1.1599  0.7346
 1308TIP3   OH225414   6.335   3.789  16.671 -0.6215 -0.0176 -0.4556
 1308TIP3    H125415   6.415   3.824  16.633 -0.0957 -0.8246 -0.1343
 1308TIP3    H225416   6.314   3.712  16.617  0.5757 -1.6612  1.2744
 1309TIP3   OH225417   4.599   3.034  15.543  0.4995  0.0758  0.0752
 1309TIP3    H125418   4.543   3.105  15.573 -0.5650 -0.0941 -1.3567
 1309TIP3    H225419   4.550   2.994  15.471  2.0674 -0.6896 -0.6230
 1310TIP3   OH225420   2.753   4.947   5.547 -0.0992  0.3281 -0.5293
 1310TIP3    H125421   2.796   4.972   5.629 -1.1978 -0.1057  0.2125
 1310TIP3    H225422   2.797   4.999   5.480  2.9989 -1.6286 -0.1767
 1311TIP3   OH225423   2.327   4.771  12.429  0.0982  0.2845  0.4338
 1311TIP3    H125424   2.348   4.856  12.467 -0.0973 -0.0063  1.2199
 1311TIP3    H225425   2.379   4.766  12.349 -0.4864  1.4689 -0.0416
 1312TIP3   OH225426   0.657   2.883   4.502 -0.2569 -0.1928 -0.4285
 1312TIP3    H125427   0.612   2.803   4.476  0.2601 -0.7782  0.4259
 1312TIP3    H225428   0.744   2.875   4.464  0.1694 -0.5857  0.5818
 1313TIP3   OH225429   2.698   6.248  12.573  0.2010 -0.3966 -0.0074
 1313TIP3    H125430   2.663   6.173  12.525  0.6708 -0.2850 -0.5382
 1313TIP3    H225431   2.660   6.324  12.529  1.3160 -0.2623 -0.7836
 1314TIP3   OH225432   3.340   3.349  13.061  0.5284 -0.3531  0.5174
 1314TIP3    H125433   3.258   3.344  13.110 -0.8824  2.6908 -1.2404
 1314TIP3    H225434   3.407   3.364  13.128 -0.3430 -2.4719  1.9537
 1315TIP3   OH225435   0.431   2.175   4.283  0.7232  0.4253  0.3383
 1315TIP3    H125436   0.420   2.203   4.192 -0.6657 -1.0534 -0.0037
 1315TIP3    H225437   0.496   2.234   4.319  0.6943  1.5720 -1.3879
 1316TIP3   OH225438   0.040   3.973  10.881 -0.7882 -0.2413 -0.0263
 1316TIP3    H125439   0.009   4.038  10.818 -3.3618 -0.1872  1.1841
 1316TIP3    H225440   0.071   4.025  10.956 -0.9106 -0.3528  0.1031
 1317TIP3   OH225441   2.486   2.058   3.877  0.0613  0.4690  0.1199
 1317TIP3    H125442   2.469   2.152   3.884  2.5717  1.0129  0.0354
 1317TIP3    H225443   2.514   2.046   3.786 -1.5019 -0.6426 -0.2455
 1318TIP3   OH225444   4.421   4.557   5.137  0.4228 -0.1674  0.0301
 1318TIP3    H125445   4.497   4.598   5.179 -0.9581  0.8166  1.6765
 1318TIP3    H225446   4.368   4.630   5.106 -2.0379 -0.5242  2.9330
 1319TIP3   OH225447   4.774   3.934  11.831 -0.3799 -0.4574 -0.0455
 1319TIP3    H125448   4.760   3.963  11.741 -0.6109 -0.2651  0.0526
 1319TIP3    H225449   4.782   4.014  11.882 -1.8969 -0.5365  0.3636
 1320TIP3   OH225450   5.917   1.076   2.498 -0.2413  0.3894  0.1274
 1320TIP3    H125451   5.885   1.007   2.439  1.1155 -1.3764  1.3431
 1320TIP3    H225452   5.845   1.090   2.559  0.2052 -1.5960  1.1942
 1321TIP3   OH225453   0.964   4.048   6.035  0.1555 -0.0089 -0.3461
 1321TIP3    H125454   0.951   3.958   6.063 -0.2561  0.5749  1.4573
 1321TIP3    H225455   0.992   4.094   6.114  1.7293  1.1826 -1.5336
 1322TIP3   OH225456   0.479   2.612   3.500 -0.6919 -0.0761 -0.1456
 1322TIP3    H125457   0.492   2.668   3.577  1.7925 -2.4549  1.3449
 1322TIP3    H225458   0.406   2.555   3.525  0.2351 -0.9742  0.6047
 1323TIP3   OH225459   6.380   6.711  13.826 -0.2894  0.3816  0.1118
 1323TIP3    H125460   6.404   6.803  13.832  0.5436  0.0852  1.6667
 1323TIP3    H225461   6.344   6.701  13.737  0.2719  2.0284 -0.3239
 1324TIP3   OH225462   0.975   2.696  14.170  0.4186 -0.5022 -0.5405
 1324TIP3    H125463   0.910   2.663  14.108 -0.2394 -0.4964  0.1253
 1324TIP3    H225464   1.001   2.620  14.221 -1.0022 -0.0889  0.9070
 1325TIP3   OH225465   5.157   6.644  12.100  0.0626 -0.1927 -0.0854
 1325TIP3    H125466   5.156   6.613  12.191  1.9777 -1.2398 -0.3583
 1325TIP3    H225467   5.088   6.594  12.057 -0.6235  0.0496  0.7152
 1326TIP3   OH225468   2.844   2.955  13.108 -0.2662 -0.3625  0.0065
 1326TIP3    H125469   2.830   3.041  13.148 -0.8010 -0.9406  1.1199
 1326TIP3    H225470   2.758   2.929  13.078 -0.1327 -0.5861 -0.1805
 1327TIP3   OH225471   1.367   4.488   2.292 -0.1388  0.2339 -0.6890
 1327TIP3    H125472   1.333   4.405   2.326  1.6746 -0.1703  0.2341
 1327TIP3    H225473   1.398   4.466   2.204 -0.5495  0.1716 -0.8217
 1328TIP3   OH225474   2.935   6.501   4.553  0.7533 -0.4403  0.5958
 1328TIP3    H125475   2.997   6.488   4.481  0.4682 -1.3906  0.5026
 1328TIP3    H225476   2.866   6.556   4.517  1.9821  1.4545  0.9747
 1329TIP3   OH225477   2.220   6.557   0.121 -0.4141  0.4414  0.5852
 1329TIP3    H125478   2.248   6.649   0.123 -0.3431  0.5118 -1.4588
 1329TIP3    H225479   2.286   6.510   0.172  0.4144  1.3308  0.3576
 1330TIP3   OH225480   4.980   6.449  15.812  0.5456  0.3846 -0.2668
 1330TIP3    H125481   4.950   6.497  15.889 -0.1812 -1.0118  0.3669
 1330TIP3    H225482   5.015   6.516  15.753 -2.1159  1.9192 -0.2553
 1331TIP3   OH225483   1.308   4.309  12.833 -0.3695 -0.7076 -0.0484
 1331TIP3    H125484   1.225   4.314  12.785 -0.0467  0.3366 -0.5211
 1331TIP3    H225485   1.300   4.374  12.903 -0.2807 -1.2217  0.4470
 1332TIP3   OH225486   5.667   4.927  12.186 -0.2306  0.1400  0.0116
 1332TIP3    H125487   5.731   4.987  12.148 -0.5993 -0.6766 -2.0172
 1332TIP3    H225488   5.583   4.971  12.174 -0.2434  0.5425  1.3339
 1333TIP3   OH225489   1.894   5.617  11.180 -0.2479  0.0040  0.3034
 1333TIP3    H125490   1.849   5.651  11.102 -0.2373 -0.9923 -0.1574
 1333TIP3    H225491   1.986   5.611  11.153 -0.2691 -0.4927  0.3281
 1334TIP3   OH225492   1.790   5.575  14.030  0.1459 -0.0108 -0.3478
 1334TIP3    H125493   1.754   5.561  14.117  1.6132  1.0732  0.4889
 1334TIP3    H225494   1.716   5.567  13.971 -1.1808  0.7554  1.1432
 1335TIP3   OH225495   6.156   5.470   4.136 -0.1423 -0.2104 -0.2625
 1335TIP3    H125496   6.108   5.403   4.088 -0.6486  1.1503 -1.7514
 1335TIP3    H225497   6.241   5.475   4.093 -0.4581  0.7505 -0.8051
 1336TIP3   OH225498   1.282   1.319  11.052 -0.3703 -0.8677  0.7306
 1336TIP3    H125499   1.210   1.256  11.048 -0.7555 -0.5212  1.8932
 1336TIP3    H225500   1.350   1.281  10.997 -0.9524 -1.8478  0.6701
 1337TIP3   OH225501   1.486   1.845  16.077 -0.3065 -0.5611 -0.2216
 1337TIP3    H125502   1.401   1.820  16.112 -1.4191  0.6053 -1.9377
 1337TIP3    H225503   1.498   1.936  16.107 -0.3006 -0.2703 -1.0844
 1338TIP3   OH225504   6.164   5.539  13.978  0.6265 -0.2280 -0.0978
 1338TIP3    H125505   6.142   5.572  13.891  0.3633 -0.1265  0.0069
 1338TIP3    H225506   6.088   5.561  14.032  1.3982  1.0602  0.5232
 1339TIP3   OH225507   6.747   4.705  16.505  0.0094 -0.1574  0.6604
 1339TIP3    H125508   6.685   4.668  16.568 -1.6142  1.1144 -0.1393
 1339TIP3    H225509   6.705   4.784  16.472  1.4858  0.0461 -0.9028
 1340TIP3   OH225510   1.131   6.175  14.334 -0.5316  0.1537 -0.2077
 1340TIP3    H125511   1.090   6.188  14.419 -1.8001 -0.4697 -0.6864
 1340TIP3    H225512   1.152   6.082  14.332  2.3006  0.6858  0.5782
 1341TIP3   OH225513   6.273   0.331   2.297  0.1228  0.3337  0.2601
 1341TIP3    H125514   6.337   0.400   2.315  1.1369 -0.8683  1.5606
 1341TIP3    H225515   6.218   0.328   2.376  0.2912 -0.5133  0.3632
 1342TIP3   OH225516   6.375   3.079   3.396 -0.2827  0.2666  0.1681
 1342TIP3    H125517   6.300   3.081   3.454 -2.9298  2.1798 -2.9622
 1342TIP3    H225518   6.394   2.986   3.384 -0.8474 -0.2092  2.4990
 1343TIP3   OH225519   3.182   5.773  12.890  0.2173  0.6573 -0.3279
 1343TIP3    H125520   3.123   5.727  12.949  1.0079 -0.6175 -0.4942
 1343TIP3    H225521   3.262   5.787  12.941  0.0247  1.7952 -0.3098
 1344TIP3   OH225522   4.998   3.953   3.171 -0.1451  0.6401 -0.2072
 1344TIP3    H125523   4.908   3.979   3.153 -0.8078 -0.7972  0.8487
 1344TIP3    H225524   5.048   3.985   3.096 -1.6785  0.6915 -1.2399
 1345TIP3   OH225525   2.005   1.046  13.845  0.4898  0.0122  0.8980
 1345TIP3    H125526   2.005   1.118  13.783  0.9560 -0.6573  0.1129
 1345TIP3    H225527   1.915   1.013  13.843  0.1596  0.8132  1.5743
 1346TIP3   OH225528   1.368   0.973   3.270  0.2019  0.9856 -0.4440
 1346TIP3    H125529   1.313   0.966   3.348  0.1756 -0.3398 -0.5489
 1346TIP3    H225530   1.406   0.885   3.260  0.2581  1.1497 -1.8775
 1347TIP3   OH225531   3.643   4.959  17.129 -0.0572  0.9312 -0.2691
 1347TIP3    H125532   3.551   4.954  17.104 -0.3137 -1.4402  0.8357
 1347TIP3    H225533   3.643   5.007  17.212 -0.5839 -0.5915  0.6589
 1348TIP3   OH225534   2.551   0.607   4.720 -0.0298 -1.0791  0.2357
 1348TIP3    H125535   2.606   0.540   4.680 -0.2086 -1.4769  0.6537
 1348TIP3    H225536   2.610   0.681   4.734  0.6826 -1.8876  1.7002
 1349TIP3   OH225537   3.265   4.430  15.270 -0.0067 -0.2829  0.1341
 1349TIP3    H125538   3.322   4.472  15.205 -0.9392 -1.5886 -1.6290
 1349TIP3    H225539   3.204   4.499  15.296  0.2503  0.2151 -0.5487
 1350TIP3   OH225540   2.711   3.588  11.266 -0.0961 -0.2336  0.4898
 1350TIP3    H125541   2.667   3.654  11.212 -0.6818 -0.9208  0.1040
 1350TIP3    H225542   2.677   3.504  11.234  1.2343 -0.7758  0.4297
 1351TIP3   OH225543   0.370   0.958   2.555  0.0855  0.0832  0.8002
 1351TIP3    H125544   0.359   1.046   2.519  0.1030  0.2429  1.1793
 1351TIP3    H225545   0.439   0.919   2.501 -2.3103 -1.0167 -1.7246
 1352TIP3   OH225546   2.479   3.534  11.936 -0.2572  0.5964  0.1869
 1352TIP3    H125547   2.493   3.556  11.844 -0.7098 -0.2749 -0.0943
 1352TIP3    H225548   2.395   3.574  11.958  0.0845  1.2311  0.3719
 1353TIP3   OH225549   4.537   5.613   3.972  0.6283 -0.0074 -0.0845
 1353TIP3    H125550   4.632   5.621   3.963  0.4681  1.5880 -0.6278
 1353TIP3    H225551   4.520   5.519   3.965  2.0177 -0.1902 -1.6528
 1354TIP3   OH225552   6.838   0.389  15.194 -0.2715 -0.1477  0.4847
 1354TIP3    H125553   6.760   0.394  15.249  0.1447  1.5684  0.9830
 1354TIP3    H225554   6.901   0.339  15.246 -0.4016  0.1358  0.9187
 1355TIP3   OH225555   1.761   0.818   4.374 -0.1235 -0.0334 -0.3154
 1355TIP3    H125556   1.744   0.867   4.454 -1.7977  0.6844 -1.0676
 1355TIP3    H225557   1.703   0.742   4.380 -0.6512  0.2966 -1.0638
 1356TIP3   OH225558   2.506   4.511   2.421  0.0379 -0.1098  0.1250
 1356TIP3    H125559   2.595   4.530   2.392 -0.3492  0.6154 -0.6428
 1356TIP3    H225560   2.511   4.511   2.517  0.7634  0.4295  0.0945
 1357TIP3   OH225561   3.129   0.400   5.090  0.1966  0.0983 -0.3587
 1357TIP3    H125562   3.141   0.491   5.063 -0.9491  0.3633 -0.0193
 1357TIP3    H225563   3.218   0.368   5.106  0.6305  1.0795 -0.7031
 1358TIP3   OH225564   6.738   2.214  15.232 -0.1315 -0.2690 -0.3998
 1358TIP3    H125565   6.803   2.149  15.259 -0.6915 -0.3339  0.8969
 1358TIP3    H225566   6.665   2.202  15.293 -0.4254  1.2902 -0.3938
 1359TIP3   OH225567   4.227   5.415   0.063  0.0864 -0.1862 -0.2254
 1359TIP3    H125568   4.307   5.430   0.113  0.4804  0.9862 -1.1590
 1359TIP3    H225569   4.207   5.322   0.077  1.3182 -0.3726  0.4280
 1360TIP3   OH225570   3.014   1.741   4.766  0.3599 -0.4242 -0.2347
 1360TIP3    H125571   3.010   1.728   4.671 -0.3963  1.3225 -0.4913
 1360TIP3    H225572   2.947   1.807   4.784  0.2529 -0.9646  1.5840
 1361TIP3   OH225573   5.156   4.573  15.680 -0.5602 -0.1684 -0.6180
 1361TIP3    H125574   5.108   4.644  15.723 -1.2329  0.3302 -2.1004
 1361TIP3    H225575   5.123   4.493  15.721 -1.7019  0.2463 -0.7003
 1362TIP3   OH225576   4.445   4.422  11.699  0.2494 -0.7046 -0.3653
 1362TIP3    H125577   4.527   4.447  11.655  0.1139 -0.8207 -0.6859
 1362TIP3    H225578   4.472   4.355  11.762  0.8696  1.2292  1.5741
 1363TIP3   OH225579   2.260   0.370  15.387  0.3971 -0.1445 -0.5357
 1363TIP3    H125580   2.311   0.446  15.359  0.2633 -0.9878 -3.3579
 1363TIP3    H225581   2.190   0.362  15.323  0.1602 -2.3965 -0.0967
 1364TIP3   OH225582   0.380   0.452  13.825  0.0179 -0.1560 -0.6370
 1364TIP3    H125583   0.403   0.501  13.904  2.1527 -1.1617 -0.5709
 1364TIP3    H225584   0.323   0.381  13.856  0.7576 -0.4833  0.0133
 1365TIP3   OH225585   2.886   1.569  13.977  0.8921 -0.4524 -0.2009
 1365TIP3    H125586   2.905   1.646  13.925  0.0090  0.0230  0.1556
 1365TIP3    H225587   2.971   1.528  13.992  1.1661 -0.7054 -2.1441
 1366TIP3   OH225588   0.529   0.095   1.859  0.1028 -0.0728 -0.1536
 1366TIP3    H125589   0.605   0.039   1.878  0.3672  0.5890  0.8141
 1366TIP3    H225590   0.528   0.103   1.763 -0.4497 -2.4152 -0.4083
 1367TIP3   OH225591   5.076   6.784   6.306  0.7738 -0.0864 -0.0072
 1367TIP3    H125592   4.999   6.735   6.332  0.9212  1.4134  3.9954
 1367TIP3    H225593   5.054   6.876   6.324  3.2286  0.4444  0.7339
 1368TIP3   OH225594   3.187   2.830   4.596  0.0485 -0.0649  0.3541
 1368TIP3    H125595   3.181   2.740   4.627 -0.2007  0.2352  1.2047
 1368TIP3    H225596   3.109   2.843   4.543  0.6306 -0.6767 -0.6796
 1369TIP3   OH225597   6.795   4.586  16.243 -0.5865  0.2576 -0.6720
 1369TIP3    H125598   6.709   4.624  16.224 -0.3165  0.8108 -0.8012
 1369TIP3    H225599   6.819   4.623  16.328 -1.1250 -1.0453  0.0881
 1370TIP3   OH225600   4.989   4.620   0.361  0.3412  0.5428  0.2975
 1370TIP3    H125601   4.913   4.673   0.385  1.4936  2.4517 -0.0081
 1370TIP3    H225602   5.062   4.682   0.360  2.1050 -1.3594  1.4686
 1371TIP3   OH225603   0.315   5.160  13.692 -0.6861  0.7833 -0.7459
 1371TIP3    H125604   0.328   5.123  13.779 -1.0093  0.4813 -0.8254
 1371TIP3    H225605   0.229   5.202  13.697 -0.5650  1.0402 -0.8239
 1372TIP3   OH225606   6.376   1.934  16.603 -0.0338 -0.7613  0.8381
 1372TIP3    H125607   6.430   1.960  16.529 -0.6604  2.1648  1.2864
 1372TIP3    H225608   6.431   1.874  16.653  3.1601  2.4101  1.5394
 1373TIP3   OH225609   3.073   2.796  15.704  0.2404 -0.0143 -0.6890
 1373TIP3    H125610   3.065   2.865  15.770 -0.4161 -0.7153 -0.0125
 1373TIP3    H225611   3.007   2.818  15.638 -1.6982 -1.2288  0.7083
 1374TIP3   OH225612   1.883   4.054  10.896  0.4612 -0.3064 -0.5078
 1374TIP3    H125613   1.881   3.959  10.887 -2.8498 -0.2120 -2.1593
 1374TIP3    H225614   1.858   4.070  10.987 -1.3280 -1.0822 -0.8124
 1375TIP3   OH225615   0.771   4.741  11.588 -0.3262 -0.1201  0.8343
 1375TIP3    H125616   0.733   4.658  11.558 -2.0907  0.8579  0.1784
 1375TIP3    H225617   0.840   4.716  11.649  0.8903 -2.1268 -1.2139
 1376TIP3   OH225618   6.269   0.908  11.161 -0.1029  0.5648  0.6226
 1376TIP3    H125619   6.183   0.920  11.202 -0.4394 -1.3423  0.5304
 1376TIP3    H225620   6.283   0.989  11.112 -2.9086  0.0388 -1.2681
 1377TIP3   OH225621   0.132   5.189  15.361 -0.0108 -0.5307 -0.1066
 1377TIP3    H125622   0.097   5.217  15.446 -0.2013 -1.8134  0.2610
 1377TIP3    H225623   0.084   5.242  15.297 -2.7928 -2.2675  0.3725
 1378TIP3   OH225624   5.524   1.044   0.431 -0.1174 -0.1095 -0.4400
 1378TIP3    H125625   5.449   1.100   0.448 -0.5166 -0.7244 -0.1302
 1378TIP3    H225626   5.494   0.956   0.453  0.7035 -0.3614 -0.2731
 1379TIP3   OH225627   1.261   4.698  16.464  0.5733 -0.0415 -0.1901
 1379TIP3    H125628   1.233   4.747  16.387  1.1222  0.6070  0.0092
 1379TIP3    H225629   1.216   4.741  16.537  0.3649 -0.4000 -0.1070
 1380TIP3   OH225630   6.374   3.018  16.543 -0.7432  0.1222 -0.3095
 1380TIP3    H125631   6.332   2.935  16.562  0.6299 -0.0958  2.1847
 1380TIP3    H225632   6.402   3.052  16.628 -0.4775  2.7363 -1.3168
 1381TIP3   OH225633   2.062   1.938   5.820 -0.0348  0.0712  0.5506
 1381TIP3    H125634   2.148   1.968   5.792 -0.7328  0.5771 -1.1872
 1381TIP3    H225635   2.045   1.986   5.901  0.7130  1.1022  0.1232
 1382TIP3   OH225636   4.849   5.146  11.354 -0.3577  0.1314 -0.0842
 1382TIP3    H125637   4.915   5.138  11.422 -0.9076 -0.6053  0.3872
 1382TIP3    H225638   4.891   5.197  11.285  0.1684  0.9953  0.8533
 1383TIP3   OH225639   4.448   2.253  11.961 -0.6294 -0.1299 -0.0859
 1383TIP3    H125640   4.467   2.277  11.871  0.0606 -1.4162 -0.3038
 1383TIP3    H225641   4.390   2.177  11.954  1.9385 -2.2625  0.4642
 1384TIP3   OH225642   2.334   2.239   0.663  0.2158  0.1729 -0.4483
 1384TIP3    H125643   2.294   2.154   0.683  0.3159 -0.1237 -1.4391
 1384TIP3    H225644   2.272   2.303   0.697 -1.3015 -0.2666 -2.1779
 1385TIP3   OH225645   6.357   5.147   4.294  0.3404  0.5659 -0.3393
 1385TIP3    H125646   6.401   5.211   4.351 -0.5454 -0.4362  1.5769
 1385TIP3    H225647   6.265   5.149   4.323 -0.4760  0.9476 -2.6777
 1386TIP3   OH225648   2.401   3.484   1.312 -0.2063  0.0425 -0.3974
 1386TIP3    H125649   2.384   3.470   1.219  1.2379 -2.0174 -0.4209
 1386TIP3    H225650   2.451   3.565   1.315 -0.0703  0.0090 -1.4411
 1387TIP3   OH225651   4.565   3.456  16.187 -0.2844  0.0057 -0.0699
 1387TIP3    H125652   4.636   3.391  16.190  0.0815  0.4201  1.9377
 1387TIP3    H225653   4.546   3.467  16.094 -0.8172 -3.4418 -0.4860
 1388TIP3   OH225654   4.689   0.777  13.726  0.3255 -0.9369 -0.3709
 1388TIP3    H125655   4.629   0.749  13.656 -0.1634  0.0650 -0.3681
 1388TIP3    H225656   4.764   0.814  13.679  1.0283 -2.2964 -0.3768
 1389TIP3   OH225657   0.441   1.705  13.835  0.3801 -0.3748 -0.2893
 1389TIP3    H125658   0.473   1.793  13.855 -0.0028 -0.3210  0.1213
 1389TIP3    H225659   0.345   1.713  13.839  0.3471 -0.9566  0.4649
 1390TIP3   OH225660   1.524   4.412  12.699 -0.0455 -0.1595 -0.0830
 1390TIP3    H125661   1.477   4.423  12.617  0.6930 -1.3239 -0.6883
 1390TIP3    H225662   1.465   4.359  12.753 -0.8838  1.2917  0.4736
 1391TIP3   OH225663   3.065   6.138  13.425  0.5489 -0.4340  0.2777
 1391TIP3    H125664   3.108   6.107  13.505  0.5336 -0.0013  0.4538
 1391TIP3    H225665   3.122   6.207  13.392 -0.6282  1.0281  1.1960
 1392TIP3   OH225666   5.158   1.963  15.870 -0.0883  0.0013 -0.1758
 1392TIP3    H125667   5.200   1.978  15.955 -0.2745 -0.7224  0.0493
 1392TIP3    H225668   5.212   1.895  15.830 -1.0478 -0.9488  0.1203
 1393TIP3   OH225669   2.546   3.806   6.787  0.6545 -0.5093 -0.3751
 1393TIP3    H125670   2.579   3.895   6.798 -3.1908  0.9607  1.3616
 1393TIP3    H225671   2.545   3.792   6.693 -0.8188  2.3627 -0.8968
 1394TIP3   OH225672   2.723   1.924   3.103  0.4667 -0.1458  0.0375
 1394TIP3    H125673   2.689   1.840   3.131  2.4820 -0.9081  0.3900
 1394TIP3    H225674   2.706   1.983   3.177  1.7390 -1.0376  1.1030
 1395TIP3   OH225675   4.847   1.676   2.426 -0.1007  0.8064  0.2411
 1395TIP3    H125676   4.918   1.612   2.414 -0.1783  0.7166  0.2585
 1395TIP3    H225677   4.845   1.692   2.520 -1.7682 -1.1123  0.5912
 1396TIP3   OH225678   6.026   4.847   5.121  0.6102  0.0526 -0.0254
 1396TIP3    H125679   6.034   4.852   5.026 -0.4364  0.9528 -0.0921
 1396TIP3    H225680   6.065   4.928   5.153 -0.3107  0.4319  0.1905
 1397TIP3   OH225681   4.353   0.989  14.417 -0.1288 -0.2751 -0.3182
 1397TIP3    H125682   4.394   0.992  14.330 -1.1101 -0.7708 -0.8206
 1397TIP3    H225683   4.259   0.989  14.399 -0.3689 -2.3466  0.6530
 1398TIP3   OH225684   6.323   1.910   3.150  0.1558 -0.1338 -0.0582
 1398TIP3    H125685   6.398   1.970   3.157  0.8410 -0.6557 -2.1411
 1398TIP3    H225686   6.265   1.953   3.087 -1.9088  0.8004  2.3586
 1399TIP3   OH225687   1.346   4.584  16.996 -0.2554 -0.2518 -0.1705
 1399TIP3    H125688   1.315   4.668  16.960 -2.8047 -1.1256 -0.1873
 1399TIP3    H225689   1.438   4.579  16.969  0.6071  3.3967  1.4770
 1400TIP3   OH225690   1.761   5.288  10.891 -0.0973  0.3413  0.3093
 1400TIP3    H125691   1.849   5.326  10.883  0.2054 -0.1281  1.2598
 1400TIP3    H225692   1.708   5.336  10.827  0.3558  2.0909  1.1903
 1401TIP3   OH225693   2.577   4.354   3.043 -0.0466 -0.1816  0.2892
 1401TIP3    H125694   2.516   4.313   2.982 -0.6555  0.2855  0.5827
 1401TIP3    H225695   2.523   4.406   3.101  0.6783  0.7904  0.1242
 1402TIP3   OH225696   0.618   4.211  11.909 -0.5802  0.3189 -0.0142
 1402TIP3    H125697   0.578   4.148  11.968 -0.1741  1.0016  1.0103
 1402TIP3    H225698   0.701   4.234  11.950  1.9520 -2.5182 -2.9902
 1403TIP3   OH225699   3.693   0.875   1.639 -0.7654  0.0744  0.2380
 1403TIP3    H125700   3.605   0.907   1.659 -0.9586 -0.7801  0.8090
 1403TIP3    H225701   3.752   0.934   1.687 -1.0848 -0.0528  0.7931
 1404TIP3   OH225702   5.095   2.245   2.027  0.5583 -0.0396  0.0096
 1404TIP3    H125703   5.117   2.309   1.959 -1.5189  0.5100 -0.2065
 1404TIP3    H225704   5.090   2.162   1.980  0.6760  0.0764 -0.2126
 1405TIP3   OH225705   3.401   6.151  14.056  0.4784  0.3142  0.4749
 1405TIP3    H125706   3.360   6.185  14.136  1.1416 -0.3575  1.1222
 1405TIP3    H225707   3.347   6.074  14.034  0.3463  0.4499  0.3260
 1406TIP3   OH225708   3.647   1.829  11.901 -0.2003 -0.3059 -0.3885
 1406TIP3    H125709   3.714   1.869  11.957 -1.4521 -0.0172  0.9776
 1406TIP3    H225710   3.572   1.815  11.959 -1.0159 -1.4871 -1.6426
 1407TIP3   OH225711   1.870   3.777  10.930  0.1704 -0.1448 -0.3185
 1407TIP3    H125712   1.923   3.722  10.988 -1.5030 -0.9931  0.4819
 1407TIP3    H225713   1.847   3.720  10.857  0.5074  0.2733 -0.7536
 1408TIP3   OH225714   6.686   2.854   0.992  0.1154 -0.3974 -0.1765
 1408TIP3    H125715   6.757   2.789   0.985  1.9048  1.4185  0.1759
 1408TIP3    H225716   6.702   2.897   1.076 -1.8995 -0.4496  0.2641
 1409TIP3   OH225717   6.087   3.827   2.869  0.6238  0.4123  0.0352
 1409TIP3    H125718   6.113   3.740   2.900  0.9428  0.4098 -0.2332
 1409TIP3    H225719   5.992   3.829   2.880  0.8901  1.1600  2.8869
 1410TIP3   OH225720   3.151   1.933   1.743 -0.1103  0.0983  0.1692
 1410TIP3    H125721   3.161   1.870   1.672  2.9454  0.2666  0.2885
 1410TIP3    H225722   3.126   1.880   1.819 -3.1033 -0.1208 -0.8573
 1411TIP3   OH225723   4.872   3.732   3.473 -0.2829  0.2961 -0.1658
 1411TIP3    H125724   4.791   3.739   3.422 -1.1821  0.4513  1.2022
 1411TIP3    H225725   4.903   3.822   3.480  0.8382  0.0856 -1.9000
 1412TIP3   OH225726   2.623   2.072  12.285  0.2236  0.3231  0.0189
 1412TIP3    H125727   2.589   1.983  12.282  0.4341  0.1207  2.2034
 1412TIP3    H225728   2.678   2.079  12.206 -0.2109 -1.2841 -0.4667
 1413TIP3   OH225729   0.029   5.192   1.392  0.2185  0.4143  0.6711
 1413TIP3    H125730  -0.046   5.252   1.396  0.7777  1.1186  1.0358
 1413TIP3    H225731   0.059   5.185   1.483  0.4603 -0.0312  0.5596
 1414TIP3   OH225732   1.854   0.885   2.475 -0.3412  0.0081 -0.3843
 1414TIP3    H125733   1.920   0.952   2.495  0.3651 -0.5945 -0.6389
 1414TIP3    H225734   1.869   0.816   2.539 -1.3847  0.2920  0.1843
 1415TIP3   OH225735   3.426   5.206  11.117  0.5279  0.1056  0.0836
 1415TIP3    H125736   3.386   5.119  11.118  1.1620 -0.2504 -1.7098
 1415TIP3    H225737   3.359   5.264  11.151 -0.7691 -0.7793 -0.8650
 1416TIP3   OH225738   4.631   2.428  16.140  0.1319  0.4627 -0.0922
 1416TIP3    H125739   4.589   2.463  16.219  0.3109 -0.2054  0.3091
 1416TIP3    H225740   4.569   2.449  16.069  0.1788  1.4621  0.1454
 1417TIP3   OH225741   4.959   0.551   4.399  0.0376 -0.0555 -0.3376
 1417TIP3    H125742   4.999   0.465   4.410 -1.4476 -0.7679 -0.2494
 1417TIP3    H225743   4.937   0.556   4.306  1.0466  0.6750 -0.5519
 1418TIP3   OH225744   2.490   5.533  12.709  0.4693 -0.1680 -0.2891
 1418TIP3    H125745   2.573   5.568  12.741 -0.2018  0.4826  0.8241
 1418TIP3    H225746   2.483   5.447  12.751 -0.0211  0.3391  0.7218
 1419TIP3   OH225747   5.811   3.372   0.898 -0.3242  0.2972  0.5215
 1419TIP3    H125748   5.797   3.453   0.947 -0.2994 -0.0342  1.0860
 1419TIP3    H225749   5.783   3.302   0.958 -0.8411 -0.0803 -0.1520
 1420TIP3   OH225750   4.049   2.486  14.522 -0.1121  0.4120  0.2862
 1420TIP3    H125751   4.113   2.481  14.451  0.2711 -0.7797  0.7036
 1420TIP3    H225752   4.099   2.463  14.601 -1.0145 -0.3742  0.6385
 1421TIP3   OH225753   6.085   0.818  16.309 -0.2391  0.3042  0.3376
 1421TIP3    H125754   6.139   0.890  16.278  1.0559 -0.5481  0.5035
 1421TIP3    H225755   6.133   0.783  16.385 -0.6261 -0.9505  0.0264
 1422TIP3   OH225756   4.059   3.914  15.149 -0.3869 -0.3030  0.4423
 1422TIP3    H125757   4.075   3.920  15.055 -2.2069  0.4778  0.1301
 1422TIP3    H225758   4.134   3.958  15.190  0.0812 -0.0386 -0.6857
 1423TIP3   OH225759   6.125   2.501  12.616  0.4520  0.3861 -0.0805
 1423TIP3    H125760   6.051   2.452  12.653  1.1876  0.8679  2.1801
 1423TIP3    H225761   6.202   2.461  12.656  1.3835  0.5550 -1.6345
 1424TIP3   OH225762   6.088   3.075  15.126 -0.2783  0.0444 -0.2459
 1424TIP3    H125763   6.022   3.056  15.193  0.3163 -0.2683  0.2600
 1424TIP3    H225764   6.119   3.163  15.147 -0.4214  0.1310 -0.3931
 1425TIP3   OH225765   2.916   2.060  13.392  1.1934 -0.3844 -0.4280
 1425TIP3    H125766   2.832   2.021  13.367  0.1069 -1.5742  4.1307
 1425TIP3    H225767   2.900   2.154  13.387  0.7637 -0.5058 -2.6593
 1426TIP3   OH225768   1.666   4.810   2.538  0.5397  0.0446 -0.2925
 1426TIP3    H125769   1.627   4.727   2.513  1.3040 -0.1161 -1.0071
 1426TIP3    H225770   1.602   4.876   2.512 -0.5700 -0.3547  1.2952
 1427TIP3   OH225771   4.427   5.440   1.189 -0.6706  0.3173 -0.1048
 1427TIP3    H125772   4.357   5.445   1.254 -0.2619 -1.5543  0.5400
 1427TIP3    H225773   4.383   5.457   1.105 -1.6292  0.5378  0.4219
 1428TIP3   OH225774   4.282   1.355   2.579 -0.3605  0.4667 -0.0235
 1428TIP3    H125775   4.325   1.435   2.610  1.1354  0.1818 -1.2593
 1428TIP3    H225776   4.268   1.370   2.486 -2.0606  0.1109  0.1321
 1429TIP3   OH225777   3.535   1.617  13.766 -0.5333  0.2670  0.1870
 1429TIP3    H125778   3.543   1.650  13.856  1.6613 -2.5311  1.1649
 1429TIP3    H225779   3.597   1.670  13.716 -1.2812  1.4078  0.4214
 1430TIP3   OH225780   0.886   4.268   2.811  0.4954  0.3745 -0.1875
 1430TIP3    H125781   0.836   4.288   2.731 -3.2531 -2.4181  1.1381
 1430TIP3    H225782   0.889   4.351   2.858 -0.8638  1.2205 -1.4754
 1431TIP3   OH225783   5.739   4.810  14.969 -0.4751  0.0030 -0.0235
 1431TIP3    H125784   5.764   4.718  14.981  2.3859  0.9204  1.9359
 1431TIP3    H225785   5.728   4.819  14.874  2.6098 -1.6331 -0.6554
 1432TIP3   OH225786   4.603   6.339   5.123 -0.0498  0.8572 -0.4931
 1432TIP3    H125787   4.564   6.355   5.037  0.6755 -0.3969 -1.0978
 1432TIP3    H225788   4.621   6.245   5.123 -0.0375  0.8494  1.0399
 1433TIP3   OH225789   5.418   5.999  15.482  0.2093 -0.1177  0.1920
 1433TIP3    H125790   5.511   5.977  15.483  0.1672 -0.3518  1.5329
 1433TIP3    H225791   5.385   5.964  15.565 -0.7851  1.1628  0.3693
 1434TIP3   OH225792   4.476   3.553   2.322 -0.5373  0.2601  0.4750
 1434TIP3    H125793   4.516   3.484   2.376 -1.6638 -0.2427  0.7132
 1434TIP3    H225794   4.389   3.519   2.302 -1.4189  1.9330  1.2391
 1435TIP3   OH225795   1.498   2.179  11.387 -0.2697  0.2680  0.2459
 1435TIP3    H125796   1.411   2.219  11.387  0.1065  1.2792 -2.0798
 1435TIP3    H225797   1.554   2.246  11.426 -0.0969  0.8793 -1.0060
 1436TIP3   OH225798   0.168   4.428   3.248 -0.3500 -0.4435  0.4161
 1436TIP3    H125799   0.233   4.422   3.178  0.7267 -1.4774  1.4568
 1436TIP3    H225800   0.103   4.490   3.215  0.7629  0.0406 -0.9708
 1437TIP3   OH225801   2.553   1.633  13.113 -0.0238  0.5038 -0.4960
 1437TIP3    H125802   2.551   1.647  13.018  0.7119  1.0523 -0.4434
 1437TIP3    H225803   2.522   1.716  13.150  1.6540  1.0486 -0.2283
 1438TIP3   OH225804   0.329   2.244  13.869  0.2427  0.4474 -0.6809
 1438TIP3    H125805   0.358   2.281  13.952  1.3752 -1.2097 -0.2829
 1438TIP3    H225806   0.243   2.207  13.888  1.3104 -1.6553  0.3416
 1439TIP3   OH225807   1.068   5.313  13.786  0.4892  0.0565 -0.0442
 1439TIP3    H125808   0.973   5.309  13.790  0.3969  0.7940 -1.1261
 1439TIP3    H225809   1.092   5.381  13.849  0.3576 -0.5718  0.6949
 1440TIP3   OH225810   1.055   0.673   5.862 -0.1267 -1.0638  0.2541
 1440TIP3    H125811   1.112   0.666   5.785 -0.2303 -1.8183  0.2416
 1440TIP3    H225812   0.985   0.610   5.845 -0.1105 -1.2835  1.0032
 1441TIP3   OH225813   3.928   5.267   3.704 -0.5059 -0.3663  0.0590
 1441TIP3    H125814   3.881   5.349   3.720  1.3058  0.6082  0.6148
 1441TIP3    H225815   3.990   5.288   3.634  2.8666  0.0297  2.9100
 1442TIP3   OH225816   3.755   2.501   6.136 -0.0432  0.1580 -0.3307
 1442TIP3    H125817   3.668   2.521   6.172 -0.6264 -0.8037 -1.1739
 1442TIP3    H225818   3.809   2.482   6.213 -1.6364 -3.3310  0.0928
 1443TIP3   OH225819   4.641   2.800  13.851  0.2521  0.6484 -0.1691
 1443TIP3    H125820   4.586   2.860  13.801 -2.2077 -0.4530  1.0532
 1443TIP3    H225821   4.623   2.714  13.814 -0.1891  0.0560  1.3504
 1444TIP3   OH225822   3.710   3.778  15.016  0.4619 -0.0474 -0.2910
 1444TIP3    H125823   3.779   3.764  14.951 -0.3769 -0.8326 -1.0396
 1444TIP3    H225824   3.651   3.841  14.975  0.2944 -0.0010  0.0179
 1445TIP3   OH225825   5.044   1.943   3.370  0.0529 -0.1986 -0.2000
 1445TIP3    H125826   5.048   1.875   3.303  0.8340  0.5887 -0.9804
 1445TIP3    H225827   5.014   2.021   3.324 -1.8229 -0.2217  0.8822
 1446TIP3   OH225828   5.721   0.930  13.816 -0.4260  0.7083  0.0311
 1446TIP3    H125829   5.669   0.929  13.736 -2.6113 -0.0469  1.3658
 1446TIP3    H225830   5.764   0.844  13.817 -0.6980  0.5678 -0.1446
 1447TIP3   OH225831   3.494   2.802   0.131 -0.2562 -0.4270 -0.3382
 1447TIP3    H125832   3.476   2.795   0.225 -0.6890  0.1172 -0.3724
 1447TIP3    H225833   3.440   2.876   0.102  0.6205  0.0403 -0.8250
 1448TIP3   OH225834   2.826   5.924   4.293 -0.3427 -0.0257 -0.0697
 1448TIP3    H125835   2.879   5.855   4.252 -0.4352  0.5172 -1.1648
 1448TIP3    H225836   2.740   5.885   4.304 -0.2452 -0.2717 -0.1694
 1449TIP3   OH225837   2.593   5.736   2.832  0.0515 -0.4847 -0.4197
 1449TIP3    H125838   2.591   5.684   2.912 -0.7012  0.4659  0.1968
 1449TIP3    H225839   2.542   5.814   2.852  0.5117  0.1461 -1.5700
 1450TIP3   OH225840   1.284   1.170  12.585  0.1701 -0.3686  0.2589
 1450TIP3    H125841   1.371   1.204  12.608 -0.7109  0.7701  2.2311
 1450TIP3    H225842   1.275   1.091  12.639 -0.0057 -0.4966  0.0395
 1451TIP3   OH225843   2.487   6.146   3.739  0.2713  0.0797 -0.0462
 1451TIP3    H125844   2.509   6.107   3.655 -0.2208  0.8095 -0.5214
 1451TIP3    H225845   2.541   6.098   3.802 -0.5664 -1.6090 -0.5504
 1452TIP3   OH225846   6.406   4.857   3.412  0.5862 -0.6245  0.0368
 1452TIP3    H125847   6.336   4.854   3.477  0.4048  0.6907 -0.0815
 1452TIP3    H225848   6.406   4.769   3.373  0.2546 -1.2186  1.3271
 1453TIP3   OH225849   2.978   3.811  13.459  0.1588  0.0115 -0.1061
 1453TIP3    H125850   3.016   3.744  13.516 -0.7739  0.8460  1.5940
 1453TIP3    H225851   3.052   3.846  13.410  1.0292 -0.6791  0.6778
 1454TIP3   OH225852   5.656   4.319   0.308  0.5074 -0.2855  0.2244
 1454TIP3    H125853   5.597   4.245   0.293  1.5531 -1.1386  0.1981
 1454TIP3    H225854   5.677   4.350   0.220  0.2506 -0.0992  0.2276
 1455TIP3   OH225855   2.059   0.772   1.151  0.1327  0.1543  0.3294
 1455TIP3    H125856   2.120   0.768   1.077  1.5567  2.5975  1.2860
 1455TIP3    H225857   1.987   0.828   1.120 -0.9562 -1.4689 -0.2517
 1456TIP3   OH225858   0.773   5.898   2.973 -1.0570 -0.1600 -0.0606
 1456TIP3    H125859   0.844   5.938   2.922 -1.1268 -0.1235 -0.1298
 1456TIP3    H225860   0.753   5.961   3.042  0.1352 -0.9002  1.0074
 1457TIP3   OH225861   4.038   2.234   2.697 -0.0614 -0.8632 -0.2914
 1457TIP3    H125862   4.119   2.267   2.659  0.0105 -1.6841 -0.8881
 1457TIP3    H225863   4.031   2.144   2.665 -1.6109 -0.5597 -0.9088
 1458TIP3   OH225864   5.487   2.300  15.798 -0.0459 -0.3357  0.2353
 1458TIP3    H125865   5.463   2.209  15.783 -0.2856 -0.2799  0.2689
 1458TIP3    H225866   5.476   2.343  15.713 -2.0998  0.1323  0.6922
 1459TIP3   OH225867   5.496   6.405  10.377  0.1079  0.2832 -0.0510
 1459TIP3    H125868   5.495   6.485  10.325  1.0393 -0.4728 -1.2901
 1459TIP3    H225869   5.414   6.407  10.426 -1.0801  0.7731 -1.9532
 1460TIP3   OH225870   3.116   6.445   4.344  0.5713  0.0785  0.1148
 1460TIP3    H125871   3.137   6.460   4.252 -0.8247  0.7578 -0.1267
 1460TIP3    H225872   3.144   6.354   4.360  0.1198 -0.3259 -1.2123
 1461TIP3   OH225873   4.406   5.039   5.499  0.6470 -0.8915 -0.3132
 1461TIP3    H125874   4.370   5.010   5.416  0.3796  0.9756 -0.9023
 1461TIP3    H225875   4.423   4.959   5.548  0.3592 -2.0020 -1.9745
 1462TIP3   OH225876   2.483   6.373   6.525  0.1250  0.0018 -0.2717
 1462TIP3    H125877   2.447   6.330   6.602  1.3384  1.3774  1.1339
 1462TIP3    H225878   2.544   6.310   6.488 -0.7600 -0.8213 -0.3689
 1463TIP3   OH225879   3.208   6.356   3.479  0.5229 -0.2770 -0.4802
 1463TIP3    H125880   3.117   6.330   3.485 -0.2564  1.9965 -1.2892
 1463TIP3    H225881   3.256   6.275   3.461 -1.4154 -1.4069 -0.7457
 1464TIP3   OH225882   2.553   2.498  12.434  0.6786  0.2320  0.1374
 1464TIP3    H125883   2.614   2.554  12.483 -0.4926  0.7337  1.0675
 1464TIP3    H225884   2.609   2.447  12.376  1.8514  1.8756 -0.2469
 1465TIP3   OH225885   3.451   4.987  16.798 -0.7652 -0.4924 -0.2396
 1465TIP3    H125886   3.421   5.070  16.760 -1.6595 -0.4297  0.5753
 1465TIP3    H225887   3.392   4.971  16.871  1.3798 -0.2005  1.6519
 1466TIP3   OH225888   3.050   4.274   0.984 -0.5977 -0.1670  0.4162
 1466TIP3    H125889   2.994   4.274   0.907 -3.7013 -0.4159  2.4849
 1466TIP3    H225890   3.056   4.366   1.010  0.7329 -0.0431 -0.2747
 1467TIP3   OH225891   4.474   5.603  13.065  0.3594 -0.1167 -0.2814
 1467TIP3    H125892   4.449   5.543  12.994 -0.4906 -0.9813  0.7123
 1467TIP3    H225893   4.396   5.656  13.080  0.6211  0.2358 -0.1689
 1468TIP3   OH225894   5.185   1.360   0.874  0.1514 -0.2152  0.5806
 1468TIP3    H125895   5.162   1.302   0.802  2.0413 -0.5132  0.1721
 1468TIP3    H225896   5.172   1.306   0.953  0.7680 -0.8287  0.2759
 1469TIP3   OH225897   5.810   4.519  13.937  0.0209 -0.2793  0.5601
 1469TIP3    H125898   5.744   4.551  13.877 -0.0174  2.1790  1.7959
 1469TIP3    H225899   5.761   4.492  14.015  0.2835 -0.9773  0.4959
 1470TIP3   OH225900   4.022   5.761  15.679  0.4984 -0.5701  0.6694
 1470TIP3    H125901   4.008   5.845  15.723 -0.8284 -1.2991  1.6793
 1470TIP3    H225902   4.027   5.697  15.749  2.6065 -1.2480 -0.0215
 1471TIP3   OH225903   3.206   4.165  10.614 -0.3564  0.0787  0.5997
 1471TIP3    H125904   3.218   4.245  10.665 -0.5442  0.7394 -0.3630
 1471TIP3    H225905   3.274   4.106  10.645  0.3011  0.9053  0.7557
 1472TIP3   OH225906   0.774   3.167   4.394 -0.0446 -0.0796  0.2478
 1472TIP3    H125907   0.745   3.171   4.485 -2.8959  0.6076 -0.5751
 1472TIP3    H225908   0.747   3.251   4.356  4.0768  1.1289 -0.5545
 1473TIP3   OH225909   3.970   6.737  16.589 -0.4361  0.2053  0.0478
 1473TIP3    H125910   4.025   6.785  16.651  0.7907 -0.0508 -0.8046
 1473TIP3    H225911   4.031   6.680  16.542 -1.3240  0.4172 -1.4254
 1474TIP3   OH225912   5.549   3.944  16.296 -0.5239 -0.0925 -0.6951
 1474TIP3    H125913   5.544   4.033  16.261 -0.0695  0.7477  1.2469
 1474TIP3    H225914   5.459   3.923  16.322 -0.4938  0.1359 -0.3986
 1475TIP3   OH225915   1.459   4.204   3.354 -0.4959  0.2080 -0.0471
 1475TIP3    H125916   1.388   4.223   3.415 -0.5680  0.6647 -0.2659
 1475TIP3    H225917   1.440   4.115   3.323  0.8860 -1.0213  2.3933
 1476TIP3   OH225918   6.515   3.809  14.908 -0.1023 -0.2276  0.6572
 1476TIP3    H125919   6.515   3.812  14.812 -0.0587  0.1922  0.6681
 1476TIP3    H225920   6.598   3.849  14.933  0.0840 -0.7441  0.8596
 1477TIP3   OH225921   3.589   5.767  12.563 -0.3126 -0.0079  0.3642
 1477TIP3    H125922   3.502   5.774  12.603  0.3883  0.9157  1.8041
 1477TIP3    H225923   3.596   5.675  12.538 -0.7556 -0.6953  2.5555
 1478TIP3   OH225924   4.462   6.692  13.385 -0.5543  0.4238 -0.8313
 1478TIP3    H125925   4.470   6.654  13.298 -1.9882  0.2891 -0.9276
 1478TIP3    H225926   4.377   6.735  13.384 -0.8382 -0.0717  0.6957
 1479TIP3   OH225927   3.751   3.283   4.258 -0.3062  0.1979  0.7434
 1479TIP3    H125928   3.694   3.211   4.286  0.3337 -0.3973  0.5412
 1479TIP3    H225929   3.729   3.354   4.318  0.0144 -0.5992  1.8510
 1480TIP3   OH225930   6.708   2.080   0.190 -0.1879 -0.3565  0.3795
 1480TIP3    H125931   6.670   2.029   0.262 -3.1912  1.0138 -0.1077
 1480TIP3    H225932   6.679   2.035   0.111  0.9503 -0.3967 -0.0344
 1481TIP3   OH225933   3.985   4.468   4.180  0.9424 -0.0974 -0.3680
 1481TIP3    H125934   3.916   4.487   4.244  0.0378 -0.0010 -1.3299
 1481TIP3    H225935   4.040   4.403   4.223  0.8468  0.5772  0.8204
 1482TIP3   OH225936   0.394   4.986   2.321  0.2540  0.0282  0.2395
 1482TIP3    H125937   0.437   5.028   2.246 -0.4830  0.0665 -0.1724
 1482TIP3    H225938   0.393   4.893   2.298  0.3492 -0.0063  0.3737
 1483TIP3   OH225939   3.963   0.533  16.495  0.8099 -0.1433  0.3655
 1483TIP3    H125940   3.914   0.615  16.498  1.4071  0.2406 -0.2695
 1483TIP3    H225941   3.895   0.465  16.501  0.2762  0.3816  0.4063
 1484TIP3   OH225942   0.294   4.258   4.918  0.2174  0.1678 -0.0528
 1484TIP3    H125943   0.367   4.286   4.973  0.3907 -0.3853  0.0020
 1484TIP3    H225944   0.241   4.337   4.906  0.4903  0.4241  0.4249
 1485TIP3   OH225945   0.478   4.347   5.081  0.5074 -0.4160 -0.2055
 1485TIP3    H125946   0.542   4.407   5.120 -0.0073  0.9012 -1.2898
 1485TIP3    H225947   0.519   4.261   5.087  2.0277  0.2750 -0.1098
 1486TIP3   OH225948   4.469   4.699  13.143  0.3449  0.0374  0.4257
 1486TIP3    H125949   4.423   4.687  13.060  0.1172 -1.8713  0.7858
 1486TIP3    H225950   4.516   4.781  13.132 -1.0804  0.7349 -0.9205
 1487TIP3   OH225951   5.130   0.091   4.837  0.7645 -0.1206  0.1369
 1487TIP3    H125952   5.144   0.005   4.876  1.2845  0.0909  0.4280
 1487TIP3    H225953   5.155   0.153   4.906  0.2509  0.2612 -0.0187
 1488TIP3   OH225954   5.268   5.876   1.434  0.2745  0.2223 -0.2214
 1488TIP3    H125955   5.250   5.912   1.348 -0.1649  0.8047  0.1069
 1488TIP3    H225956   5.210   5.801   1.442 -1.0206  1.2359  0.2662
 1489TIP3   OH225957   2.060   1.567   5.271 -0.7413  0.9721 -0.0140
 1489TIP3    H125958   2.022   1.655   5.282 -2.7126  0.2505 -0.5900
 1489TIP3    H225959   2.154   1.583   5.263 -1.1739  3.2491 -2.0762
 1490TIP3   OH225960   0.851   3.504  15.403 -0.0981 -0.1514 -0.3866
 1490TIP3    H125961   0.920   3.570  15.411 -0.5064  0.0661  2.5885
 1490TIP3    H225962   0.770   3.553  15.418 -0.4530 -1.1464  1.2512
 1491TIP3   OH225963   6.680   4.195  15.938  0.1835  0.2457  0.4547
 1491TIP3    H125964   6.715   4.208  15.850 -1.7152 -0.5005 -0.4691
 1491TIP3    H225965   6.620   4.120  15.929 -2.0774  1.7795  1.7667
 1492TIP3   OH225966   3.144   0.592   4.615  0.0313 -0.2510  0.0848
 1492TIP3    H125967   3.174   0.679   4.642  0.8767 -1.0979  2.0784
 1492TIP3    H225968   3.214   0.559   4.558  0.4567 -0.2209  0.5842
 1493TIP3   OH225969   0.122   6.011   3.468  0.2337 -0.2608  0.4059
 1493TIP3    H125970   0.201   6.064   3.460 -0.1354  0.6044  2.2144
 1493TIP3    H225971   0.148   5.936   3.522  0.7464 -2.0316 -2.1012
 1494TIP3   OH225972   6.413   1.100  15.261 -0.2481 -0.2489 -0.3439
 1494TIP3    H125973   6.332   1.068  15.222 -1.0746  1.4004 -0.1036
 1494TIP3    H225974   6.474   1.108  15.188 -0.9879  0.4398 -0.9082
 1495TIP3   OH225975   0.620   5.894   0.039 -0.5129  0.0156 -0.2602
 1495TIP3    H125976   0.591   5.902  -0.051  1.3608  1.0203 -0.8365
 1495TIP3    H225977   0.685   5.823   0.037  0.9176  1.2687 -0.1339
 1496TIP3   OH225978   0.421   5.371   1.009  0.0286 -0.4137 -0.0998
 1496TIP3    H125979   0.395   5.380   0.917  0.4220  0.8614 -0.0992
 1496TIP3    H225980   0.338   5.370   1.057 -0.1424 -0.0650 -0.3880
 1497TIP3   OH225981   2.463   0.248   6.487  0.0936 -0.2957  0.5616
 1497TIP3    H125982   2.425   0.335   6.499 -0.4669 -0.6946  1.8808
 1497TIP3    H225983   2.558   0.263   6.489  0.0293  0.4658 -0.8369
 1498TIP3   OH225984   6.467   5.888  14.979 -0.4931  0.0470  0.4405
 1498TIP3    H125985   6.433   5.823  15.041 -0.3832 -2.6638 -2.1327
 1498TIP3    H225986   6.426   5.866  14.896  3.3377 -0.0008 -1.6655
 1499TIP3   OH225987   6.554   0.903   5.056  0.4145 -0.0866  0.1397
 1499TIP3    H125988   6.581   0.832   4.997 -1.7277  0.0984 -1.1801
 1499TIP3    H225989   6.528   0.859   5.137 -2.3194 -1.1095 -1.1584
 1500TIP3   OH225990   4.541   0.267   1.080 -0.1823  0.0205  0.0910
 1500TIP3    H125991   4.489   0.268   1.160 -2.6289 -0.8032 -1.3713
 1500TIP3    H225992   4.539   0.176   1.051 -1.2132  0.6382 -1.9673
 1501TIP3   OH225993   4.397   2.475  15.709  0.7995 -0.8973 -0.1462
 1501TIP3    H125994   4.315   2.429  15.725 -0.2511  0.9255 -0.0458
 1501TIP3    H225995   4.379   2.532  15.635  2.0793 -0.6623 -0.3021
 1502TIP3   OH225996   0.780   4.904   5.189 -0.0146 -0.3694  0.1068
 1502TIP3    H125997   0.832   4.853   5.128 -1.9989 -1.8908 -0.4086
 1502TIP3    H225998   0.836   4.914   5.266  1.4567 -0.8800 -0.8671
 1503TIP3   OH225999   3.468   4.175  10.843 -0.0991  0.2517  0.0463
 1503TIP3    H126000   3.388   4.228  10.844  0.4230  1.0457  0.1416
 1503TIP3    H226001   3.495   4.174  10.751  0.7114  1.4138  0.2568
 1504TIP3   OH226002   3.388   4.049   5.062  0.8139 -0.1136 -0.7801
 1504TIP3    H126003   3.325   4.029   5.131  0.1487  3.1718 -0.2849
 1504TIP3    H226004   3.343   4.024   4.981 -0.6177  0.9148 -0.3372
 1505TIP3   OH226005   4.772   3.051   6.286 -0.1400  0.4056  0.1132
 1505TIP3    H126006   4.816   3.123   6.330  0.5830 -0.5151  0.9626
 1505TIP3    H226007   4.812   3.046   6.200 -0.2956  1.0916 -0.0034
 1506TIP3   OH226008   2.642   2.918  16.114  0.1292 -0.1989  0.0982
 1506TIP3    H126009   2.624   2.998  16.165 -0.0458 -0.3954  0.3509
 1506TIP3    H226010   2.628   2.847  16.177 -1.7369 -0.5430 -0.6196
 1507TIP3   OH226011   3.244   0.080   5.126 -0.7608 -0.1931 -0.4109
 1507TIP3    H126012   3.176   0.107   5.064 -1.2260 -1.5008 -0.5026
 1507TIP3    H226013   3.278  -0.002   5.089 -0.5624 -0.6221  0.6916
 1508TIP3   OH226014   3.524   1.215   0.610  0.1836 -0.3687  0.1290
 1508TIP3    H126015   3.581   1.153   0.656 -0.1232 -0.5344  0.2919
 1508TIP3    H226016   3.552   1.211   0.519  1.8295  1.0881  0.5079
 1509TIP3   OH226017   3.250   1.579  13.808  0.0417 -0.1954 -0.4691
 1509TIP3    H126018   3.200   1.654  13.840  0.5836 -0.4057  0.9134
 1509TIP3    H226019   3.339   1.612  13.797  0.1229 -0.4477 -0.5893
 1510TIP3   OH226020   1.193   0.959  10.922  0.0243  0.5186  0.2636
 1510TIP3    H126021   1.136   0.904  10.974  0.8096  1.1682  1.8850
 1510TIP3    H226022   1.166   0.944  10.831 -0.5102 -1.6426  0.7434
 1511TIP3   OH226023   3.807   5.179   2.976 -0.0479  0.4744  0.1395
 1511TIP3    H126024   3.829   5.183   2.883 -1.5089  0.9853 -0.2089
 1511TIP3    H226025   3.743   5.249   2.989  0.3975  0.6522  1.6159
 1512TIP3   OH226026   5.101   4.335  16.726 -0.2313  0.1478  0.7981
 1512TIP3    H126027   5.129   4.292  16.645 -0.8785  0.7672  0.2366
 1512TIP3    H226028   5.066   4.419  16.698  0.7400  0.9455  1.8456
 1513TIP3   OH226029   5.817   3.440  12.466  0.2177 -0.1771  0.4004
 1513TIP3    H126030   5.768   3.466  12.389 -0.3908  1.1768  1.2051
 1513TIP3    H226031   5.903   3.416  12.433 -0.4417 -0.9440 -0.8354
 1514TIP3   OH226032   3.168   0.004  16.501 -0.2958 -0.0418 -0.1944
 1514TIP3    H126033   3.247   0.037  16.544 -0.8325  2.6600 -1.1118
 1514TIP3    H226034   3.199  -0.031  16.417  0.3825 -2.8301  1.1089
 1515TIP3   OH226035   3.910   0.487   5.940 -0.5675 -0.2048  0.3455
 1515TIP3    H126036   3.885   0.564   5.990 -0.5338 -0.8892  1.4342
 1515TIP3    H226037   3.874   0.413   5.989  0.0900 -0.9381 -0.2506
 1516TIP3   OH226038   0.156   0.789  11.151 -0.4349 -0.4404 -0.3610
 1516TIP3    H126039   0.242   0.816  11.181 -1.6256  3.6113  0.0422
 1516TIP3    H226040   0.105   0.778  11.231 -0.8095 -0.8070 -0.6442
 1517TIP3   OH226041   2.673   0.281   1.187  0.4705 -0.2040 -0.4490
 1517TIP3    H126042   2.667   0.214   1.118  0.5631 -1.6929  0.9432
 1517TIP3    H226043   2.697   0.232   1.266  0.4028  1.4728  0.6471
 1518TIP3   OH226044   0.912   4.103   1.608 -0.1066  0.0574  0.3141
 1518TIP3    H126045   0.938   4.072   1.695  0.1231  1.0050  0.5995
 1518TIP3    H226046   0.860   4.181   1.625 -1.6525 -0.7982 -0.3400
 1519TIP3   OH226047   0.016   2.981  16.103  0.7505 -0.6915  0.1126
 1519TIP3    H126048  -0.034   2.966  16.022 -1.9033 -1.1931  1.7377
 1519TIP3    H226049   0.037   2.893  16.135  0.1370 -0.5609  0.9064
 1520TIP3   OH226050   3.394   5.090  13.199  0.0473 -0.3242 -0.2514
 1520TIP3    H126051   3.335   5.098  13.274  0.2890 -0.3886 -0.0564
 1520TIP3    H226052   3.444   5.010  13.215  1.6855  0.8284  0.6375
 1521TIP3   OH226053   2.582   1.500   6.190 -0.4926 -0.3986 -0.0980
 1521TIP3    H126054   2.489   1.480   6.190 -0.8338  1.0500 -0.7033
 1521TIP3    H226055   2.608   1.497   6.098 -0.2432  0.4178 -0.0684
 1522TIP3   OH226056   5.438   0.986   3.252  0.2596 -0.0558  0.1072
 1522TIP3    H126057   5.387   0.908   3.226  2.3670 -1.0423 -1.3294
 1522TIP3    H226058   5.444   0.979   3.347  0.6074 -1.8335 -0.0040
 1523TIP3   OH226059   0.765   6.092  16.172 -0.4051  0.2544  0.1052
 1523TIP3    H126060   0.697   6.121  16.233 -0.3869  0.0081  0.2406
 1523TIP3    H226061   0.847   6.105  16.219 -0.4011 -0.0792  0.1899
 1524TIP3   OH226062   4.485   1.380  16.214 -0.0513 -0.0175 -0.4347
 1524TIP3    H126063   4.390   1.369  16.219 -0.3404  2.3676  1.8698
 1524TIP3    H226064   4.510   1.411  16.301  2.7748  0.0769 -1.1741
 1525TIP3   OH226065   0.821   0.642  13.764  0.1375 -0.4573 -0.3513
 1525TIP3    H126066   0.778   0.569  13.719  1.8002 -0.4084 -2.1922
 1525TIP3    H226067   0.755   0.711  13.764 -0.1564 -0.6498 -2.3301
 1526TIP3   OH226068   6.118   4.875  15.000  0.3232  0.2995 -0.7893
 1526TIP3    H126069   6.195   4.828  14.970  0.8140 -0.0656  0.9024
 1526TIP3    H226070   6.095   4.832  15.083 -0.2523  1.9006 -0.0727
 1527TIP3   OH226071   4.264   1.805   2.849 -0.6677  0.0294  0.3246
 1527TIP3    H126072   4.268   1.743   2.921  0.4873  0.6575  0.8379
 1527TIP3    H226073   4.287   1.889   2.888 -1.0275  0.5681 -0.5800
 1528TIP3   OH226074   5.652   4.843   2.356 -0.1464  0.0399  0.0965
 1528TIP3    H126075   5.716   4.873   2.291 -0.6925  1.7834  0.3282
 1528TIP3    H226076   5.617   4.923   2.394 -1.8779 -0.9080  0.5751
 1529TIP3   OH226077   1.736   0.125  14.754  0.0048  0.3686 -0.5341
 1529TIP3    H126078   1.757   0.144  14.662 -0.7828  0.2576 -0.7427
 1529TIP3    H226079   1.687   0.202  14.783 -0.0573  0.2432 -0.3105
 1530TIP3   OH226080   2.702   4.088   5.993  0.1610 -0.1931 -0.1691
 1530TIP3    H126081   2.677   4.005   5.954 -2.7619  0.2705  0.5024
 1530TIP3    H226082   2.702   4.071   6.088 -2.3041  0.9207  0.1006
 1531TIP3   OH226083   2.476   3.304   3.686  0.1229  0.5270  0.0731
 1531TIP3    H126084   2.489   3.235   3.751 -0.5755 -0.7857 -1.1116
 1531TIP3    H226085   2.560   3.311   3.641  0.1486  0.3331  0.0907
 1532TIP3   OH226086   5.563   2.615  11.900  0.4988 -0.3097 -0.4503
 1532TIP3    H126087   5.596   2.629  11.988 -0.4010  0.6067 -0.2353
 1532TIP3    H226088   5.479   2.662  11.898  1.5612  1.7430 -2.4907
 1533TIP3   OH226089   5.937   4.846  14.369  0.3390  0.4562  0.2455
 1533TIP3    H126090   5.972   4.776  14.314 -1.2304  0.4545 -0.7845
 1533TIP3    H226091   5.945   4.812  14.458  0.9700 -0.4123 -0.1319
 1534TIP3   OH226092   1.932   3.371   4.274 -0.3348  0.0618 -0.2992
 1534TIP3    H126093   1.982   3.353   4.354  0.4188 -1.8941 -1.1492
 1534TIP3    H226094   1.996   3.410   4.214 -0.5108  0.1132 -0.4553
 1535TIP3   OH226095   0.318   4.908  12.068 -0.4572  0.4713 -0.1306
 1535TIP3    H126096   0.299   4.938  12.157 -0.1699 -0.0507  0.1170
 1535TIP3    H226097   0.258   4.957  12.013 -1.0126  0.4250  0.4095
 1536TIP3   OH226098   4.558   0.844  16.966  0.2071  0.6431  0.3480
 1536TIP3    H126099   4.485   0.906  16.955  0.3012  0.7454  0.2914
 1536TIP3    H226100   4.558   0.793  16.885 -0.2597  0.1526  0.6576
 1537TIP3   OH226101   1.580   1.686   0.362 -0.9130  0.2552  0.1880
 1537TIP3    H126102   1.598   1.630   0.438 -0.3705 -0.8364 -0.7276
 1537TIP3    H226103   1.607   1.774   0.390  3.5070 -0.7696 -0.1673
 1538TIP3   OH226104   3.633   4.153   3.824  0.0360  0.5842 -0.4892
 1538TIP3    H126105   3.546   4.190   3.812 -0.7730 -1.7189 -2.4291
 1538TIP3    H226106   3.692   4.220   3.789 -0.7274  2.6562  1.8374
 1539TIP3   OH226107   0.306   5.854   0.011  0.1422  0.1009  0.1666
 1539TIP3    H126108   0.351   5.771  -0.005 -1.8674 -1.1173  0.4560
 1539TIP3    H226109   0.358   5.919  -0.037  2.2555 -1.1507  0.6206
 1540TIP3   OH226110   4.300   5.211  15.934  0.0569  0.8327 -0.2251
 1540TIP3    H126111   4.299   5.143  16.001  1.1218  0.0463 -0.9829
 1540TIP3    H226112   4.247   5.281  15.971 -2.8508 -1.1831 -0.2697
 1541TIP3   OH226113   5.588   4.715   4.397 -0.0582  0.0241 -0.3296
 1541TIP3    H126114   5.628   4.635   4.432  1.1205  0.9717  0.5504
 1541TIP3    H226115   5.560   4.690   4.308 -0.1969 -1.5065  0.1138
 1542TIP3   OH226116   6.355   3.864   1.567  0.3025 -0.7933 -0.0260
 1542TIP3    H126117   6.377   3.852   1.660 -1.4851 -0.1560  0.5321
 1542TIP3    H226118   6.289   3.935   1.568  0.5493 -0.5058 -1.8228
 1543TIP3   OH226119   3.981   1.032   2.283 -0.2844 -0.0488  0.2175
 1543TIP3    H126120   4.010   0.943   2.262  1.3616  0.2121  1.2464
 1543TIP3    H226121   3.885   1.027   2.276 -0.2426 -1.8976  0.2861
 1544TIP3   OH226122   1.340   6.662  11.594  0.3341  0.2574 -0.4627
 1544TIP3    H126123   1.431   6.649  11.620  0.4466  0.9885 -0.4511
 1544TIP3    H226124   1.346   6.709  11.510  0.0043  2.3795  0.6274
 1545TIP3   OH226125   3.998   1.674   4.174 -0.4782 -0.6162 -0.3272
 1545TIP3    H126126   3.969   1.588   4.203 -0.2287  0.0121  2.0252
 1545TIP3    H226127   3.988   1.730   4.251  1.6533  0.9028 -1.0545
 1546TIP3   OH226128   2.502   1.963   4.132  0.2427 -0.8403 -0.0598
 1546TIP3    H126129   2.522   2.023   4.204 -1.3573 -0.0292 -0.2466
 1546TIP3    H226130   2.513   2.016   4.053 -0.0225 -1.1416 -0.2994
 1547TIP3   OH226131   5.478   3.459  12.743 -0.0751  0.6358 -0.3079
 1547TIP3    H126132   5.401   3.413  12.776  0.0082  0.6845 -0.0467
 1547TIP3    H226133   5.529   3.392  12.698 -0.5921  0.7336 -1.0556
 1548TIP3   OH226134   0.301   1.253  14.558  0.1625 -0.3148 -0.0412
 1548TIP3    H126135   0.314   1.301  14.476 -0.7348 -0.0131 -0.0203
 1548TIP3    H226136   0.278   1.321  14.622  0.2406 -0.6174  0.3083
 1549TIP3   OH226137   5.809   5.898  12.691  0.2246 -0.2940  0.4636
 1549TIP3    H126138   5.900   5.877  12.672  0.4041  0.6434  0.2459
 1549TIP3    H226139   5.780   5.950  12.616 -1.3067 -2.7544 -0.8133
 1550TIP3   OH226140   3.934   2.628   1.361 -0.0308  0.4318  0.3391
 1550TIP3    H126141   3.940   2.707   1.415  1.7898  0.8898 -0.4427
 1550TIP3    H226142   4.003   2.639   1.295  0.6120 -2.0247  0.4904
 1551TIP3   OH226143   3.308   3.790  13.283  0.5800 -0.2801 -0.2028
 1551TIP3    H126144   3.314   3.885  13.273 -0.3395 -0.1164  0.6402
 1551TIP3    H226145   3.239   3.764  13.222 -1.7503  0.1172  2.0671
 1552TIP3   OH226146   3.577   5.422   3.063  0.2893 -0.0357 -0.0744
 1552TIP3    H126147   3.575   5.422   3.159  1.3522 -1.6247 -0.0073
 1552TIP3    H226148   3.490   5.390   3.037  0.5161 -1.1237  0.4306
 1553TIP3   OH226149   1.009   4.105   2.191  0.0009  0.3360 -0.8000
 1553TIP3    H126150   1.035   4.083   2.281 -0.0392 -1.4816 -1.2020
 1553TIP3    H226151   1.059   4.045   2.136 -1.6238 -0.1176 -1.8584
 1554TIP3   OH226152   4.611   3.116  13.375 -0.1325  0.4307 -0.0231
 1554TIP3    H126153   4.602   3.041  13.316 -2.0520  0.0246  0.7090
 1554TIP3    H226154   4.669   3.084  13.444  0.2690  0.1284 -0.4950
 1555TIP3   OH226155   5.669   5.448   3.526 -0.4489  0.1545 -0.4432
 1555TIP3    H126156   5.737   5.393   3.488 -0.2210  0.6040 -0.6908
 1555TIP3    H226157   5.682   5.534   3.485 -1.3338  0.1751 -0.7026
 1556TIP3   OH226158   0.805   5.276  13.828 -0.2655  0.2582  0.0452
 1556TIP3    H126159   0.751   5.354  13.810 -1.7609 -0.9383 -0.8929
 1556TIP3    H226160   0.784   5.252  13.918  1.4685  1.8494  0.9440
 1557TIP3   OH226161   2.225   5.258   5.138 -0.2700  0.4493 -0.2048
 1557TIP3    H126162   2.314   5.252   5.173 -1.3153 -0.1568  2.6330
 1557TIP3    H226163   2.197   5.346   5.160 -0.1040  0.9606 -1.9285
 1558TIP3   OH226164   4.101   4.831   4.279 -1.0273 -0.1837 -0.0184
 1558TIP3    H126165   4.188   4.869   4.266 -0.7318 -1.0076 -0.5112
 1558TIP3    H226166   4.063   4.826   4.191 -0.7109 -1.8234 -0.0816
 1559TIP3   OH226167   4.980   3.459   0.328  0.4685  0.0692  0.4048
 1559TIP3    H126168   5.048   3.466   0.261  0.4811 -0.8125  0.3114
 1559TIP3    H226169   4.931   3.541   0.322 -0.6064 -0.6798 -1.8530
 1560TIP3   OH226170   0.670   5.341  11.015  0.0201  0.1944  0.1471
 1560TIP3    H126171   0.694   5.253  10.988  0.6456  0.5690 -0.5525
 1560TIP3    H226172   0.643   5.384  10.933 -0.2249  0.6674  0.4754
 1561TIP3   OH226173   0.999   5.361   4.080  0.6484  0.7002  0.3203
 1561TIP3    H126174   0.954   5.417   4.017 -3.0802 -1.6679  0.5455
 1561TIP3    H226175   0.962   5.386   4.165  1.4927  0.1993  0.8433
 1562TIP3   OH226176   4.543   0.037  15.213 -0.2881 -0.8834 -0.5692
 1562TIP3    H126177   4.526   0.001  15.300 -1.1013 -0.0175 -0.3532
 1562TIP3    H226178   4.536  -0.039  15.155 -0.4952 -1.3367  0.0278
 1563TIP3   OH226179   6.306   2.877   0.474 -0.4849  0.1467 -0.3964
 1563TIP3    H126180   6.252   2.844   0.546 -0.2787 -0.2185 -0.4064
 1563TIP3    H226181   6.269   2.963   0.454  1.8641  2.1031  2.7816
 1564TIP3   OH226182   6.743   3.444  16.280 -0.0358  0.7839  0.5234
 1564TIP3    H126183   6.783   3.367  16.318  0.2115  0.5661 -0.1596
 1564TIP3    H226184   6.719   3.417  16.191 -0.6539  1.2531  0.5391
 1565TIP3   OH226185   5.571   2.705   0.182 -0.2009 -0.0508 -0.2678
 1565TIP3    H126186   5.617   2.649   0.245  0.7194 -0.2151 -1.0510
 1565TIP3    H226187   5.602   2.674   0.096 -2.4391 -0.7323 -0.8952
 1566TIP3   OH226188   3.076   4.316   5.029 -0.4070  0.0968  0.3084
 1566TIP3    H126189   3.168   4.337   5.015  0.4387 -1.8666  2.3064
 1566TIP3    H226190   3.063   4.327   5.123 -1.5926 -1.7963  0.4079
 1567TIP3   OH226191   3.215   5.971   0.746  0.0148 -0.3955 -0.2346
 1567TIP3    H126192   3.131   5.988   0.789 -0.2786 -0.8847 -0.6102
 1567TIP3    H226193   3.196   5.904   0.680  0.8596 -1.1032  0.2183
 1568TIP3   OH226194   6.715   3.538   1.984  0.3039 -0.0112 -0.4070
 1568TIP3    H126195   6.726   3.482   2.061 -0.0576 -2.2570 -1.9118
 1568TIP3    H226196   6.636   3.590   2.004 -1.0142 -2.0276 -0.0493
 1569TIP3   OH226197   4.841   0.450   4.175 -0.5097 -0.3488 -0.1609
 1569TIP3    H126198   4.904   0.380   4.193  1.8686  1.6246 -0.3270
 1569TIP3    H226199   4.791   0.419   4.099  1.2831 -1.4022 -0.9739
 1570TIP3   OH226200   4.283   5.900  17.048  0.1408  0.2237  0.0785
 1570TIP3    H126201   4.311   5.836  17.114 -2.3206  0.6186  1.6485
 1570TIP3    H226202   4.317   5.983  17.080  0.4743  0.1790 -0.1503
 1571TIP3   OH226203   1.993   5.657  15.596  0.4493 -0.4823 -0.0019
 1571TIP3    H126204   1.928   5.592  15.623 -0.5243  0.0236 -1.0259
 1571TIP3    H226205   2.010   5.638  15.504  0.4518  0.4558 -0.2092
 1572TIP3   OH226206   0.489   3.736   1.282  0.0376  0.2814  0.5373
 1572TIP3    H126207   0.497   3.646   1.313  0.9746 -0.3467 -1.4155
 1572TIP3    H226208   0.394   3.754   1.285 -0.1646 -0.7677  0.8796
 1573TIP3   OH226209   5.941   5.105  16.944 -0.0946 -0.6466 -0.4463
 1573TIP3    H126210   5.998   5.105  17.022 -0.6680  0.2579 -0.0136
 1573TIP3    H226211   5.995   5.144  16.876 -0.8564  2.3870  0.5263
 1574TIP3   OH226212   0.635   3.235   3.165 -0.7211 -0.3359 -0.0792
 1574TIP3    H126213   0.586   3.161   3.200  2.2043 -1.3854  2.1735
 1574TIP3    H226214   0.655   3.211   3.075 -0.4638 -1.9549  0.3908
 1575TIP3   OH226215   5.915   4.423  11.527  0.5870  0.5598 -0.1892
 1575TIP3    H126216   5.836   4.374  11.549 -1.0861  2.6201 -1.1785
 1575TIP3    H226217   5.942   4.389  11.441  0.2480  0.4396 -0.2491
 1576TIP3   OH226218   6.587   6.482  15.701  0.4988 -0.1527  0.4908
 1576TIP3    H126219   6.673   6.500  15.662 -0.1124  1.0987 -0.3685
 1576TIP3    H226220   6.606   6.443  15.786  1.9536  1.3907  0.9266
 1577TIP3   OH226221   5.319   3.186  16.642 -0.5318  0.4985  0.0133
 1577TIP3    H126222   5.342   3.214  16.730  1.8314 -0.3530 -0.2477
 1577TIP3    H226223   5.364   3.249  16.585 -2.4372  1.3455 -0.6543
 1578TIP3   OH226224   0.868   1.138   5.868  0.3669 -0.7336 -0.0706
 1578TIP3    H126225   0.839   1.156   5.957  0.6240 -3.0532  0.5468
 1578TIP3    H226226   0.790   1.107   5.823 -0.3401  2.5961 -1.4403
 1579TIP3   OH226227   1.877   3.872   0.029  0.2419  0.3897 -0.4121
 1579TIP3    H126228   1.901   3.946  -0.026 -0.2342 -0.3689 -1.6889
 1579TIP3    H226229   1.815   3.908   0.092  0.8073  1.2801 -0.3473
 1580TIP3   OH226230   4.714   1.703  16.599 -0.3463 -0.3135  0.0427
 1580TIP3    H126231   4.782   1.635  16.601  1.8048  1.7389  0.8193
 1580TIP3    H226232   4.672   1.692  16.513  1.9842 -0.7535 -1.1372
 1581TIP3   OH226233   5.364   6.303   4.654  0.3986 -0.1812  0.2973
 1581TIP3    H126234   5.312   6.363   4.601  2.2408 -0.4182 -1.9522
 1581TIP3    H226235   5.453   6.337   4.649  0.7545 -0.4431  3.0441
 1582TIP3   OH226236   2.565   4.916   4.750 -0.7984 -0.6764 -0.0473
 1582TIP3    H126237   2.490   4.881   4.798  0.9004  0.7820  4.1465
 1582TIP3    H226238   2.616   4.838   4.726 -0.5209 -1.5288  2.9152
 1583TIP3   OH226239   3.803   4.840   3.375 -0.0332  0.6804  0.1589
 1583TIP3    H126240   3.888   4.811   3.409  0.5114  0.6170 -1.2094
 1583TIP3    H226241   3.822   4.872   3.287 -1.5163  0.1978 -0.3579
 1584TIP3   OH226242   5.573   2.867  11.151 -0.8912  0.0360 -0.0720
 1584TIP3    H126243   5.663   2.888  11.126 -1.1737 -0.9784 -2.0706
 1584TIP3    H226244   5.540   2.948  11.191  0.4264  0.9152 -0.7128
 1585TIP3   OH226245   2.137   4.630  13.995 -0.1209  0.3246 -0.0211
 1585TIP3    H126246   2.107   4.649  14.084 -0.1644 -2.0906  0.5426
 1585TIP3    H226247   2.059   4.601  13.949  0.3001 -0.5227 -0.2085
 1586TIP3   OH226248   6.580   5.270  15.646  0.0298  0.3877  0.7400
 1586TIP3    H126249   6.491   5.252  15.617  0.8550 -0.1373 -1.7504
 1586TIP3    H226250   6.592   5.364  15.631  0.0989  0.3292  0.4206
 1587TIP3   OH226251   0.864   2.118  17.033 -0.6468  0.3989  0.0010
 1587TIP3    H126252   0.945   2.108  17.082 -1.5475 -0.6093  1.3788
 1587TIP3    H226253   0.873   2.201  16.987  1.2231  0.2074 -0.0274
 1588TIP3   OH226254   6.073   5.094   1.073  0.1110  0.4146 -0.4876
 1588TIP3    H126255   6.065   5.045   1.155 -3.5976  0.3770 -0.7095
 1588TIP3    H226256   6.118   5.174   1.097 -0.3941  0.1537  1.4881
 1589TIP3   OH226257   5.124   0.882  11.137 -0.0502 -0.3584  0.7219
 1589TIP3    H126258   5.043   0.885  11.086  0.1728  0.6947  0.3934
 1589TIP3    H226259   5.176   0.813  11.095 -0.2168 -0.0848  0.0564
 1590TIP3   OH226260   2.017   1.831   3.555 -0.4100  0.3581 -0.3085
 1590TIP3    H126261   1.970   1.892   3.612 -0.4099  0.0283  0.0479
 1590TIP3    H226262   1.949   1.773   3.521 -0.5304  1.0409 -1.2823
 1591TIP3   OH226263   6.550   2.279   3.494  0.0496 -0.0061  0.4169
 1591TIP3    H126264   6.605   2.204   3.513  1.3927  1.0232  0.7820
 1591TIP3    H226265   6.510   2.259   3.410  0.7424 -0.9397  0.2972
 1592TIP3   OH226266   3.111   0.030   3.010  0.7454 -0.5860  0.1430
 1592TIP3    H126267   3.143  -0.030   2.942 -1.5743 -0.5132 -1.1324
 1592TIP3    H226268   3.033   0.070   2.971  0.8304  1.4634  1.8857
 1593TIP3   OH226269   0.014   3.810   2.536  0.1717 -0.2790 -0.0144
 1593TIP3    H126270  -0.003   3.850   2.450  0.7348  0.0261  0.0108
 1593TIP3    H226271  -0.058   3.747   2.548 -1.1456  1.2208  0.2739
 1594TIP3   OH226272   0.579   0.542   3.588 -0.4877  0.2570  0.2290
 1594TIP3    H126273   0.542   0.459   3.560 -0.4000 -0.0818  1.0801
 1594TIP3    H226274   0.644   0.563   3.521  0.3968 -1.0124  0.6502
 1595TIP3   OH226275   4.794   0.328   3.932  0.2710  0.2473  0.5896
 1595TIP3    H126276   4.799   0.382   3.854 -2.5126  0.2403  0.3067
 1595TIP3    H226277   4.801   0.238   3.899 -1.6350  0.2034  0.1582
 1596TIP3   OH226278   6.558   1.901   0.842 -0.2337  0.0932  0.1191
 1596TIP3    H126279   6.537   1.974   0.784 -0.0179 -0.2374 -0.3728
 1596TIP3    H226280   6.519   1.825   0.800  1.7729 -0.5184 -0.7374
 1597TIP3   OH226281   2.611   1.374  16.100  0.4728 -0.9177  0.4002
 1597TIP3    H126282   2.530   1.331  16.073  0.4448 -1.0240  0.6434
 1597TIP3    H226283   2.676   1.303  16.102  0.7009 -0.7314 -0.3239
 1598TIP3   OH226284   5.031   3.038   2.841 -0.6048 -0.0161 -0.6714
 1598TIP3    H126285   5.069   3.030   2.753  1.2028  2.0593 -0.1678
 1598TIP3    H226286   5.092   2.989   2.897 -0.3845  0.7077 -0.2674
 1599TIP3   OH226287   3.274   6.556  13.004 -0.4133  0.1896 -0.1061
 1599TIP3    H126288   3.261   6.476  12.952  1.0582 -0.1188 -0.0274
 1599TIP3    H226289   3.318   6.617  12.944 -2.3257  1.3113 -0.4584
 1600TIP3   OH226290   5.500   0.088  11.142 -0.3660  0.1953 -0.3860
 1600TIP3    H126291   5.442   0.014  11.125 -1.4382  0.3091  2.3229
 1600TIP3    H226292   5.446   0.165  11.125 -0.3905  0.3204  0.2625
 1601TIP3   OH226293   2.615   4.713  16.972  0.7727 -0.1821 -0.2659
 1601TIP3    H126294   2.587   4.697  16.882  2.3825 -0.0775 -0.8211
 1601TIP3    H226295   2.704   4.678  16.976  1.2403  1.0542  0.8976
 1602TIP3   OH226296   6.047   5.730   5.608  0.1806 -0.3135 -0.2018
 1602TIP3    H126297   6.138   5.744   5.635 -0.0177  1.1065 -0.2206
 1602TIP3    H226298   5.995   5.770   5.677 -0.5307 -2.7774  0.8026
 1603TIP3   OH226299   4.968   5.314  15.802  0.2447 -0.5624 -0.2796
 1603TIP3    H126300   5.026   5.366  15.857 -0.7944 -1.2826  1.5980
 1603TIP3    H226301   4.881   5.324  15.841 -0.2942 -2.2577 -0.9172
 1604TIP3   OH226302   1.684   2.853   3.904 -0.2966  0.8332  0.0784
 1604TIP3    H126303   1.757   2.850   3.842  0.0560 -1.3833  0.5089
 1604TIP3    H226304   1.662   2.946   3.911  0.7905  1.3080 -2.0104
 1605TIP3   OH226305   1.176   5.246  12.836  0.0583  0.7136  0.8350
 1605TIP3    H126306   1.136   5.332  12.852 -1.9145 -0.2483  1.4270
 1605TIP3    H226307   1.117   5.204  12.773  0.1637 -0.7439  1.6778
 1606TIP3   OH226308   4.483   4.075  11.652 -0.5178 -0.5408  0.1805
 1606TIP3    H126309   4.561   4.025  11.630  0.3233 -0.5911  2.9041
 1606TIP3    H226310   4.437   4.087  11.569  1.4007 -2.1584 -1.1868
 1607TIP3   OH226311   0.459   1.648   2.946 -0.3652  0.4446 -0.1037
 1607TIP3    H126312   0.366   1.632   2.931 -0.1399  0.1500 -1.3723
 1607TIP3    H226313   0.484   1.710   2.877 -0.0469  2.1322  1.4657
 1608TIP3   OH226314   4.156   0.439  10.554  0.4305 -0.4341  0.4957
 1608TIP3    H126315   4.070   0.426  10.595  0.4181 -1.8892  0.0806
 1608TIP3    H226316   4.148   0.521  10.506 -0.8696 -0.7492  0.1471
 1609TIP3   OH226317   5.306   2.380   1.695  0.1345 -0.0427 -0.9005
 1609TIP3    H126318   5.347   2.301   1.730  0.4848  0.7269  0.5335
 1609TIP3    H226319   5.223   2.351   1.658 -1.0432 -0.7561  2.0323
 1610TIP3   OH226320   5.813   3.129  12.461  0.0118  0.1348 -0.0563
 1610TIP3    H126321   5.840   3.135  12.369  1.0907 -1.9552  0.0704
 1610TIP3    H226322   5.758   3.051  12.465  0.6808 -0.3045  1.1961
 1611TIP3   OH226323   4.939   6.506  14.710 -0.1099 -0.1220  0.0534
 1611TIP3    H126324   4.919   6.480  14.800  1.7527  1.4795  0.9987
 1611TIP3    H226325   5.004   6.443  14.680  0.3217  0.1704  0.3609
 1612TIP3   OH226326   3.246   4.814   0.928  0.1847  0.4387 -0.6611
 1612TIP3    H126327   3.274   4.884   0.986  2.2763  1.3329 -2.6284
 1612TIP3    H226328   3.159   4.841   0.897  0.2232  1.2649 -0.0580
 1613TIP3   OH226329   0.242   3.945  16.541  0.2625 -0.2739 -0.3326
 1613TIP3    H126330   0.225   3.899  16.459  1.3735  1.5284 -1.6497
 1613TIP3    H226331   0.333   3.975  16.533  0.3571  0.0259  1.5177
 1614TIP3   OH226332   0.404   6.786   5.311  0.6358  0.2215 -0.4324
 1614TIP3    H126333   0.485   6.801   5.359  0.9599 -0.1738 -0.8461
 1614TIP3    H226334   0.389   6.691   5.319 -1.1336  0.5783  1.7798
 1615TIP3   OH226335   3.015   3.041  14.142 -0.3714 -0.3344  0.1783
 1615TIP3    H126336   3.095   3.025  14.092  0.6291  2.7001  0.6256
 1615TIP3    H226337   3.038   3.017  14.232 -1.0149 -2.3293 -0.1349
 1616TIP3   OH226338   1.498   1.383   0.959 -0.3091  0.0047  0.2816
 1616TIP3    H126339   1.530   1.380   1.049  1.3896 -0.5944 -0.2882
 1616TIP3    H226340   1.577   1.394   0.906 -0.8766 -2.5242 -1.2897
 1617TIP3   OH226341   4.934   0.098  15.774 -0.6844 -0.0950  0.9310
 1617TIP3    H126342   4.867   0.166  15.760 -3.0749 -2.0509  2.0588
 1617TIP3    H226343   4.913   0.062  15.860  0.8234 -1.9358  0.5779
 1618TIP3   OH226344   4.476   4.503   0.691  0.2370  0.1974  0.0688
 1618TIP3    H126345   4.567   4.485   0.668  0.8450 -0.0433  2.4703
 1618TIP3    H226346   4.471   4.598   0.699  0.4173  0.1767  0.4426
 1619TIP3   OH226347   5.454   6.241  13.728  0.5222 -0.3267  0.3551
 1619TIP3    H126348   5.421   6.297  13.798  0.1037  0.6708 -0.6111
 1619TIP3    H226349   5.520   6.186  13.771  2.2858  2.1309  1.0107
 1620TIP3   OH226350   1.780   5.414  12.987 -0.0075  0.5005  0.6037
 1620TIP3    H126351   1.870   5.411  13.019  0.7159 -0.6288 -1.4119
 1620TIP3    H226352   1.748   5.324  12.997 -0.2363  0.4499 -0.4852
 1621TIP3   OH226353   5.944   4.558  16.007 -0.5028 -0.0026  0.5663
 1621TIP3    H126354   6.011   4.596  15.950 -0.1092 -1.9902 -0.3630
 1621TIP3    H226355   5.953   4.605  16.089  2.7833 -0.9027  0.8438
 1622TIP3   OH226356   1.359   1.490  13.268 -0.1083  0.2251 -0.1757
 1622TIP3    H126357   1.303   1.448  13.333 -0.8145  0.9515 -0.2987
 1622TIP3    H226358   1.375   1.578  13.303 -0.2971  0.5405 -0.8676
 1623TIP3   OH226359   2.796   5.978  14.148 -0.4788  0.1720  0.5272
 1623TIP3    H126360   2.744   5.900  14.127  0.0709  0.1817 -0.9530
 1623TIP3    H226361   2.874   5.970  14.094 -0.8721  2.2557 -0.4362
 1624TIP3   OH226362   5.364   3.182   4.727  0.3474  0.4381 -0.3673
 1624TIP3    H126363   5.395   3.092   4.715 -1.2582 -0.0563 -1.0068
 1624TIP3    H226364   5.322   3.204   4.644  1.1554  1.9887 -0.3956
 1625TIP3   OH226365   5.140   5.724  11.058 -0.1585  0.0362  0.4611
 1625TIP3    H126366   5.154   5.756  10.969  0.0322 -0.0020  0.4757
 1625TIP3    H226367   5.045   5.726  11.070 -0.3629 -1.7765 -0.4371
 1626TIP3   OH226368   0.804   0.202  11.330  0.2587  0.2018  0.2179
 1626TIP3    H126369   0.831   0.201  11.421 -0.6149 -0.6871  0.4868
 1626TIP3    H226370   0.763   0.116  11.316  0.9405  0.0729 -1.1824
 1627TIP3   OH226371   1.855   1.531  13.218 -0.5253  0.3599 -0.0042
 1627TIP3    H126372   1.875   1.527  13.124 -0.7158  1.7665 -0.1233
 1627TIP3    H226373   1.778   1.475  13.229  0.3399 -0.9578 -0.4267
 1628TIP3   OH226374   6.691   1.775   1.086 -0.6618 -0.4497 -0.0511
 1628TIP3    H126375   6.601   1.743   1.094 -1.1050  1.0217  1.2840
 1628TIP3    H226376   6.745   1.696   1.088 -1.7843 -1.2330  1.7773
 1629TIP3   OH226377   0.412   4.089   3.403 -0.4344  0.4308 -0.1060
 1629TIP3    H126378   0.370   4.122   3.483  2.0824 -0.9011  1.9176
 1629TIP3    H226379   0.450   4.167   3.363 -1.3964  1.0645  0.1755
 1630TIP3   OH226380   2.668   3.711  13.754 -0.3167 -0.7702 -0.1872
 1630TIP3    H126381   2.742   3.650  13.760  0.8324  0.4808 -0.8958
 1630TIP3    H226382   2.591   3.656  13.747  0.6707 -2.1384 -0.6507
 1631TIP3   OH226383   5.775   2.639   3.256 -0.0978  0.1763 -0.9758
 1631TIP3    H126384   5.857   2.629   3.304 -1.1596 -0.4460  0.7906
 1631TIP3    H226385   5.743   2.725   3.283 -1.6156 -0.9321  1.0204
 1632TIP3   OH226386   6.359   2.245   0.228 -0.9915 -0.0776  0.2973
 1632TIP3    H126387   6.390   2.260   0.139 -0.4112  1.8523  0.7931
 1632TIP3    H226388   6.344   2.332   0.264 -3.1339 -0.8396  1.4527
 1633TIP3   OH226389   3.575   5.047   3.199  0.2232  1.1951 -0.3459
 1633TIP3    H126390   3.583   5.113   3.131  0.7140  2.5328  0.9565
 1633TIP3    H226391   3.651   4.990   3.186 -1.4544 -0.6923 -2.9851
 1634TIP3   OH226392   3.260   4.291  16.786  0.6049  0.1247  0.6921
 1634TIP3    H126393   3.262   4.205  16.829 -1.7763 -0.6780 -0.5988
 1634TIP3    H226394   3.318   4.282  16.711  0.3115 -0.4135  0.5232
 1635TIP3   OH226395   2.853   4.982  16.497 -0.0077  0.0693 -0.0877
 1635TIP3    H126396   2.846   4.892  16.465  0.6929  0.4026 -1.2595
 1635TIP3    H226397   2.944   5.006  16.482 -0.2400  1.0588 -0.0159
 1636TIP3   OH226398   0.216   0.859  13.119  0.2566  0.1648  0.3783
 1636TIP3    H126399   0.251   0.780  13.078  0.0061 -0.1092  0.6807
 1636TIP3    H226400   0.275   0.876  13.192  1.4013  1.3398 -0.7797
 1637TIP3   OH226401   6.461   3.209   0.069 -0.4411 -0.2700 -0.6244
 1637TIP3    H126402   6.499   3.256  -0.006  2.1141 -0.5987  0.3475
 1637TIP3    H226403   6.413   3.277   0.117  2.4635  1.3456  0.2928
 1638TIP3   OH226404   0.019   5.861  11.599 -0.2995 -0.2054 -0.3087
 1638TIP3    H126405  -0.021   5.865  11.512  1.3785  0.3639 -1.1064
 1638TIP3    H226406   0.023   5.952  11.627  0.2131 -0.2701 -0.1569
 1639TIP3   OH226407   0.168   5.757  11.152 -0.3713  0.2905  0.4948
 1639TIP3    H126408   0.107   5.685  11.134  0.3904 -0.4540  0.8037
 1639TIP3    H226409   0.118   5.836  11.134 -0.6274 -0.3303 -1.8437
 1640TIP3   OH226410   6.076   2.210   1.184  0.2541 -0.1463  0.0187
 1640TIP3    H126411   6.038   2.158   1.255 -1.3982 -0.2101 -0.8530
 1640TIP3    H226412   6.001   2.243   1.135  1.2448 -1.9084 -3.0000
 1641TIP3   OH226413   1.145   6.769  13.927 -0.1949  0.2636  0.0398
 1641TIP3    H126414   1.084   6.713  13.879 -0.7031 -0.3565  1.3725
 1641TIP3    H226415   1.168   6.718  14.004  4.0840 -0.6947 -1.5892
 1642TIP3   OH226416   5.040   0.388  12.540 -0.4744  0.3508 -0.2885
 1642TIP3    H126417   5.091   0.378  12.460 -0.3279  1.0379 -0.2874
 1642TIP3    H226418   5.105   0.397  12.610 -0.5734 -2.0586  0.1846
 1643TIP3   OH226419   5.744   2.895   3.385 -0.9939  0.5850 -0.4495
 1643TIP3    H126420   5.764   2.850   3.467  1.7349  0.6335 -0.9923
 1643TIP3    H226421   5.788   2.980   3.393 -1.1683  0.8111 -1.7175
 1644TIP3   OH226422   1.102   0.506   2.612 -0.1994 -0.2143 -0.3718
 1644TIP3    H126423   1.134   0.576   2.555 -0.1226 -0.0094 -0.0776
 1644TIP3    H226424   1.018   0.538   2.645 -0.6787 -0.7157 -1.0758
 1645TIP3   OH226425   1.176   0.387  14.328 -0.2717 -0.4448 -0.0127
 1645TIP3    H126426   1.206   0.316  14.385  0.6602 -0.1039 -0.0655
 1645TIP3    H226427   1.224   0.463  14.357  0.0374 -0.2111 -1.1028
 1646TIP3   OH226428   2.725   4.422  10.603  0.5433 -0.3776  0.3001
 1646TIP3    H126429   2.714   4.347  10.662  0.9411 -0.8112 -0.1636
 1646TIP3    H226430   2.650   4.478  10.620 -0.2509 -1.3381 -0.0002
 1647TIP3   OH226431   0.604   2.275  15.666 -0.4040  0.3436  0.2700
 1647TIP3    H126432   0.565   2.193  15.697 -0.8619  0.8721  1.1173
 1647TIP3    H226433   0.615   2.328  15.745  1.3679  0.5024 -0.0332
 1648TIP3   OH226434   3.088   0.263  16.246  0.2340  0.1399  0.0653
 1648TIP3    H126435   3.077   0.354  16.219  0.1149  0.5444  1.3867
 1648TIP3    H226436   3.043   0.212  16.179  1.1718  0.9685 -1.2508
 1649TIP3   OH226437   5.847   6.434  12.112 -0.2803 -0.2432  0.1431
 1649TIP3    H126438   5.910   6.441  12.039 -1.6126  2.0971 -0.9001
 1649TIP3    H226439   5.897   6.392  12.182  2.0014  0.2020 -1.1039
 1650TIP3   OH226440   5.900   1.757   3.588  0.4188 -0.1912  0.5815
 1650TIP3    H126441   5.846   1.785   3.514 -0.2192  0.0020  1.1047
 1650TIP3    H226442   5.858   1.678   3.620  0.6510 -0.2359  0.7799
 1651TIP3   OH226443   3.656   4.538   1.446  0.1812 -0.6735 -0.0468
 1651TIP3    H126444   3.620   4.450   1.450 -1.5012 -0.0290 -0.1460
 1651TIP3    H226445   3.652   4.561   1.353 -0.3227 -0.1536  0.0941
 1652TIP3   OH226446   2.829   0.880   5.193 -0.1078  0.2011  0.0092
 1652TIP3    H126447   2.904   0.936   5.212  0.6388 -0.9703  0.6677
 1652TIP3    H226448   2.822   0.880   5.098 -1.0959  2.6014  0.0193
 1653TIP3   OH226449   4.612   4.627  11.979  0.0667 -0.1930  0.4362
 1653TIP3    H126450   4.544   4.694  11.977  0.7730  0.5742  1.4143
 1653TIP3    H226451   4.656   4.635  11.895 -0.3192  0.0686  0.2549
 1654TIP3   OH226452   6.089   1.271  12.835  0.3246  0.3169 -0.4844
 1654TIP3    H126453   6.028   1.233  12.771 -3.2334  1.4556  1.9039
 1654TIP3    H226454   6.094   1.363  12.811  1.9535  0.0709 -1.1948
 1655TIP3   OH226455   1.650   1.880  12.278 -0.0711 -0.0349  0.3796
 1655TIP3    H126456   1.609   1.842  12.356  0.2850  0.2055  0.6894
 1655TIP3    H226457   1.680   1.966  12.307 -1.1473  0.6254 -0.4054
 1656TIP3   OH226458   4.652   6.832  12.694  0.0628  0.3151 -0.0623
 1656TIP3    H126459   4.651   6.778  12.615 -1.6193 -1.0701  0.8255
 1656TIP3    H226460   4.735   6.879  12.690  1.7966 -2.5740 -0.7592
 1657TIP3   OH226461   5.876   0.738  16.596  0.0399  0.1270 -0.1322
 1657TIP3    H126462   5.948   0.795  16.567  1.7022 -1.9007 -0.2323
 1657TIP3    H226463   5.800   0.769  16.546  0.6994  2.5860  0.2346
 1658TIP3   OH226464   3.703   5.178   1.940  0.0677 -0.4985 -0.4116
 1658TIP3    H126465   3.775   5.118   1.960  0.2831  0.4547  2.0638
 1658TIP3    H226466   3.648   5.130   1.879  2.3983 -1.5506 -1.8461
 1659TIP3   OH226467   1.058   2.109   3.548 -0.0644  0.4580 -0.3151
 1659TIP3    H126468   1.020   2.173   3.608 -2.4887  0.6545 -1.9490
 1659TIP3    H226469   1.074   2.158   3.468  1.9000 -0.1107 -0.3286
 1660TIP3   OH226470   5.783   3.025   0.080  0.3664 -0.3205 -0.6919
 1660TIP3    H126471   5.746   3.044   0.166  1.3329  1.0310 -0.5490
 1660TIP3    H226472   5.741   3.088   0.021  2.2559  1.1722 -0.5482
 1661TIP3   OH226473   6.769   1.795   2.936 -0.8314 -0.2748 -0.2391
 1661TIP3    H126474   6.863   1.813   2.932 -0.6122 -1.3952 -0.4905
 1661TIP3    H226475   6.729   1.882   2.942  0.2597  0.1723  1.0518
 1662TIP3   OH226476   6.826   4.788   1.505 -0.8931 -0.0589 -0.2870
 1662TIP3    H126477   6.754   4.812   1.446 -0.6729  1.3616 -0.0148
 1662TIP3    H226478   6.782   4.748   1.581 -1.8487  3.7719  1.4450
 1663TIP3   OH226479   1.770   4.762  11.297  0.0046 -0.2286 -0.1578
 1663TIP3    H126480   1.711   4.790  11.227 -1.5802  0.6376  1.4476
 1663TIP3    H226481   1.712   4.744  11.371  1.6170 -1.2788  0.9052
 1664TIP3   OH226482   0.583   1.520   4.695 -0.4904  0.3153 -0.0197
 1664TIP3    H126483   0.542   1.601   4.727 -0.3891  0.3815 -0.0559
 1664TIP3    H226484   0.547   1.509   4.607 -0.7475  0.1477  0.1074
 1665TIP3   OH226485   3.109   5.105   0.777 -0.1488  0.2905  0.2019
 1665TIP3    H126486   3.185   5.060   0.740  1.2205  0.3648  2.7286
 1665TIP3    H226487   3.082   5.166   0.708  1.6486 -0.2318 -1.0431
 1666TIP3   OH226488   2.231   1.046   5.680  0.3601 -0.4446 -0.2654
 1666TIP3    H126489   2.198   0.974   5.626  1.8872 -0.7207 -0.8864
 1666TIP3    H226490   2.156   1.071   5.734 -0.4861 -1.8506 -0.7154
 1667TIP3   OH226491   4.288   2.951   3.384 -0.5836 -0.6387  0.2012
 1667TIP3    H126492   4.256   2.906   3.305 -0.5299 -0.8733  0.3144
 1667TIP3    H226493   4.376   2.979   3.361 -1.7576  2.5147 -1.1803
 1668TIP3   OH226494   4.578   0.844  14.499  0.3409 -0.0404 -0.7398
 1668TIP3    H126495   4.583   0.790  14.420 -0.8845 -0.3357 -0.6245
 1668TIP3    H226496   4.491   0.884  14.497  0.5987  0.6133  0.0430
 1669TIP3   OH226497   6.600   1.858  13.262 -0.2276  0.8445 -0.5867
 1669TIP3    H126498   6.556   1.828  13.341 -0.5979  1.4507 -0.5566
 1669TIP3    H226499   6.544   1.828  13.190 -0.9485  1.9978 -0.5314
 1670TIP3   OH226500   3.571   1.198  15.249  0.4148  0.6008  0.5668
 1670TIP3    H126501   3.580   1.113  15.205  1.0323  0.0455  1.7312
 1670TIP3    H226502   3.539   1.257  15.180  2.0217 -0.0662 -0.8402
 1671TIP3   OH226503   4.248   0.872  12.987 -0.1343  0.1615 -0.0596
 1671TIP3    H126504   4.226   0.792  12.938 -0.1468  0.9924 -1.4801
 1671TIP3    H226505   4.327   0.905  12.943  0.0272  0.7851  0.6837
 1672TIP3   OH226506   3.891   5.434  11.631  0.0010 -0.9900  0.2187
 1672TIP3    H126507   3.932   5.518  11.651 -1.1768 -0.8637  2.3627
 1672TIP3    H226508   3.913   5.377  11.705 -0.7148 -2.0178 -0.3246
 1673TIP3   OH226509   6.019   0.349   1.782 -0.4774  0.3360 -0.4203
 1673TIP3    H126510   6.012   0.435   1.823 -0.5313  0.6741 -1.1122
 1673TIP3    H226511   5.951   0.296   1.825 -0.0075  0.4460  0.4587
 1674TIP3   OH226512   5.212   6.329   2.636  0.1241  0.4366 -0.4127
 1674TIP3    H126513   5.226   6.285   2.552  0.8467  0.9367 -0.5633
 1674TIP3    H226514   5.117   6.330   2.647  0.0072  0.6016 -1.3522
 1675TIP3   OH226515   0.343   4.765   2.750 -0.6477 -0.4298 -0.6017
 1675TIP3    H126516   0.287   4.714   2.693 -1.3147  2.7529 -3.1098
 1675TIP3    H226517   0.341   4.853   2.713  0.6470  1.4185  3.1466
 1676TIP3   OH226518   1.628   4.566  13.003 -0.1756  0.0538  0.2395
 1676TIP3    H126519   1.587   4.643  12.964  0.1301  1.2161  2.0915
 1676TIP3    H226520   1.608   4.495  12.943 -2.6547  1.0849 -0.2547
 1677TIP3   OH226521   1.797   3.808  12.102  0.2960  0.5629  0.2874
 1677TIP3    H126522   1.816   3.875  12.036  3.5396 -0.2851  0.1673
 1677TIP3    H226523   1.783   3.728  12.053 -2.4832  0.8344  0.4915
 1678TIP3   OH226524   2.664   5.004   3.037  0.8247 -0.6396  0.4135
 1678TIP3    H126525   2.625   4.941   3.097 -1.9035 -1.8926 -2.3949
 1678TIP3    H226526   2.739   4.959   2.998 -0.4487 -1.8304 -0.7559
 1679TIP3   OH226527   6.415   2.652   2.384 -0.2386  0.5955 -0.2236
 1679TIP3    H126528   6.435   2.739   2.418 -0.5325  0.4372  0.3571
 1679TIP3    H226529   6.344   2.620   2.439  2.2357 -1.5001  2.0786
 1680TIP3   OH226530   5.770   0.748  16.231 -0.3711 -0.3518 -0.8393
 1680TIP3    H126531   5.787   0.781  16.143  1.9072 -0.4850 -0.4925
 1680TIP3    H226532   5.826   0.671  16.240 -0.4816 -0.2829  0.7717
 1681TIP3   OH226533   4.591   1.645  14.852  0.6704 -0.1829 -0.1781
 1681TIP3    H126534   4.525   1.626  14.918  2.0750 -3.2992  0.5103
 1681TIP3    H226535   4.617   1.736  14.869 -2.0414  0.5166  0.6820
 1682TIP3   OH226536   5.369   3.114  11.013 -0.1764  0.3011  0.1605
 1682TIP3    H126537   5.320   3.094  11.093 -0.3966  0.8372  0.1617
 1682TIP3    H226538   5.445   3.163  11.043 -0.6436  1.1675 -0.0143
 1683TIP3   OH226539   2.815   6.272   5.215  0.3689  0.4613  0.1760
 1683TIP3    H126540   2.763   6.258   5.294  1.7358 -2.1159  0.7269
 1683TIP3    H226541   2.872   6.345   5.237  0.0356  0.4335  1.2037
 1684TIP3   OH226542   1.055   0.629  13.596 -0.1934  0.0123 -0.1394
 1684TIP3    H126543   0.996   0.636  13.671 -1.3142  0.1879 -1.0116
 1684TIP3    H226544   1.020   0.557  13.544  0.9650 -0.5532 -0.1714
 1685TIP3   OH226545   6.494   0.597   1.605  0.0652 -0.5194  0.3918
 1685TIP3    H126546   6.541   0.515   1.622  1.8243 -0.1478 -2.2514
 1685TIP3    H226547   6.551   0.666   1.639 -0.0794 -0.2382  0.0717
 1686TIP3   OH226548   4.341   2.193  10.840  0.0222 -0.6979  0.6740
 1686TIP3    H126549   4.328   2.107  10.800 -1.0721 -1.0487  1.7335
 1686TIP3    H226550   4.425   2.223  10.805 -0.9790 -0.8421 -2.0964
 1687TIP3   OH226551   0.312   4.155  12.053 -0.2694  0.1547 -0.0361
 1687TIP3    H126552   0.288   4.090  11.987  0.6133 -0.3400  0.1144
 1687TIP3    H226553   0.334   4.233  12.002  1.6614 -0.6067 -0.4610
 1688TIP3   OH226554   1.441   0.984  11.910 -0.4755 -0.1215  0.0282
 1688TIP3    H126555   1.529   0.972  11.876 -0.9526 -1.5959 -0.7876
 1688TIP3    H226556   1.441   0.940  11.995 -0.4072 -0.0859  0.0459
 1689TIP3   OH226557   1.034   4.731  11.971  0.4366  0.4554  0.3872
 1689TIP3    H126558   1.000   4.819  11.986  3.5486  2.1930 -1.6113
 1689TIP3    H226559   0.995   4.704  11.887 -1.7590 -0.9002  1.7327
 1690TIP3   OH226560   1.057   2.459  14.308 -0.3388  0.4844  0.2737
 1690TIP3    H126561   0.989   2.392  14.303  0.8858 -0.7518 -0.7162
 1690TIP3    H226562   1.096   2.460  14.220  0.2023  1.9555  0.4931
 1691TIP3   OH226563   0.579   4.192  15.098  0.9535  0.0380  0.0598
 1691TIP3    H126564   0.523   4.249  15.046  1.8248 -0.3640 -1.3747
 1691TIP3    H226565   0.658   4.180  15.045 -0.1823 -4.5887 -1.0070
 1692TIP3   OH226566   0.590   3.950  14.721  0.7310  0.5495  0.2518
 1692TIP3    H126567   0.515   3.989  14.765  0.1731  0.6429 -0.7692
 1692TIP3    H226568   0.622   3.884  14.783 -0.8876 -0.2891  0.2323
 1693TIP3   OH226569   3.785   4.176  13.156 -0.0095 -0.5641  0.4064
 1693TIP3    H126570   3.792   4.180  13.061  0.5063 -0.8482  0.4295
 1693TIP3    H226571   3.693   4.154  13.172 -0.9360  2.5741  0.0935
 1694TIP3   OH226572   6.445   6.034   5.428  0.4174  0.1356  0.2449
 1694TIP3    H126573   6.438   6.041   5.523  0.9839  0.7008  0.2520
 1694TIP3    H226574   6.495   5.953   5.413  0.1515 -0.0617  0.4175
 1695TIP3   OH226575   0.562   1.378  11.659  0.1088 -0.2977 -0.5722
 1695TIP3    H126576   0.594   1.373  11.749  2.5743  0.9316 -1.2998
 1695TIP3    H226577   0.468   1.362  11.667  0.1551  0.2174  2.2630
 1696TIP3   OH226578   6.097   2.961  14.678  0.8656 -0.1245 -0.2401
 1696TIP3    H126579   6.036   2.957  14.604  0.1107  1.1097  0.2897
 1696TIP3    H226580   6.082   2.879  14.725  0.5770 -0.4315 -0.8460
 1697TIP3   OH226581   6.415   0.862  11.594 -0.4424  0.0715  0.1727
 1697TIP3    H126582   6.427   0.855  11.500 -0.7502  2.2409 -0.0803
 1697TIP3    H226583   6.352   0.793  11.616 -0.5635 -0.2895 -1.2564
 1698TIP3   OH226584   5.158   2.866   4.294  0.3654 -0.0519  0.3639
 1698TIP3    H126585   5.131   2.789   4.243  1.6412 -1.1692  1.2952
 1698TIP3    H226586   5.125   2.940   4.244 -0.4360 -1.1851 -0.8637
 1699TIP3   OH226587   4.909   3.769   0.338 -0.2787  0.0438 -0.8884
 1699TIP3    H126588   4.865   3.797   0.418  0.1800 -0.6825 -0.3723
 1699TIP3    H226589   4.890   3.839   0.275 -0.5792  0.6648 -0.1334
 1700TIP3   OH226590   4.176   1.127  12.234 -0.6219 -0.7847 -0.5233
 1700TIP3    H126591   4.222   1.077  12.167 -1.5765 -1.4198 -0.7198
 1700TIP3    H226592   4.088   1.142  12.198 -1.1727 -1.1765  0.5973
 1701TIP3   OH226593   5.447   2.790   6.188 -0.3018 -0.1670 -0.3249
 1701TIP3    H126594   5.372   2.735   6.209 -0.0630 -0.3420  0.0838
 1701TIP3    H226595   5.524   2.735   6.207 -0.0491  0.4826  0.6553
 1702TIP3   OH226596   2.468   4.436   5.736  0.6203 -0.0159  0.0076
 1702TIP3    H126597   2.515   4.461   5.816  0.8094 -1.0032  0.2297
 1702TIP3    H226598   2.455   4.341   5.745  2.1958 -0.4858 -1.9310
 1703TIP3   OH226599   5.481   3.237   1.305  0.1206 -0.5634 -0.4656
 1703TIP3    H126600   5.389   3.261   1.296 -0.1210 -1.1117  0.4144
 1703TIP3    H226601   5.520   3.312   1.350 -0.2901 -1.0722  0.7897
 1704TIP3   OH226602   1.381   4.980  14.627 -0.1374 -0.4991  0.1876
 1704TIP3    H126603   1.292   4.956  14.600 -0.7406  0.5678  1.1431
 1704TIP3    H226604   1.376   5.074  14.647  1.2655 -0.3684  0.0496
 1705TIP3   OH226605   0.764   0.018   2.232  0.0831  0.2883 -0.1803
 1705TIP3    H126606   0.686   0.073   2.222 -0.5464 -0.7232 -1.0417
 1705TIP3    H226607   0.828   0.056   2.172  0.6275  1.6892  1.2049
 1706TIP3   OH226608   2.544   0.850  12.442 -0.5101  0.0547  0.0763
 1706TIP3    H126609   2.468   0.880  12.491 -0.2117 -0.1103  0.6491
 1706TIP3    H226610   2.615   0.848  12.506  0.2887  1.3764 -0.7210
 1707TIP3   OH226611   3.241   3.011  12.463  0.1474  0.1301 -0.1676
 1707TIP3    H126612   3.234   2.927  12.417  0.3391 -0.8273  1.4361
 1707TIP3    H226613   3.160   3.056  12.443 -0.1901 -0.6656 -0.6641
 1708TIP3   OH226614   0.368   1.710   5.568 -0.6697  0.6454 -0.2620
 1708TIP3    H126615   0.288   1.659   5.580 -1.7845  2.1715 -0.8511
 1708TIP3    H226616   0.378   1.759   5.650 -0.4877  0.6530 -0.2884
 1709TIP3   OH226617   3.643   5.632   4.354  0.0938 -0.0351  0.2345
 1709TIP3    H126618   3.652   5.727   4.346 -0.9024  0.1886  1.5388
 1709TIP3    H226619   3.720   5.605   4.404  0.6488 -0.0004 -0.5828
 1710TIP3   OH226620   4.761   3.274  14.750  0.3469  0.2240 -0.2824
 1710TIP3    H126621   4.800   3.191  14.724  2.0757 -0.0596  2.8375
 1710TIP3    H226622   4.705   3.253  14.824 -1.6121  1.4768 -1.3110
 1711TIP3   OH226623   4.965   4.472  12.829  0.6340 -0.1620 -0.1538
 1711TIP3    H126624   4.932   4.456  12.917  0.2463  1.5470  0.0434
 1711TIP3    H226625   5.021   4.549  12.838  1.4900 -0.6370 -1.2096
 1712TIP3   OH226626   0.430   1.705  11.626 -0.0429 -0.2835 -0.3217
 1712TIP3    H126627   0.427   1.721  11.721 -0.1439 -1.0490 -0.1853
 1712TIP3    H226628   0.428   1.792  11.587 -3.2183  0.0125  0.2849
 1713TIP3   OH226629   5.342   6.457  17.117  0.0749 -0.0758  0.4934
 1713TIP3    H126630   5.250   6.479  17.133  0.3161 -0.1842  2.2382
 1713TIP3    H226631   5.381   6.537  17.082 -0.0863  0.8805  2.3830
 1714TIP3   OH226632   0.695   4.209   0.722 -0.1616 -0.1272 -0.0544
 1714TIP3    H126633   0.754   4.140   0.691  1.1259  0.0166  1.9281
 1714TIP3    H226634   0.641   4.166   0.789 -1.9270 -0.0859 -1.3853
 1715TIP3   OH226635   3.999   2.316   4.253  0.4166 -0.4874 -0.3158
 1715TIP3    H126636   4.012   2.340   4.161 -2.2515 -0.6084 -0.8240
 1715TIP3    H226637   3.911   2.349   4.274  0.9769 -0.4051  2.2281
 1716TIP3   OH226638   6.793   5.562  11.158  0.3132  0.5788  0.2366
 1716TIP3    H126639   6.825   5.496  11.097 -1.9655  0.7309 -1.2544
 1716TIP3    H226640   6.731   5.516  11.214 -0.3899  1.1684 -0.0302
 1717TIP3   OH226641   6.298   4.989  10.777 -0.4267 -0.0615 -0.8115
 1717TIP3    H126642   6.331   4.899  10.773  1.5590  0.5826 -0.2576
 1717TIP3    H226643   6.350   5.037  10.712 -0.1265  1.0437  0.1983
 1718TIP3   OH226644   3.372   4.389   0.725 -0.0261 -0.3796 -0.6418
 1718TIP3    H126645   3.302   4.438   0.681 -0.5897 -0.1401  0.4895
 1718TIP3    H226646   3.327   4.314   0.766  0.4250 -0.4027 -0.1799
 1719TIP3   OH226647   0.504   0.398  15.173 -0.3530  0.0716 -0.0547
 1719TIP3    H126648   0.558   0.369  15.246  0.0903  0.2489 -0.3070
 1719TIP3    H226649   0.418   0.415  15.211 -0.0509  0.4296  0.4733
 1720TIP3   OH226650   2.328   4.386   0.555  0.2520 -0.1185 -0.3050
 1720TIP3    H126651   2.380   4.453   0.600  1.0682 -0.7906 -0.2155
 1720TIP3    H226652   2.377   4.305   0.568 -0.9681 -0.8414  0.0203
 1721TIP3   OH226653   3.616   3.682  16.842 -0.1017  0.2027  0.5477
 1721TIP3    H126654   3.702   3.642  16.857 -0.7028 -0.1304  3.7103
 1721TIP3    H226655   3.554   3.610  16.853 -0.8983  0.7945  0.0490
 1722TIP3   OH226656   0.072   0.958   2.324  0.1750 -0.0916  0.0506
 1722TIP3    H126657   0.053   0.892   2.391  1.1642  0.0371  0.4711
 1722TIP3    H226658   0.128   0.912   2.261  0.1408  0.0948 -0.1159
 1723TIP3   OH226659   1.698   0.701  14.893  0.1992  0.0453  0.1567
 1723TIP3    H126660   1.763   0.745  14.948  0.4822 -0.8387  0.5556
 1723TIP3    H226661   1.714   0.734  14.805  1.1190 -0.0667  0.2697
 1724TIP3   OH226662   3.373   3.107  12.975 -0.1381 -0.5311  0.5536
 1724TIP3    H126663   3.444   3.133  12.917 -1.8781 -1.4676 -2.1778
 1724TIP3    H226664   3.338   3.189  13.008 -0.5228  0.2358 -1.6011
 1725TIP3   OH226665   5.873   3.746  10.585 -0.1089 -0.1417 -0.0672
 1725TIP3    H126666   5.811   3.676  10.605  0.3976 -0.7415 -0.5785
 1725TIP3    H226667   5.870   3.755  10.490 -1.0200  1.3285  0.0767
 1726TIP3   OH226668   0.759   0.011   4.334  0.5630 -0.6466  0.1465
 1726TIP3    H126669   0.741   0.098   4.369 -2.1461 -2.0473  2.7825
 1726TIP3    H226670   0.751   0.020   4.239  0.0480  1.8927  0.3736
 1727TIP3   OH226671   4.698   4.036   3.307 -0.7334  0.1105  0.4804
 1727TIP3    H126672   4.775   4.091   3.290 -0.5445  0.3904  2.0209
 1727TIP3    H226673   4.675   4.056   3.398 -3.2185  0.7443 -0.2087
 1728TIP3   OH226674   4.845   3.411  14.318  0.8475 -0.2732 -0.8156
 1728TIP3    H126675   4.834   3.359  14.238  0.0201  0.2882 -1.0879
 1728TIP3    H226676   4.869   3.498  14.286  0.3217  0.0045 -0.4675
 1729TIP3   OH226677   1.332   4.714  12.015 -0.3923 -0.0027  0.1848
 1729TIP3    H126678   1.358   4.622  12.018  0.2540  0.1677 -0.0786
 1729TIP3    H226679   1.250   4.717  12.064 -1.4593 -1.0634 -1.4198
 1730TIP3   OH226680   5.223   3.381   1.878  0.0409 -0.1197  0.6947
 1730TIP3    H126681   5.223   3.463   1.827  1.1520  0.5912  1.7880
 1730TIP3    H226682   5.155   3.393   1.944  0.0788 -0.1520  0.7400
 1731TIP3   OH226683   5.714   1.367  17.040  0.6046  0.1683  0.1828
 1731TIP3    H126684   5.621   1.375  17.023  0.6569  1.6794  0.4630
 1731TIP3    H226685   5.754   1.360  16.953  0.3289  0.7728  0.0082
 1732TIP3   OH226686   2.727   0.129  13.912  0.3864 -0.5262  0.3133
 1732TIP3    H126687   2.762   0.144  14.000 -0.8857 -3.9766  1.6218
 1732TIP3    H226688   2.633   0.145  13.921  0.2116 -1.1487 -0.3250
 1733TIP3   OH226689   1.587   2.259  15.887 -0.8662  0.0872 -0.1010
 1733TIP3    H126690   1.546   2.259  15.973 -2.0273 -1.3236 -0.6043
 1733TIP3    H226691   1.576   2.169  15.856  2.0202 -0.1960 -0.5718
 1734TIP3   OH226692   3.203   2.047   5.035  0.1797  0.0567 -0.0813
 1734TIP3    H126693   3.194   2.110   5.106 -0.1279  1.3309 -1.2046
 1734TIP3    H226694   3.143   2.079   4.967  1.2145 -0.5313 -1.3083
 1735TIP3   OH226695   1.881   2.426   0.222 -0.4297  0.3567  0.3247
 1735TIP3    H126696   1.802   2.467   0.256 -0.0274  1.2469  0.2050
 1735TIP3    H226697   1.952   2.465   0.272  0.1328  1.3243 -1.1649
 1736TIP3   OH226698   4.135   4.599  15.852 -0.2537 -0.3317  0.0357
 1736TIP3    H126699   4.192   4.571  15.781 -0.3958 -0.9901  0.1740
 1736TIP3    H226700   4.190   4.657  15.905  0.5492 -1.5451  0.5883
 1737TIP3   OH226701   4.551   4.143   2.971  0.2264  0.0072  0.1317
 1737TIP3    H126702   4.470   4.190   2.954 -0.0983  0.2416  2.1887
 1737TIP3    H226703   4.618   4.212   2.976  0.0282  0.1123  1.4871
 1738TIP3   OH226704   2.984   3.411   0.547 -0.1491 -0.2360  0.2563
 1738TIP3    H126705   2.957   3.470   0.618  0.3301  1.0471 -0.5829
 1738TIP3    H226706   2.920   3.426   0.478  0.5751  0.1067 -0.3616
 1739TIP3   OH226707   0.148   4.508  17.127  0.1403 -0.3273 -0.3966
 1739TIP3    H126708   0.199   4.431  17.101  0.8664 -0.0967  0.3288
 1739TIP3    H226709   0.061   4.493  17.088  0.4475 -1.2249 -0.7559
 1740TIP3   OH226710   3.319   5.726   5.965  0.5093  0.0142  0.2108
 1740TIP3    H126711   3.226   5.717   5.985  0.7668  0.7340  1.9475
 1740TIP3    H226712   3.362   5.725   6.050  1.9833  0.8303 -0.4782
 1741TIP3   OH226713   5.023   4.185   3.812  0.3468 -0.3285  0.1945
 1741TIP3    H126714   5.108   4.196   3.770 -0.5349  0.6277 -1.4061
 1741TIP3    H226715   4.963   4.237   3.759 -1.1628 -0.6127  1.5664
 1742TIP3   OH226716   1.836   4.559  15.702 -0.3357 -0.1277 -0.1314
 1742TIP3    H126717   1.910   4.590  15.649 -1.5406 -0.6824 -2.2558
 1742TIP3    H226718   1.803   4.483  15.654 -1.8727 -0.3048  1.1426
 1743TIP3   OH226719   5.456   1.902  11.336  0.1200  0.3110  0.2659
 1743TIP3    H126720   5.367   1.899  11.300 -0.1868  2.4889  0.7304
 1743TIP3    H226721   5.500   1.827  11.296 -2.3981 -1.9932  1.4124
 1744TIP3   OH226722   1.150   3.566  13.013 -0.3503 -0.1767  0.2494
 1744TIP3    H126723   1.203   3.538  13.087  0.7320  1.3836  0.1108
 1744TIP3    H226724   1.061   3.541  13.036  0.1891 -1.1285  1.3589
 1745TIP3   OH226725   0.672   0.170   0.443  0.2112  0.2461  0.2563
 1745TIP3    H126726   0.722   0.161   0.362  1.2160 -0.4100  0.9199
 1745TIP3    H226727   0.739   0.174   0.511 -0.5675  2.3140  0.9531
 1746TIP3   OH226728   4.874   2.089  11.771 -0.0898 -0.4870  0.5070
 1746TIP3    H126729   4.819   2.141  11.713  0.8288  1.1373  1.0172
 1746TIP3    H226730   4.854   2.123  11.859  0.5064 -1.0342  0.8617
 1747TIP3   OH226731   3.764   2.769  12.169  0.4117  0.8905  0.2945
 1747TIP3    H126732   3.732   2.855  12.195 -2.8540 -0.0491 -0.2339
 1747TIP3    H226733   3.793   2.728  12.250 -0.6281  1.4945  0.9908
 1748TIP3   OH226734   1.674   6.003  16.547  0.3726 -0.0874  0.6332
 1748TIP3    H126735   1.671   5.912  16.519  0.1883  0.4750 -1.3249
 1748TIP3    H226736   1.753   6.009  16.602  0.9109 -1.2177  0.0075
 1749TIP3   OH226737   0.981   5.008   0.207  0.4201 -0.6732  0.1588
 1749TIP3    H126738   0.910   4.981   0.149 -0.8797  0.3653  1.1856
 1749TIP3    H226739   0.974   5.104   0.209  1.3738 -0.6067  0.8825
 1750TIP3   OH226740   4.948   2.091  14.563  0.2510  0.1343  0.7296
 1750TIP3    H126741   5.003   2.034  14.616 -0.9900 -1.4177  0.4134
 1750TIP3    H226742   4.982   2.082  14.474 -1.3893 -2.0795  0.2429
 1751TIP3   OH226743   0.519   2.260   2.001  0.2196 -0.2850 -0.1963
 1751TIP3    H126744   0.611   2.247   1.978  0.4920  0.8932  0.1935
 1751TIP3    H226745   0.519   2.270   2.096 -0.1825  0.6770 -0.2875
 1752TIP3   OH226746   0.576   0.933  14.529  0.3785  0.1376  0.2355
 1752TIP3    H126747   0.628   0.860  14.496 -0.6048 -0.2859 -0.4394
 1752TIP3    H226748   0.491   0.894  14.551 -0.0503  1.0111  0.1732
 1753TIP3   OH226749   3.526   6.132   4.845  0.2077 -0.0805 -0.3848
 1753TIP3    H126750   3.607   6.084   4.855 -0.4091 -0.9515  0.5379
 1753TIP3    H226751   3.461   6.066   4.822  0.0969  0.8347 -3.2084
 1754TIP3   OH226752   4.906   1.770  15.819 -0.5041 -0.2550  0.3120
 1754TIP3    H126753   4.999   1.765  15.841 -0.1208 -0.2539 -1.1924
 1754TIP3    H226754   4.886   1.685  15.780 -1.3622 -0.5732  1.3995
 1755TIP3   OH226755   3.746   0.170  15.755 -0.3433  0.3263 -0.1574
 1755TIP3    H126756   3.668   0.160  15.810 -0.2613 -0.9506 -0.2348
 1755TIP3    H226757   3.712   0.169  15.665 -0.3450  0.9858 -0.1671
 1756TIP3   OH226758   0.278   4.273   2.196 -0.2871 -0.4938 -0.2366
 1756TIP3    H126759   0.335   4.338   2.156 -0.1773 -0.0120  0.6807
 1756TIP3    H226760   0.314   4.189   2.168 -0.4195 -0.1813 -1.4100
 1757TIP3   OH226761   2.477   2.249   2.501 -0.2215 -0.1122 -0.0149
 1757TIP3    H126762   2.383   2.237   2.488 -0.5688 -0.0028  2.0044
 1757TIP3    H226763   2.503   2.173   2.554  0.9582 -0.4335 -1.0153
 1758TIP3   OH226764   4.468   0.944   0.829 -0.0715 -0.6056  0.0456
 1758TIP3    H126765   4.500   0.857   0.852 -1.0542 -0.3994  2.4159
 1758TIP3    H226766   4.373   0.936   0.828 -0.1641  0.2828 -0.5184
 1759TIP3   OH226767   3.839   6.776   2.243 -0.2297  0.2086  0.4548
 1759TIP3    H126768   3.864   6.804   2.155  1.7403 -2.5262  0.0321
 1759TIP3    H226769   3.806   6.687   2.231  0.5104 -0.3844  2.5142
 1760TIP3   OH226770   3.273   3.207   4.614 -0.0775 -0.0907 -0.0997
 1760TIP3    H126771   3.259   3.161   4.531  1.1907 -0.8648  0.1019
 1760TIP3    H226772   3.246   3.145   4.682 -2.6499  1.1043  0.0810
 1761TIP3   OH226773   2.159   1.401  13.038 -0.1910 -0.3643 -0.0416
 1761TIP3    H126774   2.242   1.410  13.085 -0.6855  0.3552  0.7095
 1761TIP3    H226775   2.138   1.489  13.008 -1.1110 -0.3818  0.5190
 1762TIP3   OH226776   0.397   4.544  10.572  0.5133  0.1692 -0.0038
 1762TIP3    H126777   0.427   4.459  10.604 -1.6882  0.1494  2.3328
 1762TIP3    H226778   0.434   4.551  10.484  0.7296 -3.2257 -0.3151
 1763TIP3   OH226779   4.077   3.636   2.555 -0.1194  0.1079 -0.1288
 1763TIP3    H126780   4.090   3.585   2.475 -1.5298 -0.1294 -0.2390
 1763TIP3    H226781   4.165   3.654   2.587  0.4940  0.6730 -2.0234
 1764TIP3   OH226782   4.214   3.202   6.607 -0.5941  0.9839 -0.1235
 1764TIP3    H126783   4.234   3.293   6.630 -1.3657  1.1799 -0.2031
 1764TIP3    H226784   4.288   3.152   6.641  1.1772  1.9067 -2.3406
 1765TIP3   OH226785   5.752   6.450   4.869 -0.8438 -0.0617  0.0024
 1765TIP3    H126786   5.840   6.457   4.831 -0.0789  1.0571  1.8193
 1765TIP3    H226787   5.710   6.379   4.820  0.5278  0.3716 -1.9118
 1766TIP3   OH226788   4.059   6.736   3.731 -0.3068  0.4503  0.0167
 1766TIP3    H126789   3.969   6.705   3.718 -0.4071  0.7272  0.0555
 1766TIP3    H226790   4.114   6.664   3.698 -0.5169 -0.4441  1.5361
 1767TIP3   OH226791   1.689   1.018   4.160 -0.0766  0.3596 -0.1840
 1767TIP3    H126792   1.747   0.954   4.201 -0.4680  0.1391  0.0260
 1767TIP3    H226793   1.617   0.966   4.125 -0.0043  0.6010 -0.6994
 1768TIP3   OH226794   0.644   0.558  14.029  0.5442 -0.0922  0.6023
 1768TIP3    H126795   0.664   0.557  14.122  0.4575 -1.5026  0.6276
 1768TIP3    H226796   0.670   0.472  13.997 -0.0740  0.1103 -0.5344
 1769TIP3   OH226797   0.350   4.662   5.256 -0.0127 -1.3071 -0.2898
 1769TIP3    H126798   0.268   4.712   5.263  0.4826 -0.3798 -0.8293
 1769TIP3    H226799   0.324   4.571   5.271 -0.4407 -0.6389  4.2288
 1770TIP3   OH226800   4.152   1.329   0.737 -0.3141  0.0373  0.2472
 1770TIP3    H126801   4.188   1.272   0.669  3.8931  4.0853 -1.4642
 1770TIP3    H226802   4.102   1.395   0.689 -0.8365  0.6694  1.6010
 1771TIP3   OH226803   0.165   5.075  11.939 -0.0030 -0.2066 -0.3572
 1771TIP3    H126804   0.140   5.158  11.979  0.1840  0.1507 -0.9616
 1771TIP3    H226805   0.131   5.081  11.849 -0.6480 -1.0985 -0.1906
 1772TIP3   OH226806   4.632   2.212  15.227 -0.0440  0.4201 -0.0854
 1772TIP3    H126807   4.708   2.155  15.212  0.2828  0.8441 -0.0451
 1772TIP3    H226808   4.652   2.293  15.181 -0.1103  0.8313  0.5847
 1773TIP3   OH226809   0.444   2.809   1.261  0.2848 -0.1272  0.4504
 1773TIP3    H126810   0.352   2.785   1.250 -0.1754  1.7243 -0.1500
 1773TIP3    H226811   0.479   2.745   1.323 -1.3145 -1.0731  0.4183
 1774TIP3   OH226812   2.203   4.849  11.531  0.8108 -0.2256 -0.6216
 1774TIP3    H126813   2.127   4.876  11.479 -1.9807 -0.6147  2.8535
 1774TIP3    H226814   2.242   4.931  11.560 -1.0908  0.1332  1.1473
 1775TIP3   OH226815   3.954   5.336   0.157 -0.3572 -0.7428 -0.1780
 1775TIP3    H126816   3.895   5.332   0.082 -1.6740  1.7908  0.6054
 1775TIP3    H226817   4.019   5.402   0.133 -0.4415 -0.3404  0.6398
 1776TIP3   OH226818   6.333   5.618   5.112 -0.0179 -0.3297  0.0124
 1776TIP3    H126819   6.265   5.654   5.169  0.4010  2.1082 -0.9335
 1776TIP3    H226820   6.383   5.560   5.169 -0.6183  0.7516  1.7076
 1777TIP3   OH226821   1.333   1.652  15.588 -1.1118  0.3402 -0.2685
 1777TIP3    H126822   1.326   1.557  15.600  1.6839  0.1884  1.0345
 1777TIP3    H226823   1.328   1.688  15.676 -0.8515  1.2823 -0.6209
 1778TIP3   OH226824   4.423   3.444   2.678 -0.7149 -0.1120  0.1190
 1778TIP3    H126825   4.330   3.428   2.666 -0.6603 -0.7109  0.4678
 1778TIP3    H226826   4.464   3.409   2.599 -0.7191 -0.5206  0.2956
 1779TIP3   OH226827   2.547   3.224   5.675  0.1443  0.4413  0.2086
 1779TIP3    H126828   2.590   3.141   5.655 -1.7081 -1.0074  1.8282
 1779TIP3    H226829   2.607   3.268   5.735 -0.5779 -1.6246  2.6055
 1780TIP3   OH226830   2.277   1.365  11.420  0.2089 -0.1383  0.1031
 1780TIP3    H126831   2.351   1.305  11.432  0.5157  0.1411 -0.3281
 1780TIP3    H226832   2.237   1.337  11.338  0.4279  0.3154 -0.1644
 1781TIP3   OH226833   3.961   3.288   5.113  0.2392 -0.5894  0.2017
 1781TIP3    H126834   4.006   3.251   5.189 -1.2564 -2.1705  0.3766
 1781TIP3    H226835   3.893   3.224   5.092 -1.1726  1.1363 -0.7530
 1782TIP3   OH226836   2.029   2.277  11.425 -0.2715  0.0431 -0.1652
 1782TIP3    H126837   2.085   2.344  11.385 -2.9852  1.9596 -1.0434
 1782TIP3    H226838   2.008   2.313  11.512  0.9534 -1.3600  0.7531
 1783TIP3   OH226839   0.984   6.551  15.821 -0.2842 -0.5663 -0.2624
 1783TIP3    H126840   0.923   6.624  15.813  0.2338  0.0399  0.9823
 1783TIP3    H226841   0.988   6.513  15.734 -1.0241  0.5156 -0.7894
 1784TIP3   OH226842   1.557   0.451   6.148 -0.2980  0.3988 -0.0962
 1784TIP3    H126843   1.606   0.529   6.175 -1.1747  1.0817 -0.4567
 1784TIP3    H226844   1.614   0.378   6.173  0.5994  1.1494  0.1196
 1785TIP3   OH226845   2.026   2.766  12.274 -0.4065  0.2469  0.0948
 1785TIP3    H126846   2.116   2.796  12.285 -0.6296  0.2900  2.2294
 1785TIP3    H226847   2.028   2.711  12.197  1.2092  1.1396 -0.5477
 1786TIP3   OH226848   4.686   3.390   1.551 -0.2545 -0.1854  0.7533
 1786TIP3    H126849   4.743   3.351   1.486 -0.3412  2.0315 -0.7558
 1786TIP3    H226850   4.699   3.337   1.630  1.8294 -1.3463 -0.2995
 1787TIP3   OH226851   2.819   0.043   2.344  0.2384 -0.1804 -0.1369
 1787TIP3    H126852   2.735   0.009   2.373  0.0203  0.2236 -0.2748
 1787TIP3    H226853   2.812   0.138   2.358  0.8819 -0.2029  0.3749
 1788TIP3   OH226854   0.869   3.960  10.549 -0.1896 -0.5095 -0.2535
 1788TIP3    H126855   0.863   3.931  10.640 -4.5804 -0.7774 -0.4128
 1788TIP3    H226856   0.896   3.882  10.500  1.9210 -0.4338  0.7243
 1789TIP3   OH226857   5.953   2.048   5.941 -0.0050 -0.6408  0.3686
 1789TIP3    H126858   6.046   2.025   5.949  0.5360 -1.2845 -4.6197
 1789TIP3    H226859   5.953   2.144   5.931  0.4411 -0.7909 -1.4239
 1790TIP3   OH226860   1.612   5.400   4.174 -0.2352  0.1898 -0.2082
 1790TIP3    H126861   1.595   5.394   4.080 -0.8519 -1.0484 -0.0379
 1790TIP3    H226862   1.554   5.335   4.213  1.6166 -0.9114  0.8403
 1791TIP3   OH226863   5.850   2.380  17.035 -0.2214  0.7060 -0.2831
 1791TIP3    H126864   5.806   2.457  17.069  0.3028  0.5886  0.6945
 1791TIP3    H226865   5.846   2.390  16.940  0.5847  2.3592 -0.1724
 1792TIP3   OH226866   2.556   2.320  14.027  0.3706 -0.0401  0.7820
 1792TIP3    H126867   2.638   2.366  14.008 -0.4433  1.9938  1.7970
 1792TIP3    H226868   2.489   2.371  13.982 -0.3193 -2.1233 -0.6848
 1793TIP3   OH226869   0.030   4.183  12.867 -0.0102  0.0053 -0.3108
 1793TIP3    H126870  -0.018   4.102  12.885  1.3738 -0.7763  0.0401
 1793TIP3    H226871  -0.026   4.253  12.901 -0.7347 -0.8862  0.3794
 1794TIP3   OH226872   1.641   3.981  13.466 -0.4599  0.3357 -0.1987
 1794TIP3    H126873   1.588   3.937  13.399 -0.9771  2.1850 -1.0725
 1794TIP3    H226874   1.591   4.059  13.488  0.5927  0.6804  1.0361
 1795TIP3   OH226875   2.432   2.621  16.134 -0.1574 -0.0698  0.0839
 1795TIP3    H126876   2.448   2.645  16.043 -1.1756 -1.4366 -0.4871
 1795TIP3    H226877   2.455   2.528  16.139 -0.0505  0.0051  1.2416
 1796TIP3   OH226878   4.720   3.016  10.967 -0.2668  0.3272 -0.4408
 1796TIP3    H126879   4.665   2.943  10.939 -0.6479  0.7637 -0.8377
 1796TIP3    H226880   4.787   3.024  10.898  0.1451 -0.0338 -0.0923
 1797TIP3   OH226881   1.515   2.598  14.780 -0.1201  0.3505 -0.1209
 1797TIP3    H126882   1.545   2.557  14.860  1.1441  0.0481 -0.7348
 1797TIP3    H226883   1.483   2.526  14.726  1.5386  0.1914 -0.9550
 1798TIP3   OH226884   4.679   2.468  11.888 -0.0241 -0.9915  0.3483
 1798TIP3    H126885   4.594   2.505  11.910  0.2569 -0.5687  0.7589
 1798TIP3    H226886   4.683   2.386  11.937 -0.1292 -0.9285  0.4633
 1799TIP3   OH226887   1.088   4.452   0.006 -0.0574  0.0344 -0.1398
 1799TIP3    H126888   1.107   4.399  -0.071  0.3053 -1.8762  1.1826
 1799TIP3    H226889   1.157   4.430   0.069 -1.2225  0.2850  1.2988
 1800TIP3   OH226890   6.087   5.065   2.364 -0.3048 -0.1741 -0.1485
 1800TIP3    H126891   6.113   5.146   2.320 -2.3270  0.2508 -0.6800
 1800TIP3    H226892   6.077   5.091   2.456  0.1799 -0.1142 -0.1103
 1801TIP3   OH226893   1.830   0.653   2.242 -0.1722  0.2348  0.0411
 1801TIP3    H126894   1.859   0.729   2.191  0.4935 -1.2864 -1.9714
 1801TIP3    H226895   1.899   0.641   2.308 -1.6687  3.0068  2.3846
 1802TIP3   OH226896   1.100   3.223  13.832  0.1744  0.1756 -0.2256
 1802TIP3    H126897   1.187   3.264  13.831 -0.3067  1.2861 -2.0630
 1802TIP3    H226898   1.087   3.194  13.742 -0.0755 -2.9708  0.7200
 1803TIP3   OH226899   0.628   3.693  14.859 -0.6281  0.4858  0.4429
 1803TIP3    H126900   0.550   3.640  14.878 -0.1594 -0.4704 -0.2145
 1803TIP3    H226901   0.678   3.691  14.940  0.3572 -1.8154 -0.1321
 1804TIP3   OH226902   1.730   6.040  14.511 -0.2728 -0.0869  0.3186
 1804TIP3    H126903   1.683   6.111  14.556 -0.4155  0.0781 -0.0941
 1804TIP3    H226904   1.728   5.967  14.574  0.5987  0.5257  1.0953
 1805TIP3   OH226905   1.805   4.444   1.469  0.3571 -0.5341  0.4587
 1805TIP3    H126906   1.718   4.423   1.502  0.6718 -0.7985  1.1462
 1805TIP3    H226907   1.812   4.397   1.386 -0.9529  1.2218 -0.7036
 1806TIP3   OH226908   1.434   6.237   1.514  0.0809  0.0853  0.1970
 1806TIP3    H126909   1.345   6.273   1.514  1.1012  2.9407 -0.9129
 1806TIP3    H226910   1.458   6.233   1.421  1.3872  0.1941  0.5080
 1807TIP3   OH226911   1.398   2.087  12.878  0.3453 -0.0971 -0.1291
 1807TIP3    H126912   1.328   2.081  12.944  0.8222  0.6137  0.4596
 1807TIP3    H226913   1.425   2.179  12.881  1.1917 -0.3314 -0.4724
 1808TIP3   OH226914   1.464   2.772   2.652  0.3884  0.9785 -0.3457
 1808TIP3    H126915   1.428   2.696   2.695 -0.3933  1.4800 -0.1041
 1808TIP3    H226916   1.416   2.846   2.688  2.4952  1.8247  0.9430
 1809TIP3   OH226917   4.260   0.945  11.629  0.3636 -1.0321  0.2395
 1809TIP3    H126918   4.184   0.964  11.684 -0.6162 -0.1018 -1.3439
 1809TIP3    H226919   4.329   1.002  11.662 -1.3702  2.6695 -1.8870
 1810TIP3   OH226920   6.249   3.398   2.020 -0.2961  0.0442  0.5984
 1810TIP3    H126921   6.203   3.477   1.991 -0.1953  0.2280  0.9329
 1810TIP3    H226922   6.305   3.428   2.092  1.0799  0.0198 -0.4257
 1811TIP3   OH226923   0.161   6.624  13.204 -0.3193 -0.2743  0.4204
 1811TIP3    H126924   0.089   6.678  13.235  0.1403 -0.1170  1.2671
 1811TIP3    H226925   0.240   6.669  13.235  0.1233 -0.7099 -0.0486
 1812TIP3   OH226926   1.115   6.711  15.212 -0.0509  0.0090  0.0072
 1812TIP3    H126927   1.197   6.760  15.209  0.0039  0.0799  1.6714
 1812TIP3    H226928   1.134   6.630  15.164  0.3891  0.8382 -1.2666
 1813TIP3   OH226929   0.050   4.983   4.534 -0.0825  0.3843  0.1805
 1813TIP3    H126930   0.049   5.006   4.442  0.5294  2.1180  0.5590
 1813TIP3    H226931   0.089   4.895   4.537  0.2059  0.4447 -1.1737
 1814TIP3   OH226932   2.758   2.438  16.420  0.5981  0.4870  0.5463
 1814TIP3    H126933   2.852   2.452  16.431  0.8584 -0.7658  0.0795
 1814TIP3    H226934   2.725   2.422  16.508  1.2103 -1.2114  0.4964
 1815TIP3   OH226935   6.253   0.421   4.512 -0.1666 -0.5435 -0.0940
 1815TIP3    H126936   6.330   0.388   4.465  0.1571  0.4835 -0.3123
 1815TIP3    H226937   6.191   0.446   4.443  0.4976  1.4183 -0.0473
 1816TIP3   OH226938   6.604   0.543   3.792 -0.0024  0.0316  0.1729
 1816TIP3    H126939   6.593   0.547   3.697 -1.6085  1.0125  0.3527
 1816TIP3    H226940   6.622   0.451   3.811  3.5065  0.2866 -1.3217
 1817TIP3   OH226941   5.357   6.783   4.166 -0.2788 -0.3750 -0.4346
 1817TIP3    H126942   5.356   6.689   4.184 -0.7217 -0.0338  1.4719
 1817TIP3    H226943   5.339   6.789   4.072 -0.5292 -2.1641 -0.5414
 1818TIP3   OH226944   3.716   5.486   4.796  0.6421 -0.2103  0.2395
 1818TIP3    H126945   3.625   5.515   4.797 -0.1695 -2.5118  0.0673
 1818TIP3    H226946   3.748   5.508   4.708  0.3808  0.8506  0.3930
 1819TIP3   OH226947   0.978   6.576  14.484  0.4709  0.2138 -0.3385
 1819TIP3    H126948   0.924   6.597  14.408 -1.4884  0.5276  1.0634
 1819TIP3    H226949   0.995   6.482  14.476  0.9658  0.3818 -1.5376
 1820TIP3   OH226950   2.827   0.417  16.089  0.2772  0.7732  0.0399
 1820TIP3    H126951   2.773   0.382  16.018  0.6456  2.5029 -1.1538
 1820TIP3    H226952   2.773   0.406  16.168 -1.0944  0.8567 -0.8554
 1821TIP3   OH226953   2.037   2.997  14.351  0.5455  0.4029 -0.0181
 1821TIP3    H126954   2.009   3.082  14.316 -0.0907  0.8881  1.5795
 1821TIP3    H226955   2.129   2.989  14.325  1.4401  2.8502  2.0730
 1822TIP3   OH226956   3.364   0.375  15.170 -0.4695 -0.0309  0.0694
 1822TIP3    H126957   3.404   0.357  15.085 -0.6675 -1.8589  0.3192
 1822TIP3    H226958   3.302   0.304  15.183 -2.5836  1.7933  0.4768
 1823TIP3   OH226959   5.846   5.238   5.016  0.1596  0.2484 -0.5101
 1823TIP3    H126960   5.831   5.157   5.066  1.7577  0.8801  1.1171
 1823TIP3    H226961   5.774   5.295   5.042 -0.9443 -0.5922 -1.6190
 1824TIP3   OH226962   1.017   6.790   5.147  0.0542  0.3112 -0.8363
 1824TIP3    H126963   0.930   6.778   5.187  0.5067  1.6668  0.6532
 1824TIP3    H226964   1.078   6.759   5.214  0.7821  0.7934 -1.2658
 1825TIP3   OH226965   6.533   1.886  11.840  0.3675  0.0083  0.6662
 1825TIP3    H126966   6.600   1.856  11.779  0.1838  0.8819  0.0253
 1825TIP3    H226967   6.560   1.974  11.866 -1.5608  1.2694 -1.2436
 1826TIP3   OH226968   5.434   3.779  11.465 -0.2085  0.1719 -0.1698
 1826TIP3    H126969   5.414   3.689  11.492  2.5558 -1.0690 -1.8379
 1826TIP3    H226970   5.496   3.810  11.530  0.0490  0.2994 -0.4757
 1827TIP3   OH226971   2.650   2.231   0.246 -0.5178 -0.1793 -0.3055
 1827TIP3    H126972   2.558   2.213   0.265 -0.5616  1.1274  0.8323
 1827TIP3    H226973   2.694   2.227   0.330  0.2244  0.5747 -0.6433
 1828TIP3   OH226974   4.345   3.495   3.059  0.2951 -0.1794  0.2517
 1828TIP3    H126975   4.405   3.424   3.038 -1.5886 -0.8781 -3.5100
 1828TIP3    H226976   4.389   3.574   3.026  0.1803 -0.3585 -0.3373
 1829TIP3   OH226977   6.269   2.285  13.810  0.3603  0.0718 -0.3069
 1829TIP3    H126978   6.281   2.240  13.894 -1.0840 -0.2423 -0.2535
 1829TIP3    H226979   6.292   2.376  13.829  0.8703 -0.1477  0.2050
 1830TIP3   OH226980   6.069   2.013  13.460 -0.1782 -0.4524 -0.2673
 1830TIP3    H126981   6.079   1.919  13.468  0.4445 -0.2736  1.7916
 1830TIP3    H226982   6.059   2.044  13.551  1.3918  1.6251 -0.7012
 1831TIP3   OH226983   1.809   3.133   1.273  0.0322  0.0648 -0.1835
 1831TIP3    H126984   1.845   3.103   1.189  0.1768  1.9537 -0.8481
 1831TIP3    H226985   1.717   3.106   1.270  0.5569 -1.9651  0.1298
 1832TIP3   OH226986   5.611   5.638  11.267 -0.3651 -0.3696 -1.0453
 1832TIP3    H126987   5.661   5.586  11.331 -0.4686 -0.9197 -1.4052
 1832TIP3    H226988   5.615   5.586  11.186 -0.1457  0.3713 -1.5182
 1833TIP3   OH226989   2.869   2.583   1.785 -0.0120 -0.3840  0.0822
 1833TIP3    H126990   2.873   2.494   1.750  0.0794  0.4482 -2.1924
 1833TIP3    H226991   2.948   2.626   1.752  0.7023  0.1681  2.3669
 1834TIP3   OH226992   4.522   6.730  14.846  0.5468  0.6697  0.3894
 1834TIP3    H126993   4.486   6.810  14.809 -0.6243 -0.1664 -0.3597
 1834TIP3    H226994   4.536   6.673  14.770 -0.3393 -0.4847  1.0503
 1835TIP3   OH226995   5.057   1.737  16.464 -0.3012 -0.3259  0.6448
 1835TIP3    H126996   5.098   1.822  16.449  1.4360 -1.4057 -1.0956
 1835TIP3    H226997   4.990   1.729  16.396 -0.7443 -0.1870  1.0611
 1836TIP3   OH226998   2.248   5.005   2.336 -0.1482  0.5256 -0.3890
 1836TIP3    H126999   2.190   4.947   2.286  0.1028 -1.0902  1.0864
 1836TIP3    H227000   2.329   4.954   2.347  0.7375  1.8506 -0.4901
 1837TIP3   OH227001   6.310   6.610  16.452 -0.2839 -0.0389  0.3383
 1837TIP3    H127002   6.374   6.672  16.416  1.0208 -1.1949  0.5917
 1837TIP3    H227003   6.334   6.526  16.414 -0.7455 -0.7549  1.5934
 1838TIP3   OH227004   5.112   1.072  13.015 -0.0371 -0.0807 -0.2643
 1838TIP3    H127005   5.059   0.995  12.995 -0.3747  0.0649  0.0650
 1838TIP3    H227006   5.055   1.128  13.067  0.0908  0.5497 -0.7897
 1839TIP3   OH227007   1.989   1.051  14.396  0.1866  0.7574  0.1280
 1839TIP3    H127008   2.030   1.128  14.435  1.4186  0.3140 -0.2587
 1839TIP3    H227009   2.050   1.022  14.328 -2.0089  1.6793 -2.4255
 1840TIP3   OH227010   6.274   5.589  11.091  0.3167 -0.5408  0.4226
 1840TIP3    H127011   6.298   5.525  11.158 -0.5023  1.1665  2.4761
 1840TIP3    H227012   6.183   5.612  11.111  0.9557  2.1601  0.6093
 1841TIP3   OH227013   1.613   0.319  15.597  0.2616  0.2224 -0.0353
 1841TIP3    H127014   1.542   0.304  15.534 -0.7346  0.5798  0.9605
 1841TIP3    H227015   1.602   0.250  15.662  0.5369  0.5544  0.3705
 1842TIP3   OH227016   2.762   3.415  15.381  0.2977 -0.0741 -0.1289
 1842TIP3    H127017   2.829   3.448  15.322  0.7952  0.5749  0.7683
 1842TIP3    H227018   2.796   3.330  15.411  0.2794 -0.1733 -0.3909
 1843TIP3   OH227019   3.070   2.682  15.275  0.1498 -0.2865  0.1164
 1843TIP3    H127020   3.089   2.775  15.271  0.0391 -0.1930  1.5282
 1843TIP3    H227021   2.974   2.677  15.280 -0.2507 -0.6611 -3.9509
 1844TIP3   OH227022   5.691   2.952   0.855  0.6505 -0.3231 -0.2180
 1844TIP3    H127023   5.671   2.901   0.933 -0.6317  0.0174 -0.2958
 1844TIP3    H227024   5.692   3.043   0.885  0.3124 -0.2036 -0.5465
 1845TIP3   OH227025   2.499   6.717  13.841  0.1693  0.8527  0.1434
 1845TIP3    H127026   2.594   6.708  13.835  0.3135  1.2519  1.3919
 1845TIP3    H227027   2.467   6.626  13.845  0.5193  0.7188 -0.0764
 1846TIP3   OH227028   6.326   2.220   5.123  1.2002 -0.5164  0.5435
 1846TIP3    H127029   6.355   2.173   5.202  0.0321 -0.2827  1.1400
 1846TIP3    H227030   6.236   2.247   5.144  0.6604 -0.9403 -1.0875
 1847TIP3   OH227031   5.926   0.037  16.896  1.0365  0.2452 -0.0838
 1847TIP3    H127032   5.859   0.086  16.848  1.4021  1.4701  0.6080
 1847TIP3    H227033   6.001   0.034  16.837  1.3886  1.5021  0.2667
 1848TIP3   OH227034   3.528   0.401   3.314 -0.0150 -0.9261 -0.4920
 1848TIP3    H127035   3.440   0.419   3.280  0.3473 -1.0200 -1.5031
 1848TIP3    H227036   3.516   0.329   3.375 -0.6638 -0.8459 -0.5224
 1849TIP3   OH227037   2.290   0.114   5.834 -0.1598 -0.4952  0.6568
 1849TIP3    H127038   2.214   0.172   5.846 -0.0480 -0.3268  0.5566
 1849TIP3    H227039   2.355   0.146   5.897  0.5931  0.6767 -0.6606
 1850TIP3   OH227040   0.361   6.165   4.237  0.2817 -0.6855 -0.0170
 1850TIP3    H127041   0.266   6.162   4.225  0.3236 -3.0033 -0.1014
 1850TIP3    H227042   0.374   6.153   4.331  0.4973 -0.0239  0.0427
 1851TIP3   OH227043   2.344   5.456  12.297  0.0342 -0.3572  0.3204
 1851TIP3    H127044   2.322   5.490  12.210  0.4936 -2.2832 -0.6138
 1851TIP3    H227045   2.270   5.480  12.352 -0.6266  0.2335 -0.7945
 1852TIP3   OH227046   5.660   2.477   4.010  0.3821  0.4174 -0.3842
 1852TIP3    H127047   5.713   2.486   4.089  0.1541  2.5732 -0.4083
 1852TIP3    H227048   5.710   2.523   3.942 -0.8666  1.3390 -0.7172
 1853TIP3   OH227049   2.904   5.729  15.356  0.0030 -0.2965 -0.0130
 1853TIP3    H127050   2.980   5.783  15.334 -0.3422 -0.1120 -0.8078
 1853TIP3    H227051   2.866   5.706  15.271 -1.7524  0.9697  0.3721
 1854TIP3   OH227052   5.085   0.668  11.490 -0.4579  0.1391  0.4665
 1854TIP3    H127053   5.175   0.643  11.471 -0.1035  0.0142  2.1404
 1854TIP3    H227054   5.092   0.740  11.553 -1.4818 -0.7246  1.6459
 1855TIP3   OH227055   4.131   1.130  16.313  0.3669  0.0231 -0.2152
 1855TIP3    H127056   4.085   1.053  16.279 -0.0001 -0.3280  1.0318
 1855TIP3    H227057   4.117   1.198  16.246  0.6392 -0.9583 -1.2998
 1856TIP3   OH227058   6.719   1.608  12.946 -0.1822 -0.3588  0.5502
 1856TIP3    H127059   6.725   1.666  13.022  0.1480  0.3223  0.0185
 1856TIP3    H227060   6.659   1.653  12.886 -0.3634 -0.8426  0.3600
 1857TIP3   OH227061   0.211   4.042   0.204 -0.3894  0.1524 -0.7984
 1857TIP3    H127062   0.267   4.085   0.140  1.3228 -1.7107 -0.6873
 1857TIP3    H227063   0.205   3.951   0.174 -0.2417 -0.5808  1.1874
 1858TIP3   OH227064   3.845   6.415  14.932  0.0108 -0.2303  0.0590
 1858TIP3    H127065   3.895   6.375  15.003  0.6798 -0.4512 -0.5143
 1858TIP3    H227066   3.812   6.497  14.968 -1.3443 -1.2542  1.2448
 1859TIP3   OH227067   2.644   4.198   5.577  0.2788  0.1069 -0.7376
 1859TIP3    H127068   2.608   4.138   5.512 -0.6443  0.1727 -0.3072
 1859TIP3    H227069   2.598   4.177   5.658  1.1012  0.3172 -0.1980
 1860TIP3   OH227070   0.030   1.511  14.522 -0.1911 -0.0470 -0.1357
 1860TIP3    H127071  -0.029   1.543  14.590 -0.7686  0.7636 -0.9910
 1860TIP3    H227072   0.116   1.507  14.565 -0.5841  0.2187  0.7006
 1861TIP3   OH227073   6.382   4.493  12.392  0.2263  0.0098 -0.0142
 1861TIP3    H127074   6.290   4.485  12.419  0.6583  3.3303  3.2724
 1861TIP3    H227075   6.422   4.411  12.421 -1.1272 -0.1370  1.6495
 1862TIP3   OH227076   0.683   4.175  16.339 -0.5992 -0.2891  0.0046
 1862TIP3    H127077   0.695   4.094  16.289  0.9831  0.1394 -0.3885
 1862TIP3    H227078   0.694   4.245  16.275 -2.2965  0.2709  0.2714
 1863TIP3   OH227079   2.782   1.984   2.840 -0.3296 -0.0736  0.1715
 1863TIP3    H127080   2.778   1.949   2.929 -0.3537 -0.3585  0.0592
 1863TIP3    H227081   2.849   1.932   2.796  2.2441  2.3139  0.9985
 1864TIP3   OH227082   6.373   5.282  12.594  0.2463  0.1796  0.4870
 1864TIP3    H127083   6.441   5.226  12.557 -0.8099 -0.4529 -0.5960
 1864TIP3    H227084   6.295   5.261  12.543 -0.6150  1.3403  1.2715
 1865TIP3   OH227085   4.403   0.800   6.803 -0.4105  0.4068 -0.2393
 1865TIP3    H127086   4.323   0.831   6.761  0.1302  0.9967 -0.8589
 1865TIP3    H227087   4.394   0.705   6.805 -1.1377  0.4708 -0.2740
 1866TIP3   OH227088   0.711   1.773  11.566  0.5384  0.1994 -0.4268
 1866TIP3    H127089   0.680   1.843  11.623 -0.2879 -0.8194  0.4337
 1866TIP3    H227090   0.653   1.699  11.586  2.3470 -1.2133 -0.1348
 1867TIP3   OH227091   0.289   0.130   3.312  0.0348  0.1194  0.0982
 1867TIP3    H127092   0.333   0.196   3.259  1.9361  0.3386  1.8074
 1867TIP3    H227093   0.212   0.175   3.348  0.9323  1.2260  0.6899
 1868TIP3   OH227094   2.067   1.193  14.931  0.3423 -0.1494  0.5449
 1868TIP3    H127095   2.071   1.280  14.971  1.4523  0.9795 -1.8256
 1868TIP3    H227096   2.158   1.164  14.929  0.1568 -0.6982 -0.0590
 1869TIP3   OH227097   0.771   2.545  15.710 -0.0690 -0.2924  0.2889
 1869TIP3    H127098   0.831   2.472  15.693 -0.0032 -0.5586  1.5742
 1869TIP3    H227099   0.723   2.556  15.628  1.9906  0.1968 -0.9462
 1870TIP3   OH227100   3.599   4.552  12.368  0.2768 -0.2906 -0.6595
 1870TIP3    H127101   3.533   4.484  12.359 -0.0467 -0.0050 -0.4562
 1870TIP3    H227102   3.662   4.516  12.430 -0.6154  0.1378  0.5397
 1871TIP3   OH227103   3.298   1.799   4.417  0.6919 -0.3731 -0.4059
 1871TIP3    H127104   3.247   1.775   4.340  0.2201  0.1688 -0.2668
 1871TIP3    H227105   3.236   1.843   4.475  1.5581  1.4350 -0.7604
 1872TIP3   OH227106   3.918   2.462   4.656  0.4536 -0.2936 -0.0509
 1872TIP3    H127107   3.946   2.486   4.744 -0.0808 -1.1136  0.3657
 1872TIP3    H227108   3.899   2.368   4.663 -0.4388 -0.1755 -0.8158
 1873TIP3   OH227109   0.420   3.825  16.299 -0.3025 -0.1566  0.0195
 1873TIP3    H127110   0.465   3.742  16.283  0.1217  0.3962 -1.9495
 1873TIP3    H227111   0.472   3.890  16.253 -1.9068  0.8378 -0.4794
 1874TIP3   OH227112   2.662   3.222  12.468  0.3035  0.2187  0.3193
 1874TIP3    H127113   2.672   3.207  12.562 -0.5839  0.9850  0.5538
 1874TIP3    H227114   2.624   3.141  12.434  1.5476 -0.4427  0.4279
 1875TIP3   OH227115   4.697   5.937  15.788 -0.7675 -0.1733  0.0588
 1875TIP3    H127116   4.683   5.850  15.752  2.2922 -0.8685  0.2690
 1875TIP3    H227117   4.719   5.922  15.880 -0.8579  0.8650  0.2606
 1876TIP3   OH227118   1.898   2.035  13.388 -1.0043 -0.1970 -0.4336
 1876TIP3    H127119   1.936   1.999  13.468  2.2438  2.7720 -0.3717
 1876TIP3    H227120   1.916   1.970  13.321 -0.9204 -1.3340  0.6555
 1877TIP3   OH227121   3.807   1.331   5.330  0.2884 -0.0962 -0.2272
 1877TIP3    H127122   3.722   1.288   5.327  0.2644 -0.0213 -0.6883
 1877TIP3    H227123   3.796   1.401   5.394  0.5359 -1.2021  1.0799
 1878TIP3   OH227124   4.288   5.867   4.921 -0.5571 -0.2614 -0.1412
 1878TIP3    H127125   4.344   5.813   4.865 -0.0273  1.8514 -1.8199
 1878TIP3    H227126   4.202   5.825   4.917 -0.3983 -0.5022 -2.1617
 1879TIP3   OH227127   5.789   2.663   4.934 -0.6153 -0.2936 -0.4078
 1879TIP3    H127128   5.842   2.594   4.974 -0.7205  0.2511  0.7258
 1879TIP3    H227129   5.710   2.666   4.987 -0.8081  0.3845 -0.7287
 1880TIP3   OH227130   6.151   4.657  15.782 -0.0352 -0.0571 -0.1274
 1880TIP3    H127131   6.214   4.715  15.740  0.4995 -1.0605 -0.7536
 1880TIP3    H227132   6.195   4.628  15.862 -0.6994  1.1504  0.7113
 1881TIP3   OH227133   3.111   1.566   5.183  0.6223  0.3978  0.0796
 1881TIP3    H127134   3.094   1.660   5.179 -0.0571  0.2576 -0.4656
 1881TIP3    H227135   3.034   1.526   5.143  1.6422 -0.3295 -1.1973
 1882TIP3   OH227136   4.210   0.001  12.045 -0.6318 -0.1041 -0.0033
 1882TIP3    H127137   4.125   0.040  12.028 -1.3490 -0.9091  1.4847
 1882TIP3    H227138   4.259   0.013  11.964 -2.1229  0.4573 -0.8625
 1883TIP3   OH227139   6.209   2.951   1.020  0.3631  0.0162 -0.0883
 1883TIP3    H127140   6.226   2.927   1.112  1.9037  0.0610 -0.3423
 1883TIP3    H227141   6.293   2.979   0.986  0.0390 -0.9433 -1.8119
 1884TIP3   OH227142   5.018   3.067   0.385 -0.2762  0.1514  0.1377
 1884TIP3    H127143   5.059   2.983   0.404 -1.8626 -0.1418  2.8332
 1884TIP3    H227144   5.013   3.111   0.470 -1.5776  1.9878 -0.8069
 1885TIP3   OH227145   0.733   4.452  10.693 -0.0588  0.1340 -0.9818
 1885TIP3    H127146   0.767   4.454  10.604 -0.8412  0.2504 -1.2836
 1885TIP3    H227147   0.678   4.530  10.700 -1.1390 -0.6099 -0.8661
 1886TIP3   OH227148   2.586   1.267  12.986 -0.0953  0.3109  0.1667
 1886TIP3    H127149   2.679   1.249  13.004 -0.0754 -1.4494 -1.4094
 1886TIP3    H227150   2.587   1.322  12.908 -0.3675 -0.1971 -0.2023
 1887TIP3   OH227151   0.879   2.647  14.829 -0.1987  0.3639  0.0685
 1887TIP3    H127152   0.952   2.601  14.873 -0.9082 -0.6507  0.2265
 1887TIP3    H227153   0.922   2.714  14.776  0.7784  0.6634  1.1714
 1888TIP3   OH227154   2.594   4.373  16.823 -0.4536 -0.2931 -0.1672
 1888TIP3    H127155   2.644   4.293  16.804 -0.4708  0.0497 -1.7836
 1888TIP3    H227156   2.523   4.343  16.880  0.5200 -1.1139  0.6589
 1889TIP3   OH227157   1.724   1.024   3.580  0.1314 -0.3393 -0.0911
 1889TIP3    H127158   1.732   1.111   3.540 -0.6963 -0.0826  0.2824
 1889TIP3    H227159   1.683   0.970   3.512  1.2797 -0.6422 -0.5803
 1890TIP3   OH227160   0.432   2.326  12.800  0.2192  0.4980 -0.6027
 1890TIP3    H127161   0.444   2.386  12.726  0.9881  1.6341  0.4171
 1890TIP3    H227162   0.501   2.349  12.862 -0.0300 -0.8464  0.2178
 1891TIP3   OH227163   4.330   1.242   3.568 -0.0210  0.2894 -0.2756
 1891TIP3    H127164   4.323   1.302   3.494  0.2279 -0.5112 -0.9707
 1891TIP3    H227165   4.393   1.176   3.539  0.4757  0.2457  0.8581
 1892TIP3   OH227166   1.255   6.221   1.970 -0.0161  0.2176 -0.3667
 1892TIP3    H127167   1.170   6.203   2.011  1.0615  1.0724  2.5203
 1892TIP3    H227168   1.279   6.139   1.927 -2.0123 -0.2258 -0.7135
 1893TIP3   OH227169   1.184   4.505   5.064 -0.4709 -0.0670 -0.1438
 1893TIP3    H127170   1.115   4.444   5.090 -0.5894  0.7554  1.6649
 1893TIP3    H227171   1.162   4.530   4.975 -1.8996 -0.6655  0.0198
 1894TIP3   OH227172   4.446   3.421  13.934 -0.1920 -0.1363  0.1497
 1894TIP3    H127173   4.487   3.454  13.854 -0.3726 -0.1151  0.0637
 1894TIP3    H227174   4.380   3.359  13.903  1.2705 -1.8926  0.3727
 1895TIP3   OH227175   6.607   5.495  16.138  0.9963  0.6445  0.5777
 1895TIP3    H127176   6.678   5.433  16.121  2.0922  2.2179 -0.9741
 1895TIP3    H227177   6.651   5.580  16.146 -0.7229  1.8445 -1.5432
 1896TIP3   OH227178   3.679   4.679  16.899  0.4087 -0.5561 -0.2382
 1896TIP3    H127179   3.651   4.622  16.970 -1.4116  0.4236 -0.1127
 1896TIP3    H227180   3.605   4.681  16.839  1.6445 -0.8281 -1.8684
 1897TIP3   OH227181   4.544   1.563   2.865 -0.5376 -0.0573  0.0109
 1897TIP3    H127182   4.456   1.546   2.831 -1.1630  0.2902  1.4159
 1897TIP3    H227183   4.578   1.477   2.889 -0.1649 -0.2854 -1.2354
 1898TIP3   OH227184   0.481   0.056  16.663  0.4739 -0.0526  0.6073
 1898TIP3    H127185   0.449   0.076  16.575 -1.3395  1.4215  1.5266
 1898TIP3    H227186   0.452  -0.034  16.680 -2.9689  1.0091  1.1726
 1899TIP3   OH227187   3.433   1.951  13.543  0.4323 -0.5594 -0.3505
 1899TIP3    H127188   3.345   1.983  13.525  0.4124 -1.0570 -1.1998
 1899TIP3    H227189   3.437   1.865  13.501  1.1350 -0.7995  0.1760
 1900TIP3   OH227190   1.753   2.347  11.475 -0.4589  0.3487  0.3115
 1900TIP3    H127191   1.711   2.430  11.499 -1.1400  0.2424 -0.4788
 1900TIP3    H227192   1.834   2.346  11.527 -0.5655  1.3836  0.5323
 1901TIP3   OH227193   2.638   5.128   2.562  0.7350 -0.1214 -0.0081
 1901TIP3    H127194   2.620   5.206   2.614 -0.2673  1.4922 -2.5636
 1901TIP3    H227195   2.583   5.060   2.601 -0.6591  1.2400  0.5316
 1902TIP3   OH227196   6.211   3.367   1.314 -0.5255 -0.5112 -0.2227
 1902TIP3    H127197   6.121   3.359   1.346 -0.2572 -0.7386  0.4933
 1902TIP3    H227198   6.226   3.461   1.308 -0.5450 -0.4632  0.4328
 1903TIP3   OH227199   2.750   4.662  11.987  0.1001  0.1994  0.0439
 1903TIP3    H127200   2.742   4.711  12.069  0.2728  1.7353 -0.8098
 1903TIP3    H227201   2.822   4.706  11.941  0.4914 -1.1023 -0.6229
 1904TIP3   OH227202   4.111   5.164  10.855 -0.4073  0.2377  0.3116
 1904TIP3    H127203   4.153   5.079  10.846 -0.3295  0.2210  0.7842
 1904TIP3    H227204   4.023   5.152  10.818 -0.3669 -0.0220  0.2974
 1905TIP3   OH227205   0.075   5.088   5.343  0.4580  0.2724 -0.3513
 1905TIP3    H127206  -0.016   5.118   5.344  0.3422  0.1042 -1.9748
 1905TIP3    H227207   0.101   5.083   5.435 -1.3240 -0.1391  0.1626
 1906TIP3   OH227208   1.039   2.601  16.456  0.2162  0.2735  0.1145
 1906TIP3    H127209   0.948   2.609  16.429 -0.6490  0.0880  2.7035
 1906TIP3    H227210   1.049   2.663  16.528  2.3784  0.8233 -0.5609
 1907TIP3   OH227211   2.844   3.394  11.859  0.6407 -0.0836 -0.0607
 1907TIP3    H127212   2.769   3.438  11.900  2.0611  1.3632  1.1371
 1907TIP3    H227213   2.814   3.305  11.845 -1.2296  0.3818  0.5992
 1908TIP3   OH227214   3.280   0.353  10.979  0.2424 -0.0971  0.2269
 1908TIP3    H127215   3.373   0.374  10.987 -0.0071  1.3988 -0.3611
 1908TIP3    H227216   3.269   0.328  10.887  0.2595 -1.4304  0.5748
 1909TIP3   OH227217   3.515   5.543   5.483  0.0316 -0.5901 -0.0501
 1909TIP3    H127218   3.467   5.476   5.532 -0.8842 -0.0091 -0.1450
 1909TIP3    H227219   3.480   5.539   5.394 -0.8930  0.8142  0.2215
 1910TIP3   OH227220   3.902   0.533   4.825 -0.0604 -0.3380  0.1899
 1910TIP3    H127221   3.933   0.602   4.885  1.3859 -0.6878 -0.1102
 1910TIP3    H227222   3.970   0.529   4.758 -1.3073 -0.4489 -1.1018
 1911TIP3   OH227223   4.305   6.587   1.473 -0.0254  0.1657  0.3244
 1911TIP3    H127224   4.349   6.551   1.395  2.1421  1.2270  0.9614
 1911TIP3    H227225   4.371   6.579   1.542 -0.9362  1.6746  1.3953
 1912TIP3   OH227226   5.719   3.011  13.558  0.1478 -0.2433  0.1772
 1912TIP3    H127227   5.810   3.006  13.588  0.0176  0.0299  0.6272
 1912TIP3    H227228   5.708   2.936  13.500  1.1983  0.7466 -1.3594
 1913TIP3   OH227229   2.591   1.005  16.398  0.2081 -0.0813  0.1252
 1913TIP3    H127230   2.648   0.946  16.447 -0.6462 -1.3802 -0.3987
 1913TIP3    H227231   2.551   1.061  16.465  0.1151 -0.8954  0.7679
 1914TIP3   OH227232   3.072   5.061  16.682 -0.4932 -0.2087 -0.4191
 1914TIP3    H127233   3.010   5.033  16.749 -0.2643 -0.8935 -0.4862
 1914TIP3    H227234   3.139   4.993  16.682 -0.9228 -0.6764 -1.9236
 1915TIP3   OH227235   6.573   1.745  16.833  0.1117 -0.2703  0.2440
 1915TIP3    H127236   6.617   1.702  16.759 -0.0368 -0.2563  0.1461
 1915TIP3    H227237   6.594   1.838  16.823  1.3518 -0.4468  1.0853
 1916TIP3   OH227238   3.316   5.734  12.638 -0.3622 -0.2682 -0.3837
 1916TIP3    H127239   3.277   5.677  12.572 -1.6952  1.0664 -0.7904
 1916TIP3    H227240   3.252   5.735  12.710 -0.0302  0.1785 -0.0870
 1917TIP3   OH227241   5.059   6.407   0.714  0.3120  0.1731 -0.0329
 1917TIP3    H127242   5.068   6.496   0.747  2.8476 -0.0548  0.1199
 1917TIP3    H227243   5.084   6.352   0.788  0.4205 -0.5715 -0.6072
 1918TIP3   OH227244   3.066   2.490  13.604 -0.0645  0.1125  0.6466
 1918TIP3    H127245   3.131   2.554  13.576  1.6580 -1.8250 -0.0742
 1918TIP3    H227246   3.038   2.446  13.524 -1.0433 -0.2067  1.1404
 1919TIP3   OH227247   2.412   4.109   4.431  0.4179  0.1695 -0.4903
 1919TIP3    H127248   2.466   4.185   4.449 -1.5759  1.9068 -1.3997
 1919TIP3    H227249   2.333   4.122   4.484  1.1046 -2.7307  1.4967
 1920TIP3   OH227250   3.330   1.150  15.029  0.0591 -0.3559 -0.0258
 1920TIP3    H127251   3.307   1.062  14.998  0.9069 -0.8642  0.7563
 1920TIP3    H227252   3.389   1.185  14.962 -0.2477 -0.3942 -0.3176
 1921TIP3   OH227253   6.637   2.777   3.619 -0.2480  0.2167 -0.7166
 1921TIP3    H127254   6.674   2.706   3.672 -1.7634 -1.5996 -1.9584
 1921TIP3    H227255   6.587   2.830   3.682 -1.4319 -1.4831 -0.1666
 1922TIP3   OH227256   2.714   4.769  14.719 -0.4446  0.3243  0.0639
 1922TIP3    H127257   2.780   4.705  14.691 -0.9620 -0.2121  0.0346
 1922TIP3    H227258   2.632   4.735  14.682 -1.1511 -0.3929  2.1742
 1923TIP3   OH227259   5.878   4.291   3.885 -0.1443 -0.2990 -0.4440
 1923TIP3    H127260   5.959   4.294   3.936 -0.0651 -2.1255 -0.4238
 1923TIP3    H227261   5.908   4.293   3.794  0.0158 -1.8461 -0.4540
 1924TIP3   OH227262   0.282   1.754   4.275 -0.2669  0.2796 -0.0726
 1924TIP3    H127263   0.227   1.830   4.258  1.1983  1.4482  0.1736
 1924TIP3    H227264   0.316   1.769   4.364  0.1861 -0.5693 -0.0984
 1925TIP3   OH227265   1.784   0.654  12.101  0.4622  0.1233 -0.6418
 1925TIP3    H127266   1.840   0.625  12.029  0.5984 -0.2155 -0.4007
 1925TIP3    H227267   1.797   0.749  12.105  0.2616  0.1779 -1.2247
 1926TIP3   OH227268   4.891   5.560  12.821 -0.1215 -0.5253  0.2672
 1926TIP3    H127269   4.970   5.543  12.872  0.6563 -0.8105 -0.9827
 1926TIP3    H227270   4.834   5.485  12.839 -0.3916 -0.0187  1.6527
 1927TIP3   OH227271   2.290   0.008   3.237  0.0099 -0.2908  0.1743
 1927TIP3    H127272   2.274   0.040   3.326 -0.7822  2.8614 -0.9691
 1927TIP3    H227273   2.210   0.028   3.189  1.1693  0.1245 -1.7170
 1928TIP3   OH227274   2.427   2.127   1.872  0.0165  0.1429 -0.3962
 1928TIP3    H127275   2.341   2.156   1.904 -0.3731 -1.4958  0.1313
 1928TIP3    H227276   2.489   2.167   1.933 -0.6337 -1.7185  1.6161
 1929TIP3   OH227277   1.788   5.683  12.880 -0.0263  0.3449  0.0181
 1929TIP3    H127278   1.875   5.706  12.912  0.0181  0.2063 -0.0050
 1929TIP3    H227279   1.771   5.597  12.917  0.3511 -0.1680 -0.9780
 1930TIP3   OH227280   0.908   0.493   1.024  0.1989 -0.0474  0.8783
 1930TIP3    H127281   0.926   0.419   1.083  0.3030  0.6349  1.7247
 1930TIP3    H227282   0.894   0.452   0.938 -0.6454 -1.1294  1.4965
 1931TIP3   OH227283   2.167   0.795  13.588  0.2570 -0.2576  0.4756
 1931TIP3    H127284   2.171   0.806  13.493  1.0332  2.4700  0.7231
 1931TIP3    H227285   2.076   0.769  13.605  0.0353 -0.5148 -0.9759
 1932TIP3   OH227286   1.783   1.251   3.429 -0.0066 -0.1792 -0.4749
 1932TIP3    H127287   1.747   1.336   3.402 -0.1877 -0.7428 -2.1038
 1932TIP3    H227288   1.875   1.269   3.448 -0.3385  0.6238  0.4855
 1933TIP3   OH227289   3.335   2.201  14.635  0.1445  0.3789  0.1287
 1933TIP3    H127290   3.260   2.147  14.612  0.3558 -0.3683  1.1494
 1933TIP3    H227291   3.408   2.162  14.586 -0.3880  2.1957 -2.3326
 1934TIP3   OH227292   4.979   3.578   4.848  0.4002  0.0364 -0.0439
 1934TIP3    H127293   5.031   3.601   4.925  3.8095 -3.3238 -1.0419
 1934TIP3    H227294   4.915   3.515   4.880  1.7368 -1.2714  0.1454
 1935TIP3   OH227295   3.950   4.207   5.851  0.2725  0.1589 -0.2388
 1935TIP3    H127296   4.033   4.248   5.875 -0.2223  0.7628  0.5066
 1935TIP3    H227297   3.949   4.210   5.756  1.3505 -0.3669 -0.2810
 1936TIP3   OH227298   1.425   5.619  14.669 -0.1772  0.1311 -0.5108
 1936TIP3    H127299   1.401   5.682  14.600 -0.5864  0.9099  0.3198
 1936TIP3    H227300   1.343   5.604  14.717  0.1240 -0.3334 -0.1355
 1937TIP3   OH227301   4.032   1.625   4.744 -0.6142 -0.9875  0.3274
 1937TIP3    H127302   4.105   1.664   4.792  0.3571  1.5642 -2.8418
 1937TIP3    H227303   4.069   1.600   4.659 -3.1914 -0.2498 -1.1442
 1938TIP3   OH227304   3.574   0.506   0.374 -0.5748  0.1721  0.2623
 1938TIP3    H127305   3.566   0.510   0.470 -1.7232  1.3902  0.1532
 1938TIP3    H227306   3.619   0.423   0.357 -0.8675 -0.3475  1.8243
 1939TIP3   OH227307   5.594   3.272  13.913 -0.0846 -0.0911 -0.0755
 1939TIP3    H127308   5.638   3.331  13.852 -0.8574 -1.3413 -1.9206
 1939TIP3    H227309   5.663   3.214  13.944  0.0293 -0.5300 -1.1147
 1940TIP3   OH227310   4.299   5.960  16.135 -0.1578  0.9034 -0.6278
 1940TIP3    H127311   4.373   5.994  16.084  1.2712  0.9534  1.4037
 1940TIP3    H227312   4.253   5.902  16.074  0.7196  1.9492 -2.3619
 1941TIP3   OH227313   3.841   0.858  13.310 -0.1652 -0.0757 -0.2748
 1941TIP3    H127314   3.909   0.908  13.264 -1.5096  0.3122 -1.9269
 1941TIP3    H227315   3.885   0.778  13.338  1.6614  1.3131  1.1184
 1942TIP3   OH227316   2.476   0.223  15.053 -0.6456  0.2629  0.0506
 1942TIP3    H127317   2.383   0.207  15.036 -0.8759  0.5549  1.0160
 1942TIP3    H227318   2.482   0.242  15.146 -0.0435  3.1548 -0.4562
 1943TIP3   OH227319   3.322   4.019  14.549 -0.0227  0.4568 -0.6997
 1943TIP3    H127320   3.314   4.042  14.456  1.0875 -0.8607 -1.1547
 1943TIP3    H227321   3.410   4.048  14.573 -0.0227  0.1155 -0.2762
 1944TIP3   OH227322   6.329   4.834  15.668  0.5922  0.5190  0.0455
 1944TIP3    H127323   6.408   4.858  15.621  0.5840  1.7748  0.6404
 1944TIP3    H227324   6.331   4.886  15.748 -0.1013 -0.5238  0.7810
 1945TIP3   OH227325   5.243   4.954  11.030  0.2358  0.1384  0.0607
 1945TIP3    H127326   5.258   4.938  10.937  0.6084  0.0271  0.1374
 1945TIP3    H227327   5.148   4.961  11.039  0.1140 -1.0447 -0.1323
 1946TIP3   OH227328   3.235   5.124  11.492  0.2073  0.5705  0.0076
 1946TIP3    H127329   3.277   5.200  11.532 -0.7991  1.1776 -0.0538
 1946TIP3    H227330   3.196   5.076  11.565 -1.0388  1.3078 -0.1554
 1947TIP3   OH227331   1.560   4.840  15.915 -0.1206 -0.1715  0.6701
 1947TIP3    H127332   1.651   4.810  15.922  0.0999  0.6510  1.6437
 1947TIP3    H227333   1.535   4.819  15.826  0.1812 -2.6908  1.1012
 1948TIP3   OH227334   5.975   4.814  16.182  0.0176  1.1406  0.3414
 1948TIP3    H127335   6.058   4.834  16.138 -0.6036  3.8602  0.2151
 1948TIP3    H227336   5.986   4.852  16.270 -1.0945  1.6204  0.2849
 1949TIP3   OH227337   1.217   4.235   4.035 -0.1677  0.1331  0.4361
 1949TIP3    H127338   1.144   4.294   4.056  0.1869  0.9487 -0.5266
 1949TIP3    H227339   1.260   4.220   4.119 -1.8117 -0.9017  1.1437
 1950TIP3   OH227340   0.065   3.190  16.337  0.4785 -0.3065  0.0717
 1950TIP3    H127341   0.062   3.144  16.253  0.4115 -0.1344 -0.0209
 1950TIP3    H227342   0.158   3.196  16.359  0.6145  1.0476 -0.7665
 1951TIP3   OH227343   4.931   6.333   2.663 -0.3724 -0.3844  0.2611
 1951TIP3    H127344   4.881   6.414   2.658 -1.0963 -0.7213  1.6738
 1951TIP3    H227345   4.926   6.295   2.575  1.8241  2.1334 -1.1011
 1952TIP3   OH227346   6.700   2.998  12.314 -0.1496  0.3858  0.3441
 1952TIP3    H127347   6.632   3.065  12.304  0.1190  0.3599 -2.2912
 1952TIP3    H227348   6.695   2.947  12.233  1.6144 -0.9574  1.0281
 1953TIP3   OH227349   1.168   1.549   0.999  0.1617 -0.1435  0.0667
 1953TIP3    H127350   1.252   1.583   1.030  0.5039  0.0817 -1.0424
 1953TIP3    H227351   1.175   1.454   1.011 -0.5421  0.0501  2.5655
 1954TIP3   OH227352   4.624   1.199  16.077 -0.1295  0.1201  0.1110
 1954TIP3    H127353   4.576   1.274  16.114  0.1148  0.0878  0.4904
 1954TIP3    H227354   4.678   1.167  16.149 -0.3055 -0.4863 -0.0223
 1955TIP3   OH227355   5.284   4.081   2.650  0.0733 -0.0187  0.0791
 1955TIP3    H127356   5.225   4.107   2.580  0.0708 -0.6175 -0.1517
 1955TIP3    H227357   5.364   4.053   2.604 -0.3461 -1.5391  0.2208
 1956TIP3   OH227358   1.867   6.784  11.916  0.0277 -0.2598 -0.4334
 1956TIP3    H127359   1.809   6.842  11.966  0.4721  0.2031 -0.4539
 1956TIP3    H227360   1.880   6.829  11.833 -2.2531 -1.8845 -1.8017
 1957TIP3   OH227361   2.118   5.458   0.176  0.3591  0.4070 -0.2176
 1957TIP3    H127362   2.101   5.392   0.108  2.9783 -0.9635  0.3347
 1957TIP3    H227363   2.119   5.541   0.128 -3.0695  0.2006 -0.9183
 1958TIP3   OH227364   4.399   0.953  14.136  0.3369  0.3782 -0.1297
 1958TIP3    H127365   4.339   1.028  14.132  1.6559  1.4991  0.5250
 1958TIP3    H227366   4.344   0.878  14.114 -1.6613  1.1615  1.8156
 1959TIP3   OH227367   1.750   3.665   1.863 -0.2647 -0.5216  0.1050
 1959TIP3    H127368   1.744   3.715   1.944  0.4067  1.1905 -0.8591
 1959TIP3    H227369   1.787   3.581   1.890 -0.6528 -0.2374  1.6489
 1960TIP3   OH227370   6.286   4.603  16.005 -0.0908 -0.5248  0.1788
 1960TIP3    H127371   6.285   4.623  16.099 -1.7491 -2.4003  0.6314
 1960TIP3    H227372   6.371   4.562  15.990  0.0177 -0.6095  0.9625
 1961TIP3   OH227373   2.721   6.624   0.743 -0.2043 -0.4180 -0.5701
 1961TIP3    H127374   2.802   6.675   0.736 -0.2439 -0.4113 -1.0317
 1961TIP3    H227375   2.651   6.688   0.728 -0.3195 -0.3346  0.2904
 1962TIP3   OH227376   2.863   2.687   4.640  0.2032 -0.1169  0.1628
 1962TIP3    H127377   2.770   2.676   4.660 -0.3512  1.2858 -1.4770
 1962TIP3    H227378   2.893   2.754   4.702 -0.7183  1.8069 -1.3517
 1963TIP3   OH227379   1.897   4.907  14.685  0.4142  0.6968 -0.0474
 1963TIP3    H127380   1.842   4.862  14.621 -1.6179 -1.3251  2.8942
 1963TIP3    H227381   1.944   4.837  14.730  0.6846  1.9083  1.6360
 1964TIP3   OH227382   5.858   1.277   3.696  0.2647  0.0013 -0.0044
 1964TIP3    H127383   5.829   1.238   3.614 -1.8820 -0.6703  1.0184
 1964TIP3    H227384   5.915   1.210   3.735  0.1846 -0.2466 -0.3101
 1965TIP3   OH227385   3.176   2.144   1.553 -0.2453  0.2167 -0.2258
 1965TIP3    H127386   3.082   2.150   1.536 -0.1619  0.7548 -0.5254
 1965TIP3    H227387   3.183   2.095   1.635 -0.8807  2.0267  0.9678
 1966TIP3   OH227388   3.545   2.561   5.480 -0.1385  0.2404  0.4809
 1966TIP3    H127389   3.629   2.587   5.517  0.5598  0.1482 -0.9609
 1966TIP3    H227390   3.531   2.472   5.511 -0.0682  0.5186  1.3254
 1967TIP3   OH227391   6.070   4.675   1.789  0.5674  0.1093 -1.0260
 1967TIP3    H127392   6.150   4.621   1.788  0.2388 -0.3793 -1.6802
 1967TIP3    H227393   6.098   4.758   1.829  1.3777 -0.0899 -1.1513
 1968TIP3   OH227394   1.335   1.571   2.457 -0.4435  0.4873 -0.0138
 1968TIP3    H127395   1.283   1.592   2.380 -1.1180  2.3163  0.8698
 1968TIP3    H227396   1.278   1.517   2.511 -0.5175  0.4549 -0.1243
 1969TIP3   OH227397   1.138   4.100   4.595 -0.3080  0.3274 -0.5708
 1969TIP3    H127398   1.138   4.188   4.632  0.7524  0.2967 -0.4884
 1969TIP3    H227399   1.215   4.058   4.631 -1.3992 -1.0309  0.2827
 1970TIP3   OH227400   2.094   1.216  12.824  0.0942  0.4425 -0.0558
 1970TIP3    H127401   2.016   1.246  12.871  1.0055  3.1534 -0.0684
 1970TIP3    H227402   2.165   1.224  12.888  0.4386 -2.0414 -0.0246
 1971TIP3   OH227403   4.568   3.676   0.005  0.4589  0.0177  0.1449
 1971TIP3    H127404   4.525   3.644   0.084  1.7197 -0.3583  0.6956
 1971TIP3    H227405   4.574   3.771   0.017 -0.1498  0.0631  0.0916
 1972TIP3   OH227406   2.599   5.901  10.956  0.0839 -0.2975 -0.3288
 1972TIP3    H127407   2.626   5.879  11.045  0.6329 -1.0656 -0.6735
 1972TIP3    H227408   2.664   5.965  10.926 -0.1976  0.0899 -0.1291
 1973TIP3   OH227409   0.899   3.104  13.123  0.3552  0.3156 -0.2883
 1973TIP3    H127410   0.928   3.173  13.183  0.1912  0.1953 -0.0668
 1973TIP3    H227411   0.978   3.078  13.076  0.3294  0.9829 -0.7158
 1974TIP3   OH227412   3.414   1.942  16.819  0.3921  0.5940 -0.2425
 1974TIP3    H127413   3.461   1.899  16.748  1.7390  0.4048  0.7277
 1974TIP3    H227414   3.349   1.878  16.847  2.2884 -0.8494  1.1088
 1975TIP3   OH227415   0.747   1.383   2.095  0.6320  0.5120  0.4497
 1975TIP3    H127416   0.731   1.474   2.071  0.9193  0.2737 -0.7178
 1975TIP3    H227417   0.782   1.343   2.016  0.9859 -0.4991  1.0898
 1976TIP3   OH227418   4.242   1.028   4.595  0.3184  0.2717 -0.3011
 1976TIP3    H127419   4.166   1.018   4.652  0.2248  2.5817  0.0559
 1976TIP3    H227420   4.212   0.999   4.509 -0.1640 -1.2366  0.3362
 1977TIP3   OH227421   3.653   6.827   6.193 -0.3262 -0.3763  0.1600
 1977TIP3    H127422   3.584   6.870   6.242 -0.2794 -1.6741  1.4395
 1977TIP3    H227423   3.648   6.735   6.220 -0.8648 -1.3811 -2.9112
 1978TIP3   OH227424   5.256   1.275  13.833  0.0149  0.0387 -0.4387
 1978TIP3    H127425   5.336   1.326  13.844  0.2846  0.0278 -2.0860
 1978TIP3    H227426   5.215   1.277  13.919  0.3282  2.4847 -0.2682
 1979TIP3   OH227427   3.403   0.863  15.890  0.3355  0.1818  0.3500
 1979TIP3    H127428   3.324   0.832  15.934 -0.3560  3.1965  1.4332
 1979TIP3    H227429   3.381   0.950  15.857  3.0807  1.0178  0.4388
 1980TIP3   OH227430   5.094   3.716   6.283 -0.3729  0.3221 -0.1214
 1980TIP3    H127431   5.136   3.801   6.280  0.5739 -0.1087  0.5036
 1980TIP3    H227432   5.002   3.733   6.261  0.3241  1.1276 -2.8341
 1981TIP3   OH227433   1.324   4.365  15.463  0.4040  0.0534  0.2135
 1981TIP3    H127434   1.299   4.408  15.544  0.7301  0.4556  0.1037
 1981TIP3    H227435   1.322   4.271  15.483  0.5352  0.1553  0.6984
 1982TIP3   OH227436   6.574   6.646  11.504 -0.4632  0.0423  0.4169
 1982TIP3    H127437   6.628   6.601  11.569  0.1417  2.5153  1.7314
 1982TIP3    H227438   6.500   6.681  11.555 -1.2868 -0.0212 -0.6936
 1983TIP3   OH227439   1.264   3.542   2.443 -0.0927  0.1269  0.1399
 1983TIP3    H127440   1.314   3.481   2.498  0.0645 -0.0375 -0.1786
 1983TIP3    H227441   1.331   3.583   2.388 -0.4267 -1.0341 -1.1977
 1984TIP3   OH227442   0.339   3.390  15.416 -0.1619 -0.0620 -0.0879
 1984TIP3    H127443   0.345   3.481  15.446 -0.3218 -0.5848  1.6308
 1984TIP3    H227444   0.248   3.366  15.430 -0.1909 -0.4166 -0.8136
 1985TIP3   OH227445   1.090   3.672  14.545  0.2678 -0.5108  0.2028
 1985TIP3    H127446   1.174   3.684  14.590  0.9691 -0.1880 -1.1411
 1985TIP3    H227447   1.030   3.731  14.590  0.4436 -1.5725  1.9206
 1986TIP3   OH227448   0.689   3.128   0.004  1.1267  0.4575 -0.2300
 1986TIP3    H127449   0.613   3.070  -0.000 -1.1123  3.0528  1.1999
 1986TIP3    H227450   0.763   3.069   0.018 -0.9318 -2.0702  0.8362
 1987TIP3   OH227451   2.694   3.761  16.797  0.0897 -0.4894  0.0149
 1987TIP3    H127452   2.619   3.796  16.748  1.1051 -0.3463 -1.4913
 1987TIP3    H227453   2.708   3.674  16.760 -0.3471 -1.1987  1.4490
 1988TIP3   OH227454   1.010   4.209  13.478 -0.3635 -0.0179 -0.0123
 1988TIP3    H127455   1.059   4.291  13.470  2.3067 -1.4956  0.1746
 1988TIP3    H227456   0.996   4.181  13.387  1.1216 -0.6426 -0.0781
 1989TIP3   OH227457   2.280   6.176  12.462  0.4760 -0.2828 -0.1776
 1989TIP3    H127458   2.206   6.154  12.405  0.9865  0.6730 -1.2396
 1989TIP3    H227459   2.349   6.203  12.403  1.1243  0.4818  0.8911
 1990TIP3   OH227460   1.013   0.254   1.561 -0.0890  0.5084  0.0700
 1990TIP3    H127461   1.080   0.253   1.492  0.6229  0.9969  0.7470
 1990TIP3    H227462   1.059   0.282   1.640 -0.8454 -0.2791  0.8141
 1991TIP3   OH227463   6.169   1.786  15.544 -0.2570 -0.2264 -0.5976
 1991TIP3    H127464   6.109   1.742  15.605 -1.3670 -0.4826 -1.8433
 1991TIP3    H227465   6.139   1.877  15.542  0.4870  0.0520  0.0674
 1992TIP3   OH227466   3.347   5.491   1.882 -0.6952 -0.3088 -0.6205
 1992TIP3    H127467   3.390   5.567   1.843 -1.4060 -0.8416 -2.5654
 1992TIP3    H227468   3.280   5.528   1.939  0.9608  0.5098  0.8906
 1993TIP3   OH227469   1.274   5.211   0.331  0.5208  0.2758  0.0976
 1993TIP3    H127470   1.359   5.174   0.355 -0.0032 -0.8416  0.2761
 1993TIP3    H227471   1.216   5.189   0.404 -0.1362  0.2721 -0.4159
 1994TIP3   OH227472   6.285   2.151  16.880 -0.2305  0.3157 -0.2331
 1994TIP3    H127473   6.216   2.104  16.926  0.1254  1.6742  1.8126
 1994TIP3    H227474   6.285   2.238  16.919  1.5124  0.8879 -1.3821
 1995TIP3   OH227475   4.088   4.007   2.363  0.3633 -0.8278  0.1734
 1995TIP3    H127476   4.058   3.923   2.328 -0.3665 -0.2835 -0.5461
 1995TIP3    H227477   4.118   4.056   2.286 -0.2764 -0.0072  0.4382
 1996TIP3   OH227478   4.579   5.890   3.107 -0.4301  0.3836  0.0152
 1996TIP3    H127479   4.598   5.800   3.079 -0.0489  0.8159 -1.1434
 1996TIP3    H227480   4.580   5.885   3.203  2.3980 -0.3006  0.0250
 1997TIP3   OH227481   0.996   1.194  12.350  0.4149 -0.0364 -0.1092
 1997TIP3    H127482   1.063   1.171  12.286  0.9594  2.0521 -0.3791
 1997TIP3    H227483   1.023   1.280  12.383 -1.7796  0.5741  0.2560
 1998TIP3   OH227484   5.598   5.294  16.721 -0.4936  0.2007 -0.6783
 1998TIP3    H127485   5.646   5.316  16.801  0.2755  1.4367 -1.4520
 1998TIP3    H227486   5.559   5.377  16.694 -1.6168 -0.4241 -1.0331
 1999TIP3   OH227487   6.317   5.314   3.706  0.0513  0.1148  0.3582
 1999TIP3    H127488   6.317   5.308   3.801  0.5296 -2.3968  0.2684
 1999TIP3    H227489   6.349   5.229   3.676 -1.2471  0.3673 -2.0635
 2000TIP3   OH227490   6.717   1.751  11.643  0.5694 -0.3202  0.6163
 2000TIP3    H127491   6.714   1.785  11.554  0.8747  0.7966  1.0089
 2000TIP3    H227492   6.810   1.742  11.663  0.4929 -1.8935  0.3575
 2001TIP3   OH227493   6.648   6.630   0.016  0.0131 -0.4647 -0.3259
 2001TIP3    H127494   6.594   6.706   0.036  0.0191 -0.1524 -1.4229
 2001TIP3    H227495   6.604   6.557   0.060 -0.4134  0.0443  0.1021
 2002TIP3   OH227496   1.724   3.098   1.920 -0.3205 -0.4025  0.6308
 2002TIP3    H127497   1.818   3.078   1.914 -0.3401 -0.4993  0.6461
 2002TIP3    H227498   1.688   3.027   1.974 -0.1885  0.3291  1.6933
 2003TIP3   OH227499   6.504   3.956   5.795  0.2291 -0.0704 -0.4279
 2003TIP3    H127500   6.416   3.980   5.824 -0.2458 -1.7096 -0.4114
 2003TIP3    H227501   6.491   3.916   5.709  0.8103 -1.3093  0.0398
 2004TIP3   OH227502   3.139   5.796   2.163  0.1937  0.1679  0.0296
 2004TIP3    H127503   3.052   5.832   2.180  0.5713  1.3877 -0.5141
 2004TIP3    H227504   3.185   5.802   2.246 -0.0759  0.0069  0.1899
 2005TIP3   OH227505   1.083   5.563   2.472 -0.0847  0.2447  0.3393
 2005TIP3    H127506   1.013   5.504   2.502 -0.8953  0.7320 -0.5643
 2005TIP3    H227507   1.152   5.551   2.537  0.0585 -2.2214 -0.1730
 2006TIP3   OH227508   0.812   1.479   0.390 -0.2584  0.2301  0.1808
 2006TIP3    H127509   0.836   1.523   0.472  0.5966  1.9533 -0.9342
 2006TIP3    H227510   0.728   1.438   0.409  0.0917  0.2440  2.0241
 2007TIP3   OH227511   1.280   5.331   2.028 -0.2969 -0.0742  0.0945
 2007TIP3    H127512   1.221   5.405   2.044  0.2537  0.6450 -1.0856
 2007TIP3    H227513   1.269   5.311   1.935  0.9186 -0.2750 -0.0261
 2008TIP3   OH227514   4.949   1.590   1.224  0.3811  0.0648 -0.6651
 2008TIP3    H127515   4.870   1.573   1.173  0.2673 -0.8938 -0.1903
 2008TIP3    H227516   5.018   1.598   1.158  0.2329 -1.1511 -0.9948
 2009TIP3   OH227517   2.009   6.052  13.565 -0.0157 -0.2030  0.0480
 2009TIP3    H127518   2.025   5.958  13.571  1.2386 -0.0531 -0.6913
 2009TIP3    H227519   2.028   6.086  13.653  2.7228 -0.2184 -0.4584
 2010TIP3   OH227520   5.664   5.660  16.518 -0.1752  0.4252 -0.4536
 2010TIP3    H127521   5.584   5.607  16.514  0.3497 -0.3478 -0.9293
 2010TIP3    H227522   5.694   5.651  16.608 -0.5914  0.6844 -0.2820
 2011TIP3   OH227523   4.703   0.864  10.324  0.0854  0.5317 -0.3145
 2011TIP3    H127524   4.723   0.807  10.398  0.4638 -0.4971 -1.2060
 2011TIP3    H227525   4.783   0.914  10.310  0.5007 -0.3000 -0.9414
 2012TIP3   OH227526   5.897   5.749  15.115 -0.0999  0.2345  0.0516
 2012TIP3    H127527   5.941   5.730  15.032 -0.0016 -1.4054  0.4379
 2012TIP3    H227528   5.872   5.663  15.149 -0.3233  0.8778  1.6230
 2013TIP3   OH227529   1.515   4.532   3.727 -0.7234  0.1551 -0.6875
 2013TIP3    H127530   1.530   4.487   3.644  2.3898  0.2342 -0.2871
 2013TIP3    H227531   1.501   4.624   3.703  2.6242  0.6598 -1.1503
 2014TIP3   OH227532   1.281   2.064   0.610 -0.1267 -0.0639  0.2704
 2014TIP3    H127533   1.303   2.118   0.534  0.8865 -0.1962  0.4521
 2014TIP3    H227534   1.219   1.999   0.576 -0.4749  0.5075 -0.2008
 2015TIP3   OH227535   5.829   5.019   3.600 -0.0945 -0.0264 -0.4924
 2015TIP3    H127536   5.824   5.042   3.507 -1.0797 -0.2669 -0.5143
 2015TIP3    H227537   5.804   4.926   3.602 -5.1056  1.0632  0.4489
 2016TIP3   OH227538   4.812   5.553  11.757  0.1375 -0.2203 -0.2298
 2016TIP3    H127539   4.818   5.626  11.695  1.1314 -0.2190 -0.1460
 2016TIP3    H227540   4.867   5.485  11.719  0.1039 -0.5231  0.2549
 2017TIP3   OH227541   1.669   6.758   1.760 -0.2849  0.3685  0.5188
 2017TIP3    H127542   1.587   6.753   1.807  0.0590  0.4791  1.1400
 2017TIP3    H227543   1.734   6.719   1.819 -0.0827 -0.7599 -0.4245
 2018TIP3   OH227544   5.965   0.746  13.941  0.1118 -0.1179  0.1546
 2018TIP3    H127545   6.027   0.818  13.927 -1.0502  0.8198 -0.3265
 2018TIP3    H227546   5.954   0.743  14.036  1.1833 -0.5603  0.2788
 2019TIP3   OH227547   5.581   1.343  11.644 -0.4700 -0.9135 -0.0041
 2019TIP3    H127548   5.591   1.438  11.641  3.1209 -1.1045  1.4799
 2019TIP3    H227549   5.571   1.322  11.736 -0.1651 -2.0447 -0.2102
 2020TIP3   OH227550   6.238   2.490   2.515  0.1107 -0.2559  0.1209
 2020TIP3    H127551   6.266   2.505   2.605  2.2688  2.1994 -0.8239
 2020TIP3    H227552   6.300   2.426   2.481  2.3698  2.2776 -0.8454
 2021TIP3   OH227553   6.359   6.175  11.711  0.9253 -0.8429  0.0413
 2021TIP3    H127554   6.324   6.087  11.722  1.3211 -1.6715 -3.8218
 2021TIP3    H227555   6.282   6.228  11.689  1.0401 -0.8435 -0.3630
 2022TIP3   OH227556   4.480   5.934   1.788 -0.7815 -0.5611  0.0681
 2022TIP3    H127557   4.432   5.960   1.709  1.1708 -0.9253 -1.2934
 2022TIP3    H227558   4.556   5.992   1.790  0.5842 -2.2759  0.1916
 2023TIP3   OH227559   2.927   5.989  13.060 -0.1530 -0.1487  0.6199
 2023TIP3    H127560   2.974   5.978  12.977 -0.8167  1.2227  0.0303
 2023TIP3    H227561   2.852   5.929  13.054 -1.6395  1.7600 -0.9165
 2024TIP3   OH227562   3.109   6.372   2.994 -0.3926 -0.6929  0.4296
 2024TIP3    H127563   3.074   6.452   2.953 -0.6589 -0.6496  0.7360
 2024TIP3    H227564   3.202   6.391   3.008 -0.2931 -0.7191 -0.1799
 2025TIP3   OH227565   1.604   4.692   3.985  0.3087 -0.6765  0.4152
 2025TIP3    H127566   1.638   4.780   3.968  1.5909 -0.2980  3.8991
 2025TIP3    H227567   1.669   4.633   3.946 -0.2571 -0.1330 -1.4318
 2026TIP3   OH227568   3.410   0.977  11.154 -0.4304  0.5878 -0.0643
 2026TIP3    H127569   3.366   0.988  11.239  1.3393  0.4721  0.9205
 2026TIP3    H227570   3.342   0.993  11.089 -1.4456  2.4855  1.3670
 2027TIP3   OH227571   1.113   6.084   1.239 -0.1677 -0.3776  0.3096
 2027TIP3    H127572   1.074   6.025   1.175 -0.5999  0.0133  0.2082
 2027TIP3    H227573   1.135   6.028   1.314  0.2938 -0.8261 -0.1543
 2028TIP3   OH227574   2.230   3.974   3.592 -0.2598  0.0988  0.3722
 2028TIP3    H127575   2.260   4.061   3.616  1.4059 -0.5220  0.6947
 2028TIP3    H227576   2.285   3.915   3.644 -1.6419 -1.1427  0.4921
 2029TIP3   OH227577   1.160   4.201   5.102  0.4378 -0.0133  0.2322
 2029TIP3    H127578   1.069   4.230   5.103  0.1486 -0.7136 -1.6538
 2029TIP3    H227579   1.154   4.105   5.098  1.2443 -0.0598  0.0209
 2030TIP3   OH227580   5.761   3.540  13.107 -0.1787  0.2681 -0.6067
 2030TIP3    H127581   5.680   3.536  13.056 -0.4424 -0.2414 -0.1564
 2030TIP3    H227582   5.803   3.621  13.079  0.5904 -0.8787 -2.9844
 2031TIP3   OH227583   1.449   2.724  15.158 -0.5816 -0.0160 -0.2951
 2031TIP3    H127584   1.416   2.668  15.229 -0.1480 -1.5334 -1.2448
 2031TIP3    H227585   1.389   2.707  15.086  0.0510  0.1114 -0.8542
 2032TIP3   OH227586   3.860   6.579   3.065  0.1643  0.0024  0.3834
 2032TIP3    H127587   3.806   6.619   3.133  1.3031  1.4832  0.4389
 2032TIP3    H227588   3.949   6.606   3.085  1.0812 -2.7568  0.5552
 2033TIP3   OH227589   2.937   3.534   1.379 -0.2808  0.5030 -0.1665
 2033TIP3    H127590   2.903   3.623   1.376 -1.2545  0.2014  0.9482
 2033TIP3    H227591   2.872   3.482   1.331 -1.5780 -0.0894  2.0483
 2034TIP3   OH227592   2.279   6.601  10.550  0.4550 -0.0119  0.1592
 2034TIP3    H127593   2.275   6.535  10.481 -2.1490 -2.1285  2.1131
 2034TIP3    H227594   2.348   6.570  10.610  0.4257 -0.0178  0.1906
 2035TIP3   OH227595   3.430   3.904   3.771  0.3291  0.3484  0.5949
 2035TIP3    H127596   3.438   3.994   3.801  1.6616  0.3235  0.3715
 2035TIP3    H227597   3.365   3.908   3.701  0.5830  1.1885  0.3918
 2036TIP3   OH227598   0.714   5.015   3.407 -0.2727  0.2312  0.2436
 2036TIP3    H127599   0.627   5.051   3.394 -0.8421 -1.3373 -0.5977
 2036TIP3    H227600   0.699   4.923   3.432  1.1038  0.4363  2.0429
 2037TIP3   OH227601   2.355   4.091  16.640  0.6755  0.1499  0.4587
 2037TIP3    H127602   2.385   4.000  16.642  0.0444 -0.0940 -0.3286
 2037TIP3    H227603   2.332   4.106  16.548  0.0741  0.8664  0.7140
 2038TIP3   OH227604   6.841   6.335   2.264  0.2771 -0.3856 -0.6194
 2038TIP3    H127605   6.918   6.327   2.321  0.7827 -0.7372 -1.3281
 2038TIP3    H227606   6.770   6.294   2.313  0.4211  0.3806  0.2541
 2039TIP3   OH227607   5.895   1.450  13.580 -0.0928  0.0369  0.7820
 2039TIP3    H127608   5.975   1.426  13.627  0.9085 -2.2781 -1.8313
 2039TIP3    H227609   5.842   1.370  13.580 -0.2366  0.0644 -1.4893
 2040TIP3   OH227610   1.355   5.421   4.551 -0.1800  0.2063 -0.3603
 2040TIP3    H127611   1.387   5.363   4.620  0.4528  0.2224 -0.6350
 2040TIP3    H227612   1.383   5.379   4.469  1.5487  1.6110 -0.5405
 2041TIP3   OH227613   0.105   6.483   3.488  0.6851 -0.7833  0.3831
 2041TIP3    H127614   0.173   6.535   3.531  0.1364 -0.1413  0.4828
 2041TIP3    H227615   0.153   6.410   3.449  1.4238 -0.3860  0.5201
 2042TIP3   OH227616   1.110   2.464  13.611 -0.2619  0.5201 -0.6796
 2042TIP3    H127617   1.133   2.529  13.677  0.4003 -0.2846 -0.0884
 2042TIP3    H227618   1.177   2.396  13.621  0.4063  0.7918 -2.7883
 2043TIP3   OH227619   1.546   2.528  16.448  0.7560  1.0118 -0.1355
 2043TIP3    H127620   1.532   2.614  16.488 -3.3759  0.5913 -0.2649
 2043TIP3    H227621   1.560   2.546  16.355  1.1219  1.5785  0.0270
 2044TIP3   OH227622   3.674   5.649   2.926 -0.3051 -0.5326 -0.4877
 2044TIP3    H127623   3.712   5.706   2.993 -0.0535  0.6810 -1.6137
 2044TIP3    H227624   3.655   5.567   2.972  0.3448  0.0753  0.9311
 2045TIP3   OH227625   3.214   2.772  14.973  0.7291 -0.4009  0.0146
 2045TIP3    H127626   3.308   2.767  14.987  0.5507 -2.3873  0.9303
 2045TIP3    H227627   3.176   2.736  15.054 -0.6587 -3.3488 -1.7711
 2046TIP3   OH227628   5.115   3.498   3.019 -0.3139  0.5436  0.1674
 2046TIP3    H127629   5.097   3.574   3.073 -0.9699  1.6666 -1.5594
 2046TIP3    H227630   5.029   3.464   2.993 -0.0283  0.5152 -0.8021
 2047TIP3   OH227631   1.305   0.772  10.528  0.4852  0.3593  0.3234
 2047TIP3    H127632   1.250   0.757  10.605  3.1245 -0.6582  2.1860
 2047TIP3    H227633   1.332   0.864  10.536  1.1799  0.1126  0.9778
 2048TIP3   OH227634   0.235   3.489  16.175 -0.1949  0.1235 -0.2355
 2048TIP3    H127635   0.149   3.447  16.162  1.1546 -2.6841 -0.8575
 2048TIP3    H227636   0.266   3.506  16.086  0.9102 -1.2505 -0.1474
 2049TIP3   OH227637   2.303   6.106   5.514  0.0171 -0.5568 -0.1578
 2049TIP3    H127638   2.213   6.134   5.498 -0.0139 -0.7815 -0.3824
 2049TIP3    H227639   2.329   6.060   5.434  0.7805  0.6068 -0.6012
 2050TIP3   OH227640   4.417   2.478   3.913 -0.3580  0.1933  0.5762
 2050TIP3    H127641   4.415   2.565   3.874 -2.3123  0.2657  0.7504
 2050TIP3    H227642   4.438   2.420   3.839 -2.2892  0.5101 -0.2855
 2051TIP3   OH227643   3.146   4.972   4.120 -0.2879 -0.4012 -0.4955
 2051TIP3    H127644   3.215   5.028   4.084  1.8236 -3.4001 -1.4535
 2051TIP3    H227645   3.074   4.979   4.057  0.2025  0.6474 -0.9652
 2052TIP3   OH227646   3.675   2.119   0.601 -0.9476 -0.6045  0.3753
 2052TIP3    H127647   3.699   2.110   0.509 -0.2565  0.0301  0.4890
 2052TIP3    H227648   3.580   2.107   0.602 -0.9042 -1.0769 -0.3536
 2053TIP3   OH227649   3.569   3.093  16.566 -0.0916 -0.1491  0.1041
 2053TIP3    H127650   3.505   3.118  16.499  0.2005  0.4432  0.0395
 2053TIP3    H227651   3.644   3.149  16.549  0.4608 -0.8611  0.1651
 2054TIP3   OH227652   0.528   1.370  13.083  0.1602 -0.1694  0.1428
 2054TIP3    H127653   0.541   1.295  13.142 -2.8391 -1.2220 -0.3359
 2054TIP3    H227654   0.543   1.334  12.996 -0.6326 -0.0761 -0.0418
 2055TIP3   OH227655   2.441   4.861  15.001 -0.4894 -0.0316 -0.5305
 2055TIP3    H127656   2.415   4.776  14.965  0.5471 -0.8517  0.5877
 2055TIP3    H227657   2.537   4.859  14.999 -0.3969  0.1646  1.5603
 2056TIP3   OH227658   4.068   4.192   2.129 -0.4444  0.2081  0.4382
 2056TIP3    H127659   4.079   4.272   2.077 -0.8838  0.9124  1.3859
 2056TIP3    H227660   3.982   4.203   2.171  0.8597  0.8346  3.2133
 2057TIP3   OH227661   3.058   1.288   2.694  0.2520  0.1189 -0.0285
 2057TIP3    H127662   3.091   1.377   2.704 -1.5808  0.8455 -0.1326
 2057TIP3    H227663   2.963   1.298   2.685 -0.1560 -1.9359  1.3270
 2058TIP3   OH227664   2.375   1.058  15.684  0.0869 -0.2359  0.1387
 2058TIP3    H127665   2.462   1.082  15.714  0.3447 -0.7212 -0.2065
 2058TIP3    H227666   2.318   1.129  15.714  0.7260  0.4944 -0.3430
 2059TIP3   OH227667   4.368   0.391  15.864 -0.2457 -0.0281  0.3776
 2059TIP3    H127668   4.398   0.319  15.809 -0.3213 -0.0919  0.4178
 2059TIP3    H227669   4.310   0.349  15.928 -0.9000  0.1758 -0.0766
 2060TIP3   OH227670   6.349   4.601  13.147 -0.2838  0.0314 -0.1551
 2060TIP3    H127671   6.397   4.682  13.131 -0.3756  0.2665  0.6871
 2060TIP3    H227672   6.262   4.629  13.174 -0.9404 -0.3993 -1.7342
 2061TIP3   OH227673   4.113   0.596   5.773  0.4741  0.1589  0.3605
 2061TIP3    H127674   4.106   0.691   5.781  3.5326  0.3331  2.8624
 2061TIP3    H227675   4.029   0.563   5.805 -0.2604  2.0041  0.4502
 2062TIP3   OH227676   2.738   6.477   2.555 -0.4640 -0.3418  0.0806
 2062TIP3    H127677   2.724   6.494   2.648  1.8907  0.5805  0.3419
 2062TIP3    H227678   2.714   6.559   2.512 -0.0470 -0.2256  0.0644
 2063TIP3   OH227679   4.697   0.150   4.519 -0.3807 -0.0718  0.1174
 2063TIP3    H127680   4.636   0.091   4.564 -0.4653 -0.2543 -0.2349
 2063TIP3    H227681   4.783   0.114   4.539 -0.2836  0.9773  1.7703
 2064TIP3   OH227682   0.648   1.360   3.188  0.2303  0.5273 -0.0288
 2064TIP3    H127683   0.638   1.276   3.233 -0.8417  1.1409  0.9532
 2064TIP3    H227684   0.705   1.411   3.245  0.1762  0.7668 -0.1883
 2065TIP3   OH227685   5.385   3.767  13.122 -0.0585 -0.2064 -0.4029
 2065TIP3    H127686   5.456   3.719  13.079 -0.5556 -1.9437  0.6099
 2065TIP3    H227687   5.306   3.739  13.076 -0.2161  0.8682 -0.8067
 2066TIP3   OH227688   6.015   1.573  13.057 -0.0480 -0.8044  0.2157
 2066TIP3    H127689   6.076   1.611  13.121  1.0276  0.0321 -1.2470
 2066TIP3    H227690   5.994   1.645  12.998 -0.6499 -1.6658 -0.6443
 2067TIP3   OH227691   0.735   3.843  15.186 -0.4963  0.1771 -0.1053
 2067TIP3    H127692   0.823   3.864  15.218 -0.4805 -1.3045  0.8879
 2067TIP3    H227693   0.745   3.761  15.138 -1.4052 -0.2372  0.3927
 2068TIP3   OH227694   3.312   4.039  11.779 -0.0127 -0.3273  0.0894
 2068TIP3    H127695   3.367   3.969  11.743 -0.1333 -0.5855  0.4009
 2068TIP3    H227696   3.222   4.006  11.769 -0.0548 -0.3373  0.4863
 2069TIP3   OH227697   3.288   2.949   4.077 -0.3503  0.1116  0.2686
 2069TIP3    H127698   3.250   2.887   4.015 -0.2685  0.9638 -0.6489
 2069TIP3    H227699   3.216   3.006   4.101 -0.4975 -0.4967  1.3482
 2070TIP3   OH227700   1.345   0.270   3.826  0.0386  0.5577 -0.0830
 2070TIP3    H127701   1.269   0.296   3.879 -1.4008 -1.0909 -1.1945
 2070TIP3    H227702   1.352   0.337   3.758 -1.5810 -0.1527 -1.0079
 2071TIP3   OH227703   6.159   1.903   5.151  0.1429  0.2074  0.9838
 2071TIP3    H127704   6.223   1.869   5.213  1.1186 -2.2245 -1.1886
 2071TIP3    H227705   6.078   1.855   5.171  0.5385 -0.7991  0.2346
 2072TIP3   OH227706   3.199   2.608  11.347  0.4943  0.1239  0.1336
 2072TIP3    H127707   3.167   2.521  11.370 -0.0477  0.8205  2.2066
 2072TIP3    H227708   3.267   2.592  11.281 -0.2899 -1.7679 -0.2858
 2073TIP3   OH227709   0.683   5.945  14.358  0.1786  0.1363  0.2531
 2073TIP3    H127710   0.703   5.975  14.446  1.3448 -1.4306  0.5516
 2073TIP3    H227711   0.680   6.026  14.306  1.4817  0.9327  1.3443
 2074TIP3   OH227712   5.253   0.158   2.058 -0.5831  0.2494  0.5671
 2074TIP3    H127713   5.273   0.250   2.077 -0.3756  0.3825 -0.2453
 2074TIP3    H227714   5.199   0.129   2.132  0.5218  0.6113  1.5628
 2075TIP3   OH227715   6.113   0.995  12.734 -0.0065 -0.8128 -0.8535
 2075TIP3    H127716   6.107   1.014  12.828  0.5395  0.8891 -1.1270
 2075TIP3    H227717   6.124   0.900  12.729 -0.7714 -1.0229  0.7600
 2076TIP3   OH227718   2.269   3.059   4.599 -0.2419 -0.2610  0.5037
 2076TIP3    H127719   2.293   3.114   4.525 -0.6428 -0.4343  0.2463
 2076TIP3    H227720   2.345   3.002   4.612 -0.6353 -1.0470 -0.5299
 2077TIP3   OH227721   5.075   4.345  15.854 -0.0554  0.1549  0.3404
 2077TIP3    H127722   5.003   4.353  15.916 -0.2525 -0.1795  0.1568
 2077TIP3    H227723   5.120   4.265  15.880 -1.7761 -1.5880 -1.6026
 2078TIP3   OH227724   0.965   1.229  14.099 -0.0452 -0.1198  0.0406
 2078TIP3    H127725   0.971   1.206  14.006  0.7558 -2.5591  0.6111
 2078TIP3    H227726   0.876   1.207  14.124 -0.1600  0.2235 -0.0545
 2079TIP3   OH227727   6.637   1.161   3.649  0.0477  0.9680  0.0230
 2079TIP3    H127728   6.652   1.252   3.671  1.3969  0.5296  0.9895
 2079TIP3    H227729   6.663   1.112   3.727 -0.9774 -0.2305 -0.3500
 2080TIP3   OH227730   3.844   6.840  13.840  0.9778  0.0654 -0.2033
 2080TIP3    H127731   3.777   6.888  13.889  1.0172  1.7058 -1.6584
 2080TIP3    H227732   3.802   6.818  13.757  0.6493 -3.3636  0.7223
 2081TIP3   OH227733   5.850   6.464  14.480 -0.0842  0.0773  0.1310
 2081TIP3    H127734   5.788   6.535  14.500  2.8355  2.7098  0.6722
 2081TIP3    H227735   5.885   6.438  14.565 -2.5229 -3.7134  0.2098
 2082TIP3   OH227736   5.133   1.901  13.262 -0.3178  0.1489 -0.2951
 2082TIP3    H127737   5.098   1.874  13.178 -0.3061  1.3539 -0.7092
 2082TIP3    H227738   5.228   1.899  13.251 -0.3219  0.6996 -0.4461
 2083TIP3   OH227739   6.656   3.991  11.935  0.4474 -0.2517  0.0701
 2083TIP3    H127740   6.654   3.897  11.952  0.3953  0.2726  3.5438
 2083TIP3    H227741   6.723   4.025  11.994  0.6962  1.9041 -1.3242
 2084TIP3   OH227742   0.649   5.889   2.519 -0.0417 -0.0636  0.0583
 2084TIP3    H127743   0.723   5.836   2.487 -1.5281 -1.2370 -1.6619
 2084TIP3    H227744   0.679   5.979   2.511  1.1330 -0.5024 -0.8232
 2085TIP3   OH227745   5.424   5.050   5.568 -0.1694 -0.1241 -0.0469
 2085TIP3    H127746   5.375   4.975   5.532 -0.9246  0.2366  0.1987
 2085TIP3    H227747   5.427   5.034   5.662 -0.5481  0.2632  0.0381
 2086TIP3   OH227748   4.211   3.808   1.589  0.4922  0.3492  0.2850
 2086TIP3    H127749   4.272   3.878   1.565 -0.1507  0.6585 -0.5170
 2086TIP3    H227750   4.145   3.810   1.519 -0.7257  0.3959  1.4063
 2087TIP3   OH227751   0.782   5.982  15.395  1.0584  0.5508  0.0969
 2087TIP3    H127752   0.718   5.927  15.441  0.3248 -0.1169 -1.6239
 2087TIP3    H227753   0.865   5.963  15.438  0.3663  0.2744  1.3840
 2088TIP3   OH227754   4.695   3.869  15.358 -0.1828  0.2103 -0.0875
 2088TIP3    H127755   4.776   3.876  15.308  0.5717  1.5797  1.2230
 2088TIP3    H227756   4.633   3.827  15.299  1.5766 -1.2344 -1.0013
 2089TIP3   OH227757   0.782   2.698  16.405  0.5642  0.3021 -0.6078
 2089TIP3    H127758   0.721   2.771  16.395  0.3574  0.2234  0.0325
 2089TIP3    H227759   0.857   2.736  16.450  0.0408 -0.0847  0.6273
 2090TIP3   OH227760   4.057   4.914   4.033 -0.7821 -0.0226  0.4885
 2090TIP3    H127761   4.009   4.858   3.972  0.3087  0.1682 -0.5779
 2090TIP3    H227762   4.072   4.995   3.984  3.0117 -1.0466 -0.3039
 2091TIP3   OH227763   6.307   0.486  15.506 -0.3394 -0.8721  0.3199
 2091TIP3    H127764   6.374   0.428  15.470  0.5901 -0.1814  0.9092
 2091TIP3    H227765   6.269   0.436  15.579 -1.0156 -1.5642 -0.4786
 2092TIP3   OH227766   5.418   5.011   3.236  0.0801  0.0234  0.2199
 2092TIP3    H127767   5.336   5.007   3.286  0.7883 -0.0801  1.4087
 2092TIP3    H227768   5.484   4.979   3.297  0.8074 -1.2310 -1.1743
 2093TIP3   OH227769   5.382   2.014   1.525  0.7814  0.3885  0.2442
 2093TIP3    H127770   5.415   2.077   1.589  2.6816 -0.0982 -0.1747
 2093TIP3    H227771   5.392   1.929   1.569  2.0462  0.0590 -0.6108
 2094TIP3   OH227772   0.656   5.043   3.838  0.0448  0.0146 -0.5695
 2094TIP3    H127773   0.726   5.052   3.774  0.7229  0.2264  0.1846
 2094TIP3    H227774   0.700   5.014   3.918 -1.1583 -3.6026 -1.0324
 2095TIP3   OH227775   1.032   4.732   1.335  0.7421  0.3371 -0.0583
 2095TIP3    H127776   1.092   4.664   1.366  1.1826  0.3582 -0.8370
 2095TIP3    H227777   0.945   4.695   1.350  0.9341  0.3576  1.1941
 2096TIP3   OH227778   1.015   3.209  16.179  0.3425  0.0236 -0.5546
 2096TIP3    H127779   1.067   3.273  16.131  1.7133 -0.8712 -0.3049
 2096TIP3    H227780   0.936   3.257  16.205 -0.3574  0.6089 -3.4658
 2097TIP3   OH227781   1.466   0.826  13.874 -0.2594  0.1320 -0.2132
 2097TIP3    H127782   1.540   0.883  13.851 -0.9106  1.6985  1.3097
 2097TIP3    H227783   1.498   0.774  13.948 -0.2130 -0.2529 -0.5033
 2098TIP3   OH227784   5.332   5.490  16.172 -0.6158 -0.1788 -0.0701
 2098TIP3    H127785   5.357   5.503  16.263  0.3477 -0.2636 -0.3204
 2098TIP3    H227786   5.347   5.397  16.156 -0.9291 -0.1959 -0.2830
 2099TIP3   OH227787   4.185   2.488  12.954  0.0827  0.0225  0.6121
 2099TIP3    H127788   4.153   2.409  12.912  0.2830  0.1378  0.2378
 2099TIP3    H227789   4.270   2.464  12.991 -0.8982 -0.5927  2.5739
 2100TIP3   OH227790   4.365   6.714  12.372  0.7763  0.2470  0.3604
 2100TIP3    H127791   4.444   6.768  12.383  0.4235  0.7876  0.2671
 2100TIP3    H227792   4.295   6.777  12.357 -0.0103 -0.1279  2.2047
 2101TIP3   OH227793   6.829   5.475   1.713  0.2203  0.6151 -0.3184
 2101TIP3    H127794   6.768   5.406   1.686 -0.5354  0.3085  1.9757
 2101TIP3    H227795   6.915   5.434   1.710  0.1062  0.4301 -1.6085
 2102TIP3   OH227796   2.873   2.920  12.331 -0.2136 -0.9985  0.1425
 2102TIP3    H127797   2.864   2.919  12.426 -0.1802 -0.7152  0.1511
 2102TIP3    H227798   2.855   2.830  12.303 -0.5078 -1.0149  0.3888
 2103TIP3   OH227799   2.805   0.788  11.432 -0.5307 -0.4322  0.1280
 2103TIP3    H127800   2.745   0.817  11.501 -0.7211  1.4255 -0.7410
 2103TIP3    H227801   2.777   0.699  11.412 -0.0769 -1.2967  2.8301
 2104TIP3   OH227802   2.351   5.802   0.954 -0.0402 -0.2182 -0.3712
 2104TIP3    H127803   2.283   5.840   0.899  0.0586 -0.6344 -0.7790
 2104TIP3    H227804   2.428   5.796   0.898 -0.2013 -1.5339 -0.4916
 2105TIP3   OH227805   1.785   3.228   0.824 -0.5502  0.4638  0.1422
 2105TIP3    H127806   1.873   3.209   0.854 -0.8512 -0.9237  0.2267
 2105TIP3    H227807   1.760   3.151   0.771 -1.8652  0.6118  0.5007
 2106TIP3   OH227808   6.563   5.634  12.704  0.1365  0.0575  0.0010
 2106TIP3    H127809   6.537   5.607  12.792  0.4274  1.2749  0.4721
 2106TIP3    H227810   6.654   5.664  12.714  1.1199 -2.2361 -1.2228
 2107TIP3   OH227811   0.588   4.288   4.284 -1.0157  0.0011  0.0637
 2107TIP3    H127812   0.602   4.200   4.318 -0.0042  0.7550  1.7207
 2107TIP3    H227813   0.666   4.337   4.311 -2.9298  2.2077  2.0600
 2108TIP3   OH227814   2.853   2.365   6.471 -0.1703 -0.5936  0.3040
 2108TIP3    H127815   2.864   2.353   6.565 -0.8127 -0.5230  0.3959
 2108TIP3    H227816   2.772   2.416   6.463  0.8067  0.9572 -0.2112
 2109TIP3   OH227817   1.338   2.844  13.294 -0.2696 -0.6529  0.1064
 2109TIP3    H127818   1.383   2.888  13.222 -1.8187  1.6002  0.3876
 2109TIP3    H227819   1.398   2.850  13.368 -1.3531  3.7338  0.9289
 2110TIP3   OH227820   1.038   3.848  15.117  0.1660 -0.1784  0.4376
 2110TIP3    H127821   1.088   3.767  15.113  1.9302  0.8147  0.9087
 2110TIP3    H227822   1.093   3.912  15.072 -1.9871  0.4276 -1.5468
 2111TIP3   OH227823   3.718   6.546  15.695 -0.4253  0.0366  0.2778
 2111TIP3    H127824   3.646   6.589  15.649  0.2659  0.5024 -0.3876
 2111TIP3    H227825   3.775   6.617  15.723  0.5161 -0.4005 -0.4705
 2112TIP3   OH227826   4.576   2.745  13.440 -0.1375  0.2414  0.1133
 2112TIP3    H127827   4.482   2.752  13.423  0.0589  2.8749 -0.2770
 2112TIP3    H227828   4.583   2.748  13.535 -0.4500 -0.5727  0.1758
 2113TIP3   OH227829   6.730   1.067   3.036  0.2801  1.3939 -0.0304
 2113TIP3    H127830   6.760   1.053   2.946 -0.2275  0.1295 -0.0320
 2113TIP3    H227831   6.797   1.025   3.090 -0.3544  0.4723  0.0696
 2114TIP3   OH227832   0.301   6.398  13.118 -0.0893 -0.3944 -0.2562
 2114TIP3    H127833   0.235   6.335  13.144 -0.8145  0.1339 -0.7633
 2114TIP3    H227834   0.261   6.484  13.135  1.5764  0.0047  2.2500
 2115TIP3   OH227835   4.062   0.580  12.274  0.5868 -0.2762  0.1641
 2115TIP3    H127836   4.127   0.597  12.341  1.1507 -1.4986 -0.0339
 2115TIP3    H227837   4.104   0.517  12.215 -0.0268  0.4695 -1.1243
 2116TIP3   OH227838   5.508   1.127  15.703 -0.2579  0.2124 -0.1219
 2116TIP3    H127839   5.506   1.037  15.736 -1.8476  0.1238 -0.3660
 2116TIP3    H227840   5.575   1.126  15.635 -0.8167 -1.0162 -0.6948
 2117TIP3   OH227841   0.358   1.491   5.803 -0.1252 -0.1701  0.3922
 2117TIP3    H127842   0.417   1.546   5.855  1.1794 -1.0946 -0.0646
 2117TIP3    H227843   0.297   1.553   5.764  0.4456  0.8076  1.0011
 2118TIP3   OH227844   4.373   0.660  11.161  0.5969 -0.1209  0.5352
 2118TIP3    H127845   4.290   0.616  11.176  0.9538 -0.8032  0.5617
 2118TIP3    H227846   4.405   0.682  11.249 -0.2183  1.4385  0.4736
 2119TIP3   OH227847   4.255   4.777   5.053 -0.5462  0.1373  0.5484
 2119TIP3    H127848   4.177   4.726   5.073 -0.8778  1.0408  1.6982
 2119TIP3    H227849   4.222   4.858   5.015 -0.0121 -0.5649 -1.5938
 2120TIP3   OH227850   0.587   0.593   0.493  0.1645 -0.6151  0.3567
 2120TIP3    H127851   0.658   0.629   0.440  1.4157  0.7053  2.7929
 2120TIP3    H227852   0.554   0.519   0.441  1.2216  0.6175 -2.2547
 2121TIP3   OH227853   2.813   4.339  11.594 -0.2983 -0.0481  0.1417
 2121TIP3    H127854   2.870   4.290  11.536  1.0838  1.8775 -0.2256
 2121TIP3    H227855   2.823   4.297  11.679  2.9744  1.0940  0.4711
 2122TIP3   OH227856   0.856   0.980   1.604  0.6121 -0.0762 -0.1241
 2122TIP3    H127857   0.905   0.977   1.521 -0.1530  0.0927 -0.5965
 2122TIP3    H227858   0.776   0.931   1.586 -0.2328  1.2051  0.0481
 2123TIP3   OH227859   5.716   4.330  10.214 -0.0479  0.4146 -0.2319
 2123TIP3    H127860   5.698   4.405  10.157  0.4801 -1.8108 -3.5881
 2123TIP3    H227861   5.631   4.306  10.250  0.1022  4.2035  3.4091
 2124TIP3   OH227862   6.673   2.443  10.862 -0.1449  0.3030  0.1864
 2124TIP3    H127863   6.755   2.443  10.812 -0.6679 -0.6309 -0.7116
 2124TIP3    H227864   6.700   2.463  10.952  1.0225  0.3806 -0.1613
 2125TIP3   OH227865   5.840   6.556   3.753  0.5124 -0.0487  0.3474
 2125TIP3    H127866   5.757   6.509   3.749 -0.3231  1.1119  2.7201
 2125TIP3    H227867   5.901   6.500   3.704 -1.2025 -1.8871  0.1861
 2126TIP3   OH227868   4.683   2.650   5.685  0.1134  0.1381 -0.3591
 2126TIP3    H127869   4.685   2.746   5.686 -0.5237  0.1660  1.0866
 2126TIP3    H227870   4.643   2.627   5.769 -4.5070 -1.2531 -2.6080
 2127TIP3   OH227871   5.762   4.017   0.449 -0.0860 -0.0056  0.0473
 2127TIP3    H127872   5.809   4.097   0.470  0.0290  0.2811 -1.2042
 2127TIP3    H227873   5.685   4.018   0.506 -0.1303  1.0366 -0.0169
 2128TIP3   OH227874   4.027   2.834   4.673  0.2727  0.0355  0.7357
 2128TIP3    H127875   4.120   2.812   4.682  0.7504  1.3292 -0.5354
 2128TIP3    H227876   4.020   2.924   4.707  0.1672  1.1495 -1.9806
 2129TIP3   OH227877   0.066   0.396   3.698 -0.3215 -0.0580 -0.5424
 2129TIP3    H127878   0.018   0.376   3.778  1.7779 -0.9838  0.5858
 2129TIP3    H227879   0.057   0.490   3.687 -2.1275 -0.1712 -0.2472
 2130TIP3   OH227880   5.978   6.739  14.545  0.4626 -0.0164  0.0527
 2130TIP3    H127881   6.031   6.738  14.465 -0.7478 -0.5813 -0.7812
 2130TIP3    H227882   5.903   6.795  14.523  1.3716  1.9910  1.7032
 2131TIP3   OH227883   5.626   4.395   5.334 -0.4126 -0.4364  0.2611
 2131TIP3    H127884   5.658   4.485   5.335  1.2016 -0.9796  0.1018
 2131TIP3    H227885   5.559   4.395   5.266  0.5986  0.3233 -0.7710
 2132TIP3   OH227886   4.913   0.467   4.981 -0.2177  0.0093  0.7481
 2132TIP3    H127887   4.842   0.514   5.026 -0.0341  0.4156  0.6148
 2132TIP3    H227888   4.868   0.400   4.929 -0.5570  0.7314  0.0973
 2133TIP3   OH227889   4.901   4.508   2.857 -0.8486  0.9127  0.2392
 2133TIP3    H127890   4.903   4.541   2.947 -1.4328  1.9240 -0.1106
 2133TIP3    H227891   4.983   4.537   2.819  0.2026 -0.9973  0.9345
 2134TIP3   OH227892   2.442   5.558  16.236  0.1037 -0.3851 -0.4462
 2134TIP3    H127893   2.406   5.500  16.303  0.8475  0.2100  0.4981
 2134TIP3    H227894   2.537   5.547  16.243  0.2077  0.0277 -1.0959
 2135TIP3   OH227895   2.711   4.645  15.469  0.0890 -0.0110 -0.8372
 2135TIP3    H127896   2.652   4.705  15.514 -0.1653 -0.6627 -0.2756
 2135TIP3    H227897   2.705   4.668  15.377 -0.1103  0.7267 -0.6416
 2136TIP3   OH227898   1.549   1.123  16.552  0.5256 -0.3998  0.1982
 2136TIP3    H127899   1.568   1.096  16.462  2.7721  1.0762  0.1600
 2136TIP3    H227900   1.540   1.218  16.548 -1.4582 -0.4797  1.2529
 2137TIP3   OH227901   6.632   4.734  15.390  0.3085  0.3130  0.2905
 2137TIP3    H127902   6.723   4.745  15.416 -0.0840 -1.1330  2.5572
 2137TIP3    H227903   6.621   4.639  15.379 -0.3259  0.6251 -2.5872
 2138TIP3   OH227904   3.815   6.694  12.228 -0.0749  0.5579 -0.1783
 2138TIP3    H127905   3.853   6.782  12.230  2.1015 -0.1912 -2.3148
 2138TIP3    H227906   3.834   6.658  12.314  2.0087  1.1206 -0.3250
 2139TIP3   OH227907   2.654   1.162  13.544 -0.2595  0.9875 -0.1285
 2139TIP3    H127908   2.733   1.141  13.493  0.0355  1.7641 -0.0065
 2139TIP3    H227909   2.586   1.174  13.478 -0.3397  0.0824 -0.2233
 2140TIP3   OH227910   6.309   4.605  15.185  0.5530 -0.0654 -0.4232
 2140TIP3    H127911   6.338   4.514  15.186 -3.2689 -1.4772 -0.6807
 2140TIP3    H227912   6.282   4.623  15.275  2.1216  1.1758 -0.1742
 2141TIP3   OH227913   5.020   1.441  13.022  0.2938  0.4753  0.6341
 2141TIP3    H127914   5.094   1.489  12.985  0.0732 -0.2322 -0.8060
 2141TIP3    H227915   5.002   1.372  12.958 -1.3842  0.4179  1.1235
 2142TIP3   OH227916   6.031   5.884   1.984 -0.5011  0.7048  0.1346
 2142TIP3    H127917   6.011   5.875   2.078  1.6560 -0.0335  0.5718
 2142TIP3    H227918   5.960   5.836   1.941  0.6385 -2.6772  1.6532
 2143TIP3   OH227919   1.468   6.310   5.136  0.1749 -0.1961  0.2186
 2143TIP3    H127920   1.483   6.216   5.150 -0.6061 -0.5575 -1.1486
 2143TIP3    H227921   1.415   6.337   5.211 -2.3888 -1.6400 -0.9084
 2144TIP3   OH227922   6.671   1.029   0.509 -0.0786  0.0211  0.3431
 2144TIP3    H127923   6.722   1.051   0.431 -1.3038 -0.2931 -0.5866
 2144TIP3    H227924   6.580   1.050   0.485 -0.6390 -1.2084  1.2524
 2145TIP3   OH227925   0.949   3.468   0.158  0.2766  0.7684  0.0266
 2145TIP3    H127926   0.877   3.529   0.142 -0.7433 -1.0128 -3.0219
 2145TIP3    H227927   0.992   3.502   0.237 -2.0608  3.5933  0.2665
 2146TIP3   OH227928   5.915   6.214   2.247 -0.2076 -0.5426  0.4275
 2146TIP3    H127929   5.844   6.207   2.184 -1.1113  0.2677  1.3107
 2146TIP3    H227930   5.879   6.178   2.328 -0.6988  2.4025  1.6707
 2147TIP3   OH227931   5.766   4.294  13.660 -0.7982 -0.2765 -0.0548
 2147TIP3    H127932   5.804   4.273  13.745  0.6920  1.2902 -0.2692
 2147TIP3    H227933   5.692   4.235  13.651 -1.9267  0.5124  2.9823
 2148TIP3   OH227934   5.920   4.079  14.968 -0.0445  0.6032 -0.2600
 2148TIP3    H127935   5.884   4.165  14.946 -1.2501  1.0301  2.8883
 2148TIP3    H227936   5.904   4.070  15.062  0.9531 -2.6630 -0.2991
 2149TIP3   OH227937   1.834   4.470  15.232 -0.0287 -0.2480 -0.2740
 2149TIP3    H127938   1.922   4.440  15.209  0.3657  0.2195  0.5725
 2149TIP3    H227939   1.775   4.410  15.185  0.7413 -1.0001 -0.3052
 2150TIP3   OH227940   3.946   4.472   3.926  0.2566 -0.2126  0.2969
 2150TIP3    H127941   3.958   4.492   4.019  0.4882  3.9214 -0.4370
 2150TIP3    H227942   4.034   4.458   3.893  0.2972 -0.3605  0.4672
 2151TIP3   OH227943   5.495   6.381  14.608  0.2974 -0.1950  0.1088
 2151TIP3    H127944   5.527   6.311  14.551 -1.0235 -0.7134 -0.0272
 2151TIP3    H227945   5.535   6.461  14.573  0.9678 -0.7375 -0.3979
 2152TIP3   OH227946   3.212   6.057  14.988 -0.0230  0.4761  0.1001
 2152TIP3    H127947   3.221   5.981  14.930  0.6263 -0.6121  1.5671
 2152TIP3    H227948   3.130   6.043  15.034  0.8162 -0.1797  1.4749
 2153TIP3   OH227949   3.157   3.152   6.556  0.6789  0.5525  0.6290
 2153TIP3    H127950   3.159   3.111   6.643  2.4468  1.4103  1.0475
 2153TIP3    H227951   3.132   3.081   6.497  1.1298 -0.4860  1.6334
 2154TIP3   OH227952   1.021   2.976  13.407  0.4430 -0.6035  0.1742
 2154TIP3    H127953   1.078   3.024  13.347  0.1762 -0.5050 -0.0044
 2154TIP3    H227954   0.945   3.033  13.418 -0.9785 -1.9738 -1.8844
 2155TIP3   OH227955   0.128   4.508   5.450 -0.2599 -0.0591 -0.7050
 2155TIP3    H127956   0.138   4.491   5.357 -2.1430  1.2996 -1.2199
 2155TIP3    H227957   0.201   4.566   5.473  1.6214 -2.2771 -0.7011
 2156TIP3   OH227958   1.451   4.859  15.476  0.4003 -0.2370  0.4887
 2156TIP3    H127959   1.438   4.802  15.400 -0.6093 -1.3326  1.4458
 2156TIP3    H227960   1.365   4.900  15.490  1.2203  1.9857 -0.4799
 2157TIP3   OH227961   6.211   3.211   5.883 -0.2190  0.1192  0.5248
 2157TIP3    H127962   6.192   3.121   5.857 -0.8412  0.5610 -0.6071
 2157TIP3    H227963   6.139   3.263   5.847  1.0514  1.3166 -0.4261
 2158TIP3   OH227964   3.285   1.695  11.552  0.5975 -0.1684  0.1044
 2158TIP3    H127965   3.216   1.747  11.512 -1.5194 -3.8667 -1.5961
 2158TIP3    H227966   3.367   1.738  11.526 -0.9243  1.5486 -2.1959
 2159TIP3   OH227967   4.353   4.599   4.404  0.7025  0.5783 -0.2837
 2159TIP3    H127968   4.262   4.584   4.430  0.8221 -0.1601 -0.2684
 2159TIP3    H227969   4.350   4.678   4.351 -0.2457 -0.4139 -1.7897
 2160TIP3   OH227970   5.554   4.886  13.785  0.0046  0.1594 -0.1523
 2160TIP3    H127971   5.515   4.939  13.854  2.2085 -0.0105  1.3423
 2160TIP3    H227972   5.558   4.944  13.709 -0.6583  1.0185  0.4534
 2161TIP3   OH227973   2.990   0.119   4.271 -0.2402 -0.3963 -0.1382
 2161TIP3    H127974   3.010   0.157   4.186 -0.8993 -0.3360 -0.2668
 2161TIP3    H227975   2.992   0.024   4.256  1.5498 -0.4462  0.2159
 2162TIP3   OH227976   1.497   5.697  12.779  0.1367  0.0352  0.4987
 2162TIP3    H127977   1.564   5.642  12.737 -0.7128 -0.2119 -0.5737
 2162TIP3    H227978   1.456   5.640  12.844  0.9018  0.1663  1.1167
 2163TIP3   OH227979   6.390   1.458  12.525 -0.1037  0.7107  0.3853
 2163TIP3    H127980   6.335   1.416  12.459 -1.3443  0.0954  1.7503
 2163TIP3    H227981   6.439   1.524  12.476 -1.2235  0.5251 -1.0904
 2164TIP3   OH227982   2.662   5.958  16.083  0.0163 -0.2938 -0.2793
 2164TIP3    H127983   2.690   5.884  16.029  1.6913  1.2341 -1.5816
 2164TIP3    H227984   2.619   5.916  16.158  1.5463 -2.6308 -0.5885
 2165TIP3   OH227985   5.154   2.105   2.966  0.2215 -0.7363  0.8110
 2165TIP3    H127986   5.186   2.021   2.933  0.6416 -0.7788  1.3199
 2165TIP3    H227987   5.221   2.168   2.941  1.3890 -1.0254  3.0004
 2166TIP3   OH227988   4.043   2.978   4.258 -0.1613 -0.8347 -0.6362
 2166TIP3    H127989   3.969   3.009   4.311  0.6017 -2.1638  1.3603
 2166TIP3    H227990   4.037   3.027   4.176  0.4783  3.9075  1.8024
 2167TIP3   OH227991   2.443   2.845   2.440  0.3462  0.4791  0.3420
 2167TIP3    H127992   2.518   2.885   2.484 -0.0577  2.1272 -0.4022
 2167TIP3    H227993   2.477   2.817   2.355  0.0004  1.7645 -0.2320
 2168TIP3   OH227994   3.066   0.822  13.113  0.2889  0.0227  0.6636
 2168TIP3    H127995   3.036   0.839  13.024 -0.5947 -1.9819  0.5141
 2168TIP3    H227996   2.989   0.838  13.168  0.9962  1.8559  1.1813
 2169TIP3   OH227997   2.135   3.399   5.333  0.2158  0.2310 -0.2502
 2169TIP3    H127998   2.224   3.363   5.334  0.8854  1.8432  0.4220
 2169TIP3    H227999   2.126   3.445   5.416 -1.7567 -1.0004  0.3073
 2170TIP3   OH228000   4.450   1.410  11.720  0.2806  0.3569 -0.4506
 2170TIP3    H128001   4.461   1.500  11.689 -2.9196  0.1740 -2.6045
 2170TIP3    H228002   4.370   1.412  11.773  0.1377 -1.2057 -0.5509
 2171TIP3   OH228003   1.250   3.328   4.550  0.0947 -0.4181  0.2143
 2171TIP3    H128004   1.240   3.272   4.473 -1.4306  0.6712 -0.4515
 2171TIP3    H228005   1.160   3.344   4.579  0.5985  0.1444  1.5145
 2172TIP3   OH228006   0.084   5.063   5.619  0.1756 -0.0470 -0.2636
 2172TIP3    H128007   0.072   4.977   5.660 -1.0084  0.0830 -0.3104
 2172TIP3    H228008   0.050   5.125   5.683 -2.1049  0.1363 -1.5311
 2173TIP3   OH228009   0.217   4.623   4.105  0.4470 -0.5807  0.5471
 2173TIP3    H128010   0.261   4.708   4.112 -1.5939  0.7678 -1.5499
 2173TIP3    H228011   0.128   4.640   4.136 -0.9317 -1.0160 -2.7560
 2174TIP3   OH228012   5.285   1.954   0.059 -0.1910 -0.1650  0.3698
 2174TIP3    H128013   5.209   2.005   0.084  0.5984  1.3158 -0.1292
 2174TIP3    H228014   5.342   1.956   0.136  0.3512  0.7345 -0.0388
 2175TIP3   OH228015   4.225   3.997  15.425 -0.7002  0.0357  0.0724
 2175TIP3    H128016   4.212   3.925  15.487 -0.6842  0.6415  0.8032
 2175TIP3    H228017   4.181   4.072  15.466  1.1119  0.9886  0.4203
 2176TIP3   OH228018   3.623   1.762  13.984  0.1004  0.0154 -0.0006
 2176TIP3    H128019   3.685   1.832  13.968 -0.5575  0.4632 -0.6553
 2176TIP3    H228020   3.545   1.806  14.018 -0.9010 -0.1634 -1.8916
 2177TIP3   OH228021   6.420   5.977  12.967  0.2046 -0.0344  0.4573
 2177TIP3    H128022   6.367   5.902  12.942 -0.6170  0.0512  1.8682
 2177TIP3    H228023   6.511   5.945  12.962 -0.1073 -0.9688  0.5836
 2178TIP3   OH228024   1.436   1.515  17.079  0.3165 -0.0049  0.4129
 2178TIP3    H128025   1.348   1.534  17.046  0.4449  0.4395  0.3207
 2178TIP3    H228026   1.428   1.521  17.174 -0.3049 -2.3292  0.5878
 2179TIP3   OH228027   2.089   3.653   4.046  0.3444 -0.3085  0.4216
 2179TIP3    H128028   2.138   3.579   4.011  0.8737  0.6087 -0.8641
 2179TIP3    H228029   1.998   3.634   4.026  0.5481 -0.2848 -0.5891
 2180TIP3   OH228030   5.518   6.141  16.431  0.4288 -0.0213  0.0783
 2180TIP3    H128031   5.558   6.076  16.489 -0.0893  0.1062  0.5802
 2180TIP3    H228032   5.432   6.159  16.470 -1.3205 -2.2552 -2.3808
 2181TIP3   OH228033   1.966   0.026   0.031 -0.1008  0.0672 -0.3042
 2181TIP3    H128034   1.931   0.093  -0.028 -0.6317 -1.6203 -1.9917
 2181TIP3    H228035   1.923   0.044   0.115 -0.4357  1.6516 -0.7699
 2182TIP3   OH228036   3.358   0.949  16.248 -0.1808 -0.8045 -0.1740
 2182TIP3    H128037   3.402   1.009  16.188  2.0294 -1.3243  0.8279
 2182TIP3    H228038   3.266   0.975  16.245  0.0753  0.0965 -2.6733
 2183TIP3   OH228039   6.455   6.483   2.556 -0.1216  0.0389  0.2306
 2183TIP3    H128040   6.530   6.441   2.600  1.2663  1.8662 -0.2381
 2183TIP3    H228041   6.493   6.523   2.478 -1.7829  0.2981 -0.4754
 2184TIP3   OH228042   0.816   1.560  16.673 -0.2442 -0.5236 -0.0903
 2184TIP3    H128043   0.768   1.622  16.728 -1.7057  0.0343 -1.9085
 2184TIP3    H228044   0.780   1.475  16.697 -1.8424 -0.1639 -1.0300
 2185TIP3   OH228045   2.070   6.267  16.001 -0.1220  0.7998 -0.0475
 2185TIP3    H128046   2.134   6.331  15.969 -2.2648  1.0424 -4.6785
 2185TIP3    H228047   1.998   6.321  16.035 -0.7176  0.8448 -1.3148
 2186TIP3   OH228048   1.294   0.174  15.802  0.4582  0.2292 -0.2982
 2186TIP3    H128049   1.363   0.135  15.748  1.0970  0.0173  0.6412
 2186TIP3    H228050   1.214   0.128  15.777  0.9770 -0.7896 -0.1273
 2187TIP3   OH228051   2.883   1.849   0.555 -0.0579  0.0810 -0.4733
 2187TIP3    H128052   2.913   1.840   0.464 -1.4604 -1.9926 -0.7949
 2187TIP3    H228053   2.817   1.781   0.565  0.6951 -0.3224  2.3942
 2188TIP3   OH228054   2.343   4.203   4.171  0.2832 -0.3000  0.0714
 2188TIP3    H128055   2.361   4.148   4.247  0.4909 -0.3623 -0.0227
 2188TIP3    H228056   2.293   4.147   4.111 -0.4227 -0.0572  0.4292
 2189TIP3   OH228057   4.939   2.601  16.452  0.3593  0.3983 -0.7745
 2189TIP3    H128058   4.995   2.556  16.389 -2.1141  1.1783 -3.7812
 2189TIP3    H228059   4.887   2.531  16.493  1.1560 -0.0137 -0.4495
 2190TIP3   OH228060   4.073   4.340  15.972 -0.7469 -0.1581  0.1019
 2190TIP3    H128061   4.164   4.311  15.981 -0.5964 -0.3746 -1.7899
 2190TIP3    H228062   4.077   4.419  15.920 -1.6046  0.2725  0.6585
 2191TIP3   OH228063   4.093   6.622   2.887 -0.0793  0.4890 -0.5547
 2191TIP3    H128064   4.102   6.697   2.946  2.2489  0.8628 -1.3066
 2191TIP3    H228065   4.023   6.647   2.827 -1.0845  0.9465  0.7347
 2192TIP3   OH228066   5.860   3.160   1.637 -0.2807  0.1064  0.7281
 2192TIP3    H128067   5.829   3.078   1.676  0.7947 -0.5674  0.2249
 2192TIP3    H228068   5.812   3.229   1.683 -1.2474 -0.8064  1.1167
 2193TIP3   OH228069   3.888   1.783   5.730 -0.1335 -0.0967 -0.1538
 2193TIP3    H128070   3.876   1.834   5.649 -1.1872 -0.3344 -0.1664
 2193TIP3    H228071   3.911   1.849   5.795 -1.7430  0.4831 -0.1123
 2194TIP3   OH228072   1.400   2.722  13.902 -0.0357 -0.7137 -0.2587
 2194TIP3    H128073   1.478   2.778  13.901  0.8107 -1.8673 -1.1579
 2194TIP3    H228074   1.418   2.657  13.971 -0.6880 -0.3461  0.2728
 2195TIP3   OH228075   5.572   0.399   1.962 -0.8507  0.2179 -0.0824
 2195TIP3    H128076   5.571   0.311   1.999 -0.6793  0.4030  0.3753
 2195TIP3    H228077   5.558   0.386   1.869 -1.9894 -0.2095  0.1329
 2196TIP3   OH228078   4.014   3.844   5.989 -0.0690 -0.2254 -0.0043
 2196TIP3    H128079   4.060   3.926   5.974  1.0071 -1.0461 -1.5072
 2196TIP3    H228080   4.062   3.780   5.937 -2.8713 -1.1670 -1.6458
 2197TIP3   OH228081   0.388   5.579   3.546 -0.2575 -0.1986  0.2406
 2197TIP3    H128082   0.418   5.632   3.620  0.3331 -0.7208  0.3900
 2197TIP3    H228083   0.414   5.628   3.468  0.5850 -0.4044  0.3747
 2198TIP3   OH228084   6.082   6.798   3.229 -0.1627 -0.1579  0.0366
 2198TIP3    H128085   6.012   6.751   3.183 -0.6675  1.2679 -0.7256
 2198TIP3    H228086   6.081   6.886   3.190  0.9434  0.3970  1.1934
 2199TIP3   OH228087   3.375   2.329  12.018 -0.9521  0.0901 -0.4297
 2199TIP3    H128088   3.323   2.256  11.982  0.6510 -0.9494 -0.7688
 2199TIP3    H228089   3.436   2.287  12.079  2.0872  0.5900 -2.8260
 2200TIP3   OH228090   3.090   4.501   2.001  0.1244 -0.5958  0.0475
 2200TIP3    H128091   3.031   4.488   1.927  0.8835 -0.2121 -0.6355
 2200TIP3    H228092   3.039   4.552   2.064 -0.4509 -0.7312 -0.3071
 2201TIP3   OH228093   0.859   1.994   1.588  0.2036 -0.8022  0.0573
 2201TIP3    H128094   0.927   2.060   1.602  0.1199 -0.9175  1.0375
 2201TIP3    H228095   0.894   1.939   1.517  0.6988 -0.2836 -0.1062
 2202TIP3   OH228096   5.639   3.141  17.035  0.3080  0.2411  0.3055
 2202TIP3    H128097   5.571   3.200  17.004  0.3133 -0.5017 -1.2289
 2202TIP3    H228098   5.707   3.147  16.968 -0.2393 -2.4116 -0.6010
 2203TIP3   OH228099   4.809   4.338  13.533  0.4127 -0.6761  0.6413
 2203TIP3    H128100   4.851   4.419  13.561 -1.4206  0.9676 -1.0344
 2203TIP3    H228101   4.719   4.345  13.564 -0.9786  0.0371 -2.9981
 2204TIP3   OH228102   1.968   5.001  16.177  0.4004 -0.1804 -0.5361
 2204TIP3    H128103   2.034   5.051  16.224 -0.5150  1.3982 -0.8586
 2204TIP3    H228104   1.986   5.019  16.084 -0.9416  0.9589 -0.6145
 2205TIP3   OH228105   3.367   1.680   0.065  0.2778  0.0255 -0.1875
 2205TIP3    H128106   3.272   1.667   0.063  0.4395 -1.2353 -1.2004
 2205TIP3    H228107   3.393   1.658   0.154 -0.3800  0.4131  0.1074
 2206TIP3   OH228108   3.623   0.463   0.659 -0.0639 -0.2271 -0.2856
 2206TIP3    H128109   3.581   0.407   0.724  0.8047  1.7131  2.1182
 2206TIP3    H228110   3.588   0.550   0.676  0.4450  0.4039 -2.2495
 2207TIP3   OH228111   6.755   0.081  10.536 -0.5998 -0.6465 -0.4227
 2207TIP3    H128112   6.728  -0.010  10.545 -1.1166 -0.3509  1.8085
 2207TIP3    H228113   6.674   0.131  10.548 -0.3621  0.1302 -1.8582
 2208TIP3   OH228114   4.376   3.349   5.393 -0.1054  0.0132  0.2302
 2208TIP3    H128115   4.371   3.281   5.460 -0.1847 -1.1825 -0.9421
 2208TIP3    H228116   4.470   3.367   5.384 -0.0482 -0.2836  0.2198
 2209TIP3   OH228117   0.123   5.315  10.130  0.2633 -0.2364 -0.1988
 2209TIP3    H128118   0.074   5.397  10.128 -0.6889 -0.8031 -0.3960
 2209TIP3    H228119   0.064   5.252  10.171  1.3858 -0.5818  0.9837
 2210TIP3   OH228120   2.682   3.856   1.153 -0.1057 -0.3245  0.5089
 2210TIP3    H128121   2.594   3.885   1.132  0.0794 -0.4063 -0.4275
 2210TIP3    H228122   2.672   3.799   1.229 -0.8610 -0.4105  0.3461
 2211TIP3   OH228123   1.687   1.358  11.913  0.2965  0.0629  0.0653
 2211TIP3    H128124   1.602   1.317  11.926  0.9600 -1.3957 -0.0747
 2211TIP3    H228125   1.688   1.431  11.975 -0.1505 -1.2823  1.7286
 2212TIP3   OH228126   1.032   6.581   0.572  0.4642 -0.0541  0.0765
 2212TIP3    H128127   1.042   6.650   0.507  0.3540 -1.8279 -1.9041
 2212TIP3    H228128   0.937   6.575   0.586  0.3926 -0.5538 -0.6040
 2213TIP3   OH228129   2.671   3.315   5.191  0.2938 -0.6387  0.0566
 2213TIP3    H128130   2.659   3.366   5.111  0.3607 -0.0701  0.4057
 2213TIP3    H228131   2.686   3.380   5.260  0.7937 -1.1454  0.4385
 2214TIP3   OH228132   5.652   1.340  12.871 -0.3464 -0.3466  0.8074
 2214TIP3    H128133   5.654   1.411  12.808 -0.8158 -0.0773  1.0934
 2214TIP3    H228134   5.681   1.379  12.953  0.1299 -0.6633  0.7947
 2215TIP3   OH228135   3.316   1.825  15.633 -0.0239  0.1913  0.0269
 2215TIP3    H128136   3.309   1.746  15.580  1.8352  0.9813 -1.5037
 2215TIP3    H228137   3.239   1.877  15.609  0.2473  0.0772 -1.1527
 2216TIP3   OH228138   5.444   3.280   2.079  0.1599  0.3767 -0.0214
 2216TIP3    H128139   5.362   3.314   2.046  0.4066  1.6839  0.6485
 2216TIP3    H228140   5.458   3.325   2.162 -0.4456 -2.7755  1.9664
 2217TIP3   OH228141   2.436   6.105   0.649  0.5010  0.1861  0.1903
 2217TIP3    H128142   2.348   6.092   0.615  1.8744 -2.2974 -2.9336
 2217TIP3    H228143   2.464   6.190   0.615  0.1250 -0.0994 -0.8422
 2218TIP3   OH228144   5.179   4.827  13.848 -0.4195  0.0828  0.6515
 2218TIP3    H128145   5.259   4.790  13.811 -0.7851  0.4454 -0.5471
 2218TIP3    H228146   5.190   4.818  13.943 -1.0370 -4.3644  0.5395
 2219TIP3   OH228147   0.129   5.412  13.428  0.0258  0.0736 -0.3062
 2219TIP3    H128148   0.081   5.415  13.511  0.8822  0.3773  0.1910
 2219TIP3    H228149   0.164   5.323  13.424 -0.4702 -0.1137 -0.6174
 2220TIP3   OH228150   4.736   4.044   0.743 -0.5520  0.6318  0.1207
 2220TIP3    H128151   4.702   4.037   0.833  1.6726  0.6805  1.0170
 2220TIP3    H228152   4.695   4.123   0.708 -0.3750  1.4213  1.6096
 2221TIP3   OH228153   5.561   5.921  16.595  0.4166 -0.0862  0.2565
 2221TIP3    H128154   5.512   5.905  16.676  1.0690  0.3178  0.7415
 2221TIP3    H228155   5.614   5.843  16.583  0.9792  0.2249  0.7038
 2222TIP3   OH228156   5.408   0.385  12.189  0.0686 -0.4217  0.1798
 2222TIP3    H128157   5.424   0.291  12.187  0.4604 -0.3434 -0.9016
 2222TIP3    H228158   5.485   0.423  12.231 -0.4783 -0.6432  1.4252
 2223TIP3   OH228159   3.559   1.238   3.617 -0.4865 -0.3035  0.4761
 2223TIP3    H128160   3.565   1.329   3.645  0.7060 -0.3625  0.4735
 2223TIP3    H228161   3.476   1.207   3.654 -1.0976  0.8803  0.1384
 2224TIP3   OH228162   3.925   5.719  11.716 -0.0187 -0.0391 -0.3411
 2224TIP3    H128163   3.901   5.782  11.648 -1.5335 -0.1336  0.0585
 2224TIP3    H228164   3.914   5.766  11.798  0.7388 -0.2465 -0.1191
 2225TIP3   OH228165   6.613   3.984  14.251  0.1504 -0.2354 -0.3667
 2225TIP3    H128166   6.627   3.915  14.186 -0.1290 -0.5942 -0.0459
 2225TIP3    H228167   6.682   4.048  14.233  1.6836 -1.5545  0.6542
 2226TIP3   OH228168   4.327   5.652  11.708 -0.1002 -0.2286  0.5337
 2226TIP3    H128169   4.240   5.615  11.721 -0.8770  0.6243 -1.8165
 2226TIP3    H228170   4.315   5.746  11.718 -0.4223  0.3553 -3.5306
 2227TIP3   OH228171   5.773   3.795   2.320  0.2010 -0.3645 -0.0711
 2227TIP3    H128172   5.728   3.757   2.396 -0.3716  1.7803  0.7421
 2227TIP3    H228173   5.810   3.877   2.353  1.5699 -0.2960 -1.6649
 2228TIP3   OH228174   0.997   3.482   2.100  0.2610 -0.1345  0.1910
 2228TIP3    H128175   1.021   3.390   2.114  1.0851  0.2558  1.5901
 2228TIP3    H228176   1.033   3.503   2.014  1.1382 -0.8057  0.3706
 2229TIP3   OH228177   1.223   6.714   4.717 -0.0657 -0.0085  0.2402
 2229TIP3    H128178   1.160   6.680   4.654 -0.8381  2.0721 -0.2057
 2229TIP3    H228179   1.169   6.750   4.787  0.7530 -1.0750  1.4516
 2230TIP3   OH228180   1.679   1.693   5.596  0.1105 -0.8834 -0.0498
 2230TIP3    H128181   1.744   1.763   5.588 -1.2250  0.3622 -0.3011
 2230TIP3    H228182   1.598   1.738   5.620 -0.7885 -2.3488 -0.2459
 2231TIP3   OH228183   4.196   0.095   5.566 -0.0281 -0.0762 -0.4531
 2231TIP3    H128184   4.214   0.186   5.590  0.8492 -1.1191  3.5029
 2231TIP3    H228185   4.107   0.080   5.597  1.4346 -1.7089  3.6030
 2232TIP3   OH228186   1.909   1.765  11.350  0.4566 -0.5671  0.3975
 2232TIP3    H128187   1.827   1.718  11.365 -0.4814  0.2397 -1.7896
 2232TIP3    H228188   1.975   1.695  11.347 -0.5684 -1.5446 -0.5340
 2233TIP3   OH228189   5.513   6.378   4.056 -0.0611 -0.2835 -0.1134
 2233TIP3    H128190   5.503   6.391   3.961  0.4913 -0.4330 -0.1922
 2233TIP3    H228191   5.603   6.350   4.067 -0.5320 -1.6998  0.3147
 2234TIP3   OH228192   2.190   1.418   4.164 -0.3120 -0.5017  0.2386
 2234TIP3    H128193   2.242   1.402   4.244  0.1065 -2.5179 -0.3627
 2234TIP3    H228194   2.226   1.356   4.101 -2.0169 -0.3891 -0.8847
 2235TIP3   OH228195   5.406   1.454   2.374  0.0598  0.0733  0.2437
 2235TIP3    H128196   5.480   1.396   2.392  0.3816  0.7487  1.2461
 2235TIP3    H228197   5.441   1.542   2.390 -0.6974  0.4695 -0.2388
 2236TIP3   OH228198   1.524   6.106   4.777 -0.0749  0.1051  0.1138
 2236TIP3    H128199   1.468   6.044   4.730 -1.3204  1.0450  0.3236
 2236TIP3    H228200   1.563   6.054   4.847  1.6839 -1.2913 -1.7463
 2237TIP3   OH228201   2.365   0.922  16.860 -0.2228  0.3282 -1.0018
 2237TIP3    H128202   2.307   0.979  16.911  0.8676  0.6427 -0.0612
 2237TIP3    H228203   2.443   0.976  16.844 -0.2910  0.0085 -2.4740
 2238TIP3   OH228204   4.295   5.252  12.479  0.1807  0.2387  0.5465
 2238TIP3    H128205   4.290   5.343  12.450 -1.4244  0.4529  1.4285
 2238TIP3    H228206   4.299   5.201  12.398 -0.7136  1.0032  0.0111
 2239TIP3   OH228207   2.700   2.105   6.105  0.2059  0.0209  0.1978
 2239TIP3    H128208   2.725   2.082   6.016 -2.2291  3.2480 -1.4803
 2239TIP3    H228209   2.653   2.028   6.137  0.8961 -1.1034 -1.3565
 2240TIP3   OH228210   5.205   1.277   4.858 -0.1933 -0.5284 -0.0985
 2240TIP3    H128211   5.265   1.351   4.861 -0.2092 -0.5109 -0.1987
 2240TIP3    H228212   5.244   1.212   4.916 -0.7270 -0.0413  0.8246
 2241TIP3   OH228213   0.986   5.536   3.454  0.0216  0.5892 -0.3695
 2241TIP3    H128214   0.901   5.578   3.470  0.0449  0.7298 -0.5990
 2241TIP3    H228215   0.989   5.525   3.359 -0.9227 -1.9454 -0.1776
 2242TIP3   OH228216   3.238   3.371  14.090  0.1547 -0.4634 -0.0448
 2242TIP3    H128217   3.188   3.366  14.171 -1.0631  1.8567 -0.5398
 2242TIP3    H228218   3.323   3.406  14.116 -0.0029 -0.3467  0.3124
 2243TIP3   OH228219   6.330   2.103   2.006 -0.0031  0.3603  0.3664
 2243TIP3    H128220   6.299   2.013   2.000  1.9110 -0.4329  1.2582
 2243TIP3    H228221   6.277   2.143   2.074 -1.9403  0.4297 -1.1210
 2244TIP3   OH228222   3.734   5.981  12.593 -0.0257 -0.3803 -0.1247
 2244TIP3    H128223   3.692   5.895  12.598  0.9484 -0.8160  1.5256
 2244TIP3    H228224   3.726   6.017  12.682 -0.4927  1.2949 -0.7928
 2245TIP3   OH228225   1.614   5.123  11.343  0.2455 -0.3899 -0.1651
 2245TIP3    H128226   1.529   5.129  11.299  0.0410 -2.7390 -0.1803
 2245TIP3    H228227   1.659   5.204  11.317 -1.1106 -0.1423 -1.9925
 2246TIP3   OH228228   4.257   4.526  14.532  0.7072  0.3610 -0.0184
 2246TIP3    H128229   4.293   4.613  14.512 -0.4701  0.7111 -0.6833
 2246TIP3    H228230   4.163   4.540  14.541  0.5564 -0.7747  0.3388
 2247TIP3   OH228231   0.675   3.496   5.438 -0.1540 -0.2901 -0.2244
 2247TIP3    H128232   0.734   3.478   5.511  0.6513 -1.4875 -1.1318
 2247TIP3    H228233   0.677   3.591   5.428  2.0930 -0.3322 -0.6024
 2248TIP3   OH228234   1.971   0.825  11.613 -0.0969  0.3982  0.2204
 2248TIP3    H128235   1.945   0.861  11.698 -1.4133 -0.2558  0.1051
 2248TIP3    H228236   2.032   0.890  11.578  0.1175  0.8994  1.4580
 2249TIP3   OH228237   0.716   6.500  13.782 -0.0096  0.3068  0.5121
 2249TIP3    H128238   0.784   6.565  13.767  0.1793 -0.0779 -0.3665
 2249TIP3    H228239   0.636   6.550  13.795  0.1267  0.7209 -0.1989
 2250TIP3   OH228240   6.496   5.123  11.371  0.0592  0.0480  0.2453
 2250TIP3    H128241   6.403   5.099  11.371  0.3081 -0.9864  0.5831
 2250TIP3    H228242   6.501   5.200  11.315 -1.0951  0.4967  0.7303
 2251TIP3   OH228243   3.519   4.143   2.487 -0.3058  0.2661  0.1111
 2251TIP3    H128244   3.433   4.186   2.483 -0.2201  0.4390  0.1019
 2251TIP3    H228245   3.512   4.082   2.560 -0.8769 -0.6969 -0.7166
 2252TIP3   OH228246   2.381   4.953  11.288  0.1417  0.2290  0.0348
 2252TIP3    H128247   2.395   4.874  11.340 -0.8753  2.1237  3.5448
 2252TIP3    H228248   2.391   4.925  11.198 -0.1078 -3.8623  1.0884
 2253TIP3   OH228249   2.885   1.931   3.423 -0.3944 -0.3665  0.0909
 2253TIP3    H128250   2.833   1.984   3.363 -1.0483  0.5550  1.4430
 2253TIP3    H228251   2.873   1.971   3.509  0.1492 -1.9276  0.9421
 2254TIP3   OH228252   6.832   0.151   5.232 -0.2183  0.5613 -0.0953
 2254TIP3    H128253   6.882   0.190   5.160  0.7133  0.8174  0.6726
 2254TIP3    H228254   6.801   0.226   5.283 -0.7088  0.3737 -0.1050
 2255TIP3   OH228255   4.494   6.648   5.078 -0.0639 -0.4912 -0.5630
 2255TIP3    H128256   4.478   6.690   5.162  1.8255  0.1554 -0.4660
 2255TIP3    H228257   4.589   6.633   5.077 -0.0804 -0.6911 -2.4722
 2256TIP3   OH228258   2.849   5.723   0.075  0.0641 -0.4488 -0.4321
 2256TIP3    H128259   2.892   5.642   0.047 -0.8127 -1.2018  0.3134
 2256TIP3    H228260   2.904   5.755   0.147  1.9731  1.1634 -2.4488
 2257TIP3   OH228261   0.067   0.675   3.725  0.1278 -0.2532  0.2242
 2257TIP3    H128262   0.143   0.726   3.696  0.2017  0.0512  0.9066
 2257TIP3    H228263   0.012   0.739   3.771 -0.1255 -0.6422  0.4707
 2258TIP3   OH228264   1.574   2.833   1.531  0.1806  0.3632 -0.3542
 2258TIP3    H128265   1.633   2.908   1.523 -0.3076  1.0867  2.1540
 2258TIP3    H228266   1.602   2.773   1.462  2.1156  1.8227 -0.9054
 2259TIP3   OH228267   0.397   5.360  10.857 -0.1824 -1.0285  0.0303
 2259TIP3    H128268   0.482   5.404  10.853 -0.6887 -0.0829 -3.3852
 2259TIP3    H228269   0.414   5.273  10.821 -0.6673 -0.7568 -0.8744
 2260TIP3   OH228270   2.425   6.738  11.137  0.0174 -0.0450  0.4001
 2260TIP3    H128271   2.480   6.816  11.131  1.2595 -0.9288  0.1067
 2260TIP3    H228272   2.437   6.693  11.054  0.5494 -1.3596  1.1761
 2261TIP3   OH228273   3.761   0.798   1.948 -0.1113 -0.4875 -0.2235
 2261TIP3    H128274   3.669   0.812   1.969 -0.2505 -1.2318 -0.2873
 2261TIP3    H228275   3.769   0.703   1.937  0.4112 -0.3298 -1.4035
 2262TIP3   OH228276   0.467   0.694  13.396 -0.5850 -0.4586 -0.1364
 2262TIP3    H128277   0.453   0.689  13.491  1.1649 -1.4123  0.1345
 2262TIP3    H228278   0.385   0.727  13.361 -0.8719  1.1139  1.8199
 2263TIP3   OH228279   2.517   1.447   5.571 -0.1857  0.1712  0.2283
 2263TIP3    H128280   2.434   1.493   5.585 -0.2835 -0.0674  0.4366
 2263TIP3    H228281   2.575   1.514   5.533 -0.2956  0.4902  0.6129
 2264TIP3   OH228282   5.917   5.826  13.179  0.9119 -0.1543 -0.2245
 2264TIP3    H128283   5.851   5.861  13.238  1.7828  0.9819  0.1332
 2264TIP3    H228284   5.898   5.733  13.173  0.5762 -0.2317  1.5571
 2265TIP3   OH228285   1.292   0.189  16.911  0.0680 -0.3396 -0.5780
 2265TIP3    H128286   1.209   0.232  16.889  0.1197  0.9435  1.5132
 2265TIP3    H228287   1.357   0.233  16.856  0.1472  2.5533  1.5655
 2266TIP3   OH228288   4.143   3.039   1.812  0.3386 -0.0870  0.5227
 2266TIP3    H128289   4.114   3.036   1.720 -0.9784 -0.3752  0.9194
 2266TIP3    H228290   4.177   3.128   1.823 -2.0005  0.9039  0.4218
 2267TIP3   OH228291   0.780   3.084  14.892 -0.4913  0.7498 -0.1710
 2267TIP3    H128292   0.869   3.062  14.866 -1.1685 -3.2048  0.2240
 2267TIP3    H228293   0.785   3.098  14.987 -0.4990 -1.6968  0.2605
 2268TIP3   OH228294   1.655   4.094   2.178 -0.4752  0.1339  0.1212
 2268TIP3    H128295   1.725   4.133   2.126  0.6192  0.8428  2.0312
 2268TIP3    H228296   1.632   4.161   2.242 -0.4053 -1.3766  1.7969
 2269TIP3   OH228297   0.679   1.505  15.737 -0.1966 -0.2924  0.4143
 2269TIP3    H128298   0.681   1.434  15.801  0.9832  0.9477  1.8134
 2269TIP3    H228299   0.591   1.542  15.743 -0.5908 -1.1702  0.1796
 2270TIP3   OH228300   6.016   6.823   4.536  0.2417  0.6529 -0.0174
 2270TIP3    H128301   6.067   6.901   4.556 -0.1831  0.7919  0.5328
 2270TIP3    H228302   5.959   6.850   4.464  1.2415  0.3663 -0.9453
 2271TIP3   OH228303   6.257   1.569   3.557 -0.4798 -0.2219  0.2389
 2271TIP3    H128304   6.327   1.518   3.515 -1.2116 -0.2183 -1.0544
 2271TIP3    H228305   6.244   1.643   3.498 -0.5027  0.6241  1.2961
 2272TIP3   OH228306   5.825   0.011  10.899  0.0307 -0.1031  0.1752
 2272TIP3    H128307   5.741   0.056  10.900  0.5959  0.9850  0.7277
 2272TIP3    H228308   5.861   0.029  10.813  0.1923  0.3948  0.3444
 2273TIP3   OH228309   4.233   0.337  17.142 -0.1799 -0.1703  0.2072
 2273TIP3    H128310   4.181   0.418  17.140  1.6266  1.0251 -0.2947
 2273TIP3    H228311   4.307   0.358  17.199  0.7086 -1.2372 -0.5372
 2274TIP3   OH228312   1.995   2.432   0.605  0.2746 -0.4719 -1.1961
 2274TIP3    H128313   1.977   2.511   0.554 -0.2328 -0.3409 -0.8233
 2274TIP3    H228314   2.054   2.461   0.675 -2.7663  0.4794  1.2342
 2275TIP3   OH228315   4.379   3.406  14.406  0.2627 -0.2574 -0.0446
 2275TIP3    H128316   4.451   3.389  14.345 -1.2294 -0.2792 -1.9213
 2275TIP3    H228317   4.331   3.479  14.365  0.8260  1.7853  2.6638
 2276TIP3   OH228318   0.167   0.899   3.901 -0.3345 -0.1743 -0.7110
 2276TIP3    H128319   0.144   0.811   3.933 -1.8299  0.3705 -0.1566
 2276TIP3    H228320   0.225   0.934   3.969  0.8408 -0.9707 -1.2800
 2277TIP3   OH228321   1.332   6.152  15.201  0.2330 -0.0091  0.2211
 2277TIP3    H128322   1.347   6.205  15.122 -0.2049  0.1240  0.2274
 2277TIP3    H228323   1.272   6.083  15.172 -1.6071  1.2284  0.9090
 2278TIP3   OH228324   0.047   6.520   1.752 -0.1645  0.0498 -0.7950
 2278TIP3    H128325   0.122   6.559   1.707 -0.4979  0.8021 -0.7215
 2278TIP3    H228326   0.003   6.594   1.793 -1.1019 -0.3385 -1.0637
 2279TIP3   OH228327   1.515   5.836  17.050  0.0094  0.2580  0.1768
 2279TIP3    H128328   1.574   5.868  17.119  0.0912 -0.8162  0.6174
 2279TIP3    H228329   1.572   5.817  16.976  0.1243 -0.1163  0.3610
 2280TIP3   OH228330   6.271   1.438  14.686 -0.1592 -0.7921  0.0372
 2280TIP3    H128331   6.203   1.476  14.629  0.3664 -0.4318 -0.3526
 2280TIP3    H228332   6.277   1.347  14.657  0.6758 -0.4092 -1.0483
 2281TIP3   OH228333   0.279   2.280   3.765 -0.5333 -0.5393 -0.2884
 2281TIP3    H128334   0.291   2.317   3.852  0.1657  0.0167 -0.6118
 2281TIP3    H228335   0.351   2.218   3.755 -0.4493 -0.3980 -0.5746
 2282TIP3   OH228336   2.135   4.808   2.078  0.2733  0.6236 -0.2505
 2282TIP3    H128337   2.187   4.733   2.108  1.2605  1.1594 -0.5661
 2282TIP3    H228338   2.185   4.843   2.004 -0.2669  1.4867 -0.2171
 2283TIP3   OH228339   3.531   6.634   2.497 -0.2944 -0.1776  0.1199
 2283TIP3    H128340   3.443   6.669   2.485  0.0056  0.1341 -1.4785
 2283TIP3    H228341   3.589   6.708   2.476  0.3380 -0.7995 -0.3928
 2284TIP3   OH228342   4.418   6.311   4.908  0.1730  0.1260 -0.0895
 2284TIP3    H128343   4.441   6.277   4.822 -0.1616  2.8227 -1.3649
 2284TIP3    H228344   4.398   6.234   4.960  1.5655 -1.6715 -2.0555
 2285TIP3   OH228345   5.835   2.499   4.616 -0.1916  0.1946  0.2747
 2285TIP3    H128346   5.858   2.433   4.682  2.3457  0.2332 -0.4776
 2285TIP3    H228347   5.741   2.513   4.629  0.0424 -0.3143  3.3759
 2286TIP3   OH228348   4.418   5.819  15.003  0.4628 -0.6453  0.8981
 2286TIP3    H128349   4.382   5.897  14.960 -0.8317 -0.8603  1.5200
 2286TIP3    H228350   4.447   5.763  14.932  0.2491 -0.1163  0.3879
 2287TIP3   OH228351   3.371   6.414   5.235  0.1610  0.4909 -0.5198
 2287TIP3    H128352   3.311   6.416   5.161 -0.7102  1.4000  0.1916
 2287TIP3    H228353   3.425   6.336   5.220 -1.0490 -0.2345 -1.2823
 2288TIP3   OH228354   0.993   1.421  13.835  0.2938  0.2587 -0.0504
 2288TIP3    H128355   0.934   1.351  13.862  0.4074 -0.7934 -2.3601
 2288TIP3    H228356   1.024   1.459  13.918 -0.9060 -1.4278  1.2391
 2289TIP3   OH228357   1.995   0.612   1.376 -0.1125  0.1314 -0.2510
 2289TIP3    H128358   2.035   0.666   1.308 -0.0625  0.0272 -0.3035
 2289TIP3    H228359   2.012   0.522   1.349  1.2127  0.0873  0.6671
 2290TIP3   OH228360   2.702   5.311  16.986  0.2294 -0.4246 -0.2026
 2290TIP3    H128361   2.719   5.388  16.932 -2.3933 -1.3043 -2.5536
 2290TIP3    H228362   2.721   5.237  16.928  0.9258 -1.5354  1.3831
 2291TIP3   OH228363   5.993   5.813  11.562  0.2878 -0.3832  0.0492
 2291TIP3    H128364   5.995   5.908  11.550 -2.0799 -0.4439 -1.5141
 2291TIP3    H228365   6.073   5.793  11.611  1.1268  2.3255 -0.0604
 2292TIP3   OH228366   5.793   3.959  13.462  0.2671 -0.0336  0.3534
 2292TIP3    H128367   5.876   3.989  13.500 -0.2660  0.7836  0.8889
 2292TIP3    H228368   5.726   3.990  13.522 -0.4433 -0.6281 -0.1148
 2293TIP3   OH228369   4.435   1.250  16.566 -0.0417 -0.0321  0.4587
 2293TIP3    H128370   4.435   1.332  16.516  0.8389 -1.3072 -1.7779
 2293TIP3    H228371   4.500   1.263  16.634  1.5142  0.4918 -1.0652
 2294TIP3   OH228372   5.963   3.679  12.810 -0.1993  0.1266  0.1852
 2294TIP3    H128373   5.907   3.678  12.733  0.6369  0.7606 -0.4445
 2294TIP3    H228374   5.980   3.586  12.827 -2.0737 -0.1320  0.8910
 2295TIP3   OH228375   1.496   2.172   5.436  0.5247 -0.1680 -0.1064
 2295TIP3    H128376   1.550   2.209   5.505  0.2910 -0.5264  0.2755
 2295TIP3    H228377   1.454   2.247   5.395 -1.8808 -0.0644  2.2619
 2296TIP3   OH228378   6.795   2.418   2.328  0.3078 -0.5822  0.0773
 2296TIP3    H128379   6.763   2.369   2.252  0.1640 -1.9009  0.9388
 2296TIP3    H228380   6.769   2.364   2.403 -0.6205  1.2594  1.1592
 2297TIP3   OH228381   5.993   3.435   3.586  0.1686  0.4047  0.3251
 2297TIP3    H128382   6.001   3.528   3.566  0.1683  0.4484  0.5251
 2297TIP3    H228383   5.966   3.432   3.678 -0.7303  0.2241  0.0568
 2298TIP3   OH228384   5.756   4.065   6.191 -0.5739  0.9356 -0.4478
 2298TIP3    H128385   5.798   3.988   6.152  0.3576  2.0337 -1.7476
 2298TIP3    H228386   5.815   4.137   6.170 -2.4502  2.3493 -1.1700
 2299TIP3   OH228387   5.079   1.828   2.268 -0.1567  0.6801 -0.2413
 2299TIP3    H128388   5.048   1.885   2.198  0.3792  2.9325  1.2654
 2299TIP3    H228389   5.000   1.807   2.318 -0.1050  1.7592  0.3247
 2300TIP3   OH228390   3.451   5.530  13.282 -0.0515  0.2003 -0.2224
 2300TIP3    H128391   3.380   5.532  13.219 -1.3285 -0.2486  1.1306
 2300TIP3    H228392   3.530   5.541  13.230 -1.0538  0.0266 -1.8569
 2301TIP3   OH228393   1.165   2.692  12.240 -0.1677  0.0966 -0.1952
 2301TIP3    H128394   1.247   2.658  12.203  0.2337  0.6014  0.2188
 2301TIP3    H228395   1.156   2.780  12.202 -0.6169 -0.0290 -0.3865
 2302TIP3   OH228396   6.280   6.220   6.162  0.3354  0.4018 -0.0871
 2302TIP3    H128397   6.305   6.292   6.219 -0.8489  0.7977 -0.0413
 2302TIP3    H228398   6.353   6.159   6.166  0.9279  1.1501  0.6375
 2303TIP3   OH228399   0.480   1.182   0.733 -0.7617 -0.0024 -0.5412
 2303TIP3    H128400   0.436   1.252   0.685  0.3098  1.5051  0.5837
 2303TIP3    H228401   0.543   1.147   0.670  0.2128  1.5560 -0.5059
 2304TIP3   OH228402   2.205   3.397   4.359 -0.1760 -0.0734 -0.5409
 2304TIP3    H128403   2.241   3.309   4.348  0.0976 -0.1480  0.7609
 2304TIP3    H228404   2.268   3.454   4.317  0.3485 -0.4000 -0.2206
 2305TIP3   OH228405   1.949   4.264  11.860  0.1483 -0.6611  0.6058
 2305TIP3    H128406   1.995   4.208  11.923  0.7713  0.6464  1.3562
 2305TIP3    H228407   1.965   4.353  11.891  1.7667  0.1720 -2.2428
 2306TIP3   OH228408   6.776   5.719   4.000 -0.2600 -0.3943  0.5378
 2306TIP3    H128409   6.862   5.713   4.042 -0.1803 -2.3804  0.1662
 2306TIP3    H228410   6.779   5.803   3.954  1.1462 -0.0174  1.2415
 2307TIP3   OH228411   5.282   3.545  14.870  0.3391  0.9285  0.3990
 2307TIP3    H128412   5.266   3.628  14.914  0.0228  1.3213 -0.4542
 2307TIP3    H228413   5.378   3.537  14.869  0.3429  0.3865  2.1110
 2308TIP3   OH228414   3.936   5.587   1.261  0.0385  0.4623 -0.6522
 2308TIP3    H128415   4.020   5.631   1.271  0.3449 -0.1796 -0.3568
 2308TIP3    H228416   3.903   5.577   1.351 -0.3554  0.7097 -0.7644
 2309TIP3   OH228417   3.525   4.873   0.776 -0.2408 -0.0609 -0.2255
 2309TIP3    H128418   3.541   4.943   0.839  1.6803 -0.5710 -0.1077
 2309TIP3    H228419   3.440   4.837   0.801 -0.6282  1.3255  0.5464
 2310TIP3   OH228420   5.737   4.263  10.592  0.1280 -0.3462 -0.5502
 2310TIP3    H128421   5.799   4.334  10.604 -0.4494  0.0763 -0.0188
 2310TIP3    H228422   5.651   4.303  10.606 -0.2817 -0.8906 -1.4145
 2311TIP3   OH228423   4.006   6.320   1.359 -0.2466 -0.7030  0.0867
 2311TIP3    H128424   4.031   6.360   1.443 -3.2256  1.6861 -0.0231
 2311TIP3    H228425   4.070   6.354   1.297 -0.0439  0.2895  0.8090
 2312TIP3   OH228426   1.723   0.388   0.737 -0.5938 -0.3937  0.0199
 2312TIP3    H128427   1.780   0.325   0.780 -1.4125 -0.2940  1.2839
 2312TIP3    H228428   1.669   0.424   0.807 -1.7350  0.0217 -1.0344
 2313TIP3   OH228429   3.540   4.871   2.528 -0.3179  0.0318 -0.2260
 2313TIP3    H128430   3.588   4.793   2.555  1.9092  1.5296  0.4441
 2313TIP3    H228431   3.529   4.862   2.434  0.7960 -0.6460 -0.3054
 2314TIP3   OH228432   2.058   2.086   2.787 -0.2558  0.9402  0.5573
 2314TIP3    H128433   2.080   2.020   2.722  0.8498 -0.5106  2.3071
 2314TIP3    H228434   2.141   2.128   2.809 -0.6877  1.7499  0.6966
 2315TIP3   OH228435   2.029   2.869  13.030  0.5974  0.1522 -0.4581
 2315TIP3    H128436   2.065   2.781  13.020  1.9715  0.7378 -0.8799
 2315TIP3    H228437   1.972   2.880  12.953 -1.3709 -1.1478  0.7372
 2316TIP3   OH228438   6.481   2.390   0.018 -0.9357  0.2493  0.5408
 2316TIP3    H128439   6.574   2.368   0.018 -0.7936  0.8508  0.5222
 2316TIP3    H228440   6.478   2.484   0.005 -1.5945  0.0300 -1.2355
 2317TIP3   OH228441   1.352   6.241  16.280 -0.5674 -0.1400 -0.3481
 2317TIP3    H128442   1.357   6.203  16.368 -0.5442 -0.7023 -0.5917
 2317TIP3    H228443   1.436   6.286  16.269 -1.1634  1.2867  0.5167
 2318TIP3   OH228444   3.128   5.425  14.247 -0.3727  0.6222 -0.0483
 2318TIP3    H128445   3.153   5.381  14.328  0.5601  1.7624  0.2942
 2318TIP3    H228446   3.120   5.353  14.183 -0.1030 -0.1751  0.7906
 2319TIP3   OH228447   1.346   4.661   0.986 -0.0711  0.4587  0.3381
 2319TIP3    H128448   1.432   4.702   0.986 -0.2737  0.8945  0.6588
 2319TIP3    H228449   1.352   4.591   0.920  1.0748 -0.6828  1.5953
 2320TIP3   OH228450   0.446   5.715   1.544  0.3577  0.3497  0.2982
 2320TIP3    H128451   0.353   5.728   1.528  0.0746  0.0649  1.5853
 2320TIP3    H228452   0.460   5.621   1.534  0.7269  0.5198 -0.8940
 2321TIP3   OH228453   5.557   5.084   4.560  0.2890  0.2884 -0.6353
 2321TIP3    H128454   5.549   4.989   4.557 -1.0911  0.3438  0.2221
 2321TIP3    H228455   5.620   5.101   4.629  1.5901 -0.0093 -1.7103
 2322TIP3   OH228456   1.730   0.366  13.712  0.1756  0.0951  0.3085
 2322TIP3    H128457   1.683   0.421  13.775  0.0735 -0.9812  1.2038
 2322TIP3    H228458   1.666   0.299  13.686  0.2477  0.4564 -0.8754
 2323TIP3   OH228459   6.701   4.147   4.916 -0.1337  0.3250  0.3260
 2323TIP3    H128460   6.710   4.065   4.868 -0.0519 -0.1609  1.1546
 2323TIP3    H228461   6.651   4.124   4.994 -1.4511  1.3730 -0.1729
 2324TIP3   OH228462   4.382   1.559  15.431  0.0505 -0.4969 -0.5191
 2324TIP3    H128463   4.351   1.635  15.382 -1.2629  0.1502  1.2221
 2324TIP3    H228464   4.469   1.585  15.463 -0.2944  0.1988 -0.1301
 2325TIP3   OH228465   6.192   0.065   2.558  0.3932  0.1526  0.0263
 2325TIP3    H128466   6.243  -0.003   2.514 -0.6291  0.2933 -1.4414
 2325TIP3    H228467   6.131   0.017   2.613  1.4078 -0.0365  1.0229
 2326TIP3   OH228468   6.004   4.772  16.762 -0.0474  0.2596  0.1227
 2326TIP3    H128469   5.915   4.806  16.767 -0.3763 -0.2945 -1.3287
 2326TIP3    H228470   6.035   4.798  16.675  0.3740 -1.4548 -0.2786
 2327TIP3   OH228471   0.818   2.489   2.381 -0.6719 -0.1511 -0.0007
 2327TIP3    H128472   0.815   2.584   2.366  0.6846 -0.0789  0.0850
 2327TIP3    H228473   0.855   2.480   2.468  2.0409 -0.7759 -1.1245
 2328TIP3   OH228474   3.412   1.550  10.646  0.0320 -0.6877  0.4580
 2328TIP3    H128475   3.499   1.590  10.647 -0.5030  0.5560 -0.6130
 2328TIP3    H228476   3.425   1.466  10.690  1.6315 -0.2532  0.9110
 2329TIP3   OH228477   6.299   6.660   2.790  0.0679 -0.3312  0.1981
 2329TIP3    H128478   6.331   6.578   2.752  0.9626 -0.4226  1.1086
 2329TIP3    H228479   6.211   6.670   2.753 -0.6440 -2.4502  1.1610
 2330TIP3   OH228480   2.215   3.572  12.333 -0.0660  0.0898 -0.6317
 2330TIP3    H128481   2.172   3.584  12.248  0.7847  1.5686 -0.8846
 2330TIP3    H228482   2.191   3.649  12.384 -0.7104 -0.8653  0.5617
 2331TIP3   OH228483   2.767   5.025   6.388 -0.6960  0.1609  0.1938
 2331TIP3    H128484   2.727   4.946   6.424  1.4630 -0.0967  2.2924
 2331TIP3    H228485   2.857   4.999   6.368  0.0432  2.0184  0.8557
 2332TIP3   OH228486   3.937   3.347   2.851 -0.1610  0.7986  0.0520
 2332TIP3    H128487   3.873   3.299   2.904 -0.2385 -1.1133 -1.6776
 2332TIP3    H228488   3.917   3.323   2.761  1.7413  1.7620 -0.6838
 2333TIP3   OH228489   5.738   5.304   5.648  0.0717  0.1236 -0.0564
 2333TIP3    H128490   5.700   5.342   5.727 -1.9571 -1.2412 -0.3063
 2333TIP3    H228491   5.748   5.211   5.669 -2.0336 -0.6016 -1.8601
 2334TIP3   OH228492   2.689   0.329   2.346  0.2210  0.3010 -0.7387
 2334TIP3    H128493   2.654   0.411   2.311  0.7235  1.9115  2.1764
 2334TIP3    H228494   2.784   0.338   2.341  0.3309  0.8503  1.3838
 2335TIP3   OH228495   6.294   0.905   5.779 -0.5117 -0.0344  0.3544
 2335TIP3    H128496   6.305   0.863   5.864  0.7163 -2.0592 -0.7370
 2335TIP3    H228497   6.200   0.924   5.774 -0.7248 -0.5406  1.8229
 2336TIP3   OH228498   4.790   4.876   2.924  0.2119  0.3825  0.9042
 2336TIP3    H128499   4.731   4.830   2.865 -0.6559  0.6508  1.5478
 2336TIP3    H228500   4.873   4.880   2.877 -0.7669  1.6275 -0.8014
 2337TIP3   OH228501   1.300   6.571  13.144  0.0172  0.0235  0.1274
 2337TIP3    H128502   1.339   6.614  13.220  2.8310 -0.4908 -0.8904
 2337TIP3    H228503   1.257   6.641  13.096 -0.1741  0.6859  1.2312
 2338TIP3   OH228504   2.004   1.405   5.852  0.0807  0.5650 -0.3378
 2338TIP3    H128505   2.061   1.412   5.929  2.6297  2.6172 -2.2040
 2338TIP3    H228506   1.947   1.331   5.871  3.2507 -1.5870  1.8728
 2339TIP3   OH228507   5.795   0.622  13.105 -0.5726  0.3746  0.3883
 2339TIP3    H128508   5.859   0.681  13.063 -0.9099  1.0448  0.7973
 2339TIP3    H228509   5.726   0.612  13.039 -1.8025  2.5648  1.2204
 2340TIP3   OH228510   5.915   5.634   1.102  0.5422 -0.6869  0.4855
 2340TIP3    H128511   5.962   5.551   1.104  0.3809 -0.7796  0.4073
 2340TIP3    H228512   5.970   5.690   1.047  0.0381 -1.1171 -0.4856
 2341TIP3   OH228513   3.975   6.725   0.007  0.5425  0.6043 -0.5450
 2341TIP3    H128514   3.996   6.818   0.013 -0.4719  0.8835 -1.0941
 2341TIP3    H228515   3.891   6.722  -0.038  1.1019 -0.6421 -1.5969
 2342TIP3   OH228516   2.044   4.659  16.656 -0.0070 -0.3624  0.6168
 2342TIP3    H128517   2.079   4.739  16.694 -1.8374 -0.0724  1.8118
 2342TIP3    H228518   2.052   4.671  16.562  1.4433  0.4024  0.8078
 2343TIP3   OH228519   6.695   4.315   4.704  0.2514 -0.1881  0.1870
 2343TIP3    H128520   6.709   4.408   4.687 -1.8645 -0.0038 -0.8033
 2343TIP3    H228521   6.700   4.307   4.800  0.9923  0.8219  0.2441
 2344TIP3   OH228522   0.302   6.158  13.418  0.7385 -0.0594 -0.0054
 2344TIP3    H128523   0.281   6.066  13.432  0.7693  0.0995  1.1859
 2344TIP3    H228524   0.217   6.202  13.414  0.7397  0.1550  1.7016
 2345TIP3   OH228525   0.942   2.724  15.807 -0.1434 -0.1684  0.1434
 2345TIP3    H128526   0.872   2.679  15.760 -1.1057 -0.0720  1.4460
 2345TIP3    H228527   0.958   2.669  15.884 -1.7267  1.8914  2.0620
 2346TIP3   OH228528   0.243   0.911  15.235 -0.4565  0.0011  0.0419
 2346TIP3    H128529   0.149   0.892  15.237 -0.3129 -0.9183 -1.2130
 2346TIP3    H228530   0.265   0.919  15.143  0.6199  0.7098  0.3350
 2347TIP3   OH228531   2.429   1.136  14.524  0.0480 -0.5335 -0.4652
 2347TIP3    H128532   2.408   1.060  14.470  0.1620 -1.1574  0.3472
 2347TIP3    H228533   2.387   1.210  14.479 -3.0184 -1.5447  0.4449
 2348TIP3   OH228534   0.877   2.286  13.193 -1.0461  0.1762 -0.3700
 2348TIP3    H128535   0.824   2.219  13.236 -0.0395 -0.5319 -0.2023
 2348TIP3    H228536   0.898   2.349  13.263  0.4305 -0.8734  0.1760
 2349TIP3   OH228537   4.406   2.837  13.683 -0.3108  0.0395 -0.1863
 2349TIP3    H128538   4.350   2.828  13.760  0.8986 -1.9344  0.5224
 2349TIP3    H228539   4.346   2.826  13.609 -0.9956 -1.3548  0.5432
 2350TIP3   OH228540   4.825   4.752  14.763 -0.9717  0.4190 -0.5140
 2350TIP3    H128541   4.786   4.830  14.804 -2.3832 -0.2942 -0.4705
 2350TIP3    H228542   4.869   4.707  14.836 -1.0722  0.6173 -0.3277
 2351TIP3   OH228543   4.761   0.409  13.092  0.5927 -0.0848 -0.1643
 2351TIP3    H128544   4.782   0.449  13.007 -0.8633 -2.9636 -2.0331
 2351TIP3    H228545   4.826   0.339  13.102  1.2216  0.7006  1.5287
 2352TIP3   OH228546   4.813   5.119   4.291 -0.2279  0.7049 -0.0389
 2352TIP3    H128547   4.873   5.168   4.234 -0.0497  2.2573  1.3985
 2352TIP3    H228548   4.871   5.073   4.353 -0.4049 -1.2466 -1.2355
 2353TIP3   OH228549   3.751   2.600  11.688  0.1368  0.1515  0.1891
 2353TIP3    H128550   3.834   2.552  11.687  0.0358 -0.0269  0.1267
 2353TIP3    H228551   3.751   2.646  11.772  0.2163  0.0030  0.2725
 2354TIP3   OH228552   0.289   5.930  14.095 -0.4878 -0.3808 -0.1290
 2354TIP3    H128553   0.313   5.990  14.166 -0.0718  0.3364 -0.8557
 2354TIP3    H228554   0.373   5.906  14.055 -0.4081 -3.3021  1.5733
 2355TIP3   OH228555   3.005   4.049   2.507 -0.2547  0.6007  0.9682
 2355TIP3    H128556   2.989   4.126   2.453 -1.3562 -0.1122  0.2421
 2355TIP3    H228557   2.933   3.990   2.486  0.5523 -0.6147  1.5453
 2356TIP3   OH228558   6.776   4.976   1.034 -0.2194  0.3275  0.6593
 2356TIP3    H128559   6.791   4.915   0.962 -0.7568 -2.0060  2.3994
 2356TIP3    H228560   6.848   5.038   1.029  0.1693 -0.2065 -1.3954
 2357TIP3   OH228561   6.099   2.495   4.782  0.2377 -0.1649 -0.0739
 2357TIP3    H128562   6.034   2.490   4.852  0.9201 -0.1382  0.5814
 2357TIP3    H228563   6.122   2.588   4.777 -0.0828 -0.1097 -0.6006
 2358TIP3   OH228564   5.042   4.724   5.068 -0.1486  0.5163 -0.1800
 2358TIP3    H128565   5.054   4.722   4.973  0.3714 -0.2147 -0.1083
 2358TIP3    H228566   5.032   4.632   5.093 -0.0478  0.6829  0.5005
 2359TIP3   OH228567   5.857   5.251   2.111  0.2201  0.5074 -0.1469
 2359TIP3    H128568   5.906   5.333   2.105  0.4555  0.4035  0.2652
 2359TIP3    H228569   5.791   5.256   2.042 -0.4560  1.5093  0.5338
 2360TIP3   OH228570   1.967   6.573   5.300 -0.5028  0.5647 -0.2216
 2360TIP3    H128571   2.040   6.512   5.301 -2.3127 -1.7891 -1.0080
 2360TIP3    H228572   1.970   6.617   5.385 -0.6687 -2.6884  1.6031
 2361TIP3   OH228573   3.498   2.892   3.440  0.1566 -0.2606 -0.0974
 2361TIP3    H128574   3.485   2.819   3.380 -0.2606 -1.0345  0.8905
 2361TIP3    H228575   3.577   2.869   3.489  0.3543  0.2415 -0.1717
 2362TIP3   OH228576   4.348   1.438   3.371  0.3129 -0.4791 -0.1720
 2362TIP3    H128577   4.284   1.500   3.406 -1.9944 -3.1619  0.7421
 2362TIP3    H228578   4.314   1.413   3.285  1.8319  0.3074 -1.0417
 2363TIP3   OH228579   4.227   4.166   4.986  0.3742 -1.1094 -0.2067
 2363TIP3    H128580   4.208   4.248   5.030  0.7802 -0.3985 -1.3110
 2363TIP3    H228581   4.303   4.185   4.930  0.8736 -2.3991 -0.0100
 2364TIP3   OH228582   3.654   4.451   4.691 -0.2717  0.0671  0.4801
 2364TIP3    H128583   3.597   4.481   4.620  0.3261 -0.7153 -0.3624
 2364TIP3    H228584   3.596   4.402   4.749 -0.7380  0.5780  0.4528
 2365TIP3   OH228585   0.011   1.443   0.491  0.5417  0.2348  0.1008
 2365TIP3    H128586   0.036   1.362   0.447 -0.2482 -0.4603  0.9129
 2365TIP3    H228587  -0.080   1.457   0.467  0.4629  0.5023  0.5499
 2366TIP3   OH228588   5.287   6.564  15.398  0.9444  0.2657  0.2070
 2366TIP3    H128589   5.233   6.619  15.341  0.1104 -1.8032 -1.1508
 2366TIP3    H228590   5.369   6.553  15.350  0.8579 -0.1909  0.1625
 2367TIP3   OH228591   4.195   2.459   4.509  0.4053  0.2069  0.4646
 2367TIP3    H128592   4.201   2.373   4.550 -0.7696 -0.1820 -0.1205
 2367TIP3    H228593   4.106   2.462   4.472 -0.0250  2.1387  1.5178
 2368TIP3   OH228594   4.333   4.119  17.046  0.0823  0.4758 -0.3901
 2368TIP3    H128595   4.328   4.032  17.005  0.1357  0.0888  0.4058
 2368TIP3    H228596   4.247   4.131  17.086 -0.6958  1.7168 -2.2741
 2369TIP3   OH228597   5.990   2.168   5.117  0.0801  0.1580  0.5376
 2369TIP3    H128598   6.034   2.083   5.124 -1.1073 -0.4401  0.8705
 2369TIP3    H228599   5.897   2.147   5.110 -0.3536  1.4639  1.8632
 2370TIP3   OH228600   5.326   1.883   5.526 -0.0299  0.3682  0.5626
 2370TIP3    H128601   5.381   1.865   5.449  0.2366 -0.2803  0.8977
 2370TIP3    H228602   5.364   1.961   5.565  0.2869  0.2734  0.4496
 2371TIP3   OH228603   6.397   1.632  15.629  0.1409 -0.3741 -0.1703
 2371TIP3    H128604   6.321   1.688  15.616 -0.5408 -1.1003  0.6239
 2371TIP3    H228605   6.416   1.638  15.723  1.8417  0.7717 -0.5279
 2372TIP3   OH228606   5.103   2.785   0.957 -0.1893 -0.0704  0.0303
 2372TIP3    H128607   5.187   2.759   0.994  0.2130  0.1230 -0.7394
 2372TIP3    H228608   5.103   2.881   0.961  0.0796 -0.0245 -0.9464
 2373TIP3   OH228609   4.764   6.461  13.500  0.7160 -0.3393  0.3248
 2373TIP3    H128610   4.790   6.369  13.504  1.4671 -0.1518 -0.0803
 2373TIP3    H228611   4.835   6.508  13.543  0.0586  0.0040  1.0478
 2374TIP3   OH228612   3.831   1.295   0.835 -0.1414  0.2694  0.0730
 2374TIP3    H128613   3.918   1.333   0.829 -0.6300  1.7253  1.2948
 2374TIP3    H228614   3.773   1.362   0.798 -0.9211  0.2570  1.2084
 2375TIP3   OH228615   5.506   2.773   4.767  0.0408 -0.1434 -0.6218
 2375TIP3    H128616   5.543   2.717   4.835  2.2714 -0.4875 -1.9952
 2375TIP3    H228617   5.460   2.842   4.815  0.5982 -0.9690  1.1931
 2376TIP3   OH228618   0.573   5.409  11.562  0.2988  0.0707  0.3572
 2376TIP3    H128619   0.641   5.356  11.604  0.6694  1.0417  1.0159
 2376TIP3    H228620   0.578   5.386  11.469  1.1187 -0.3161  0.4892
 2377TIP3   OH228621   4.992   5.694  15.825 -0.2019 -0.2409  0.1310
 2377TIP3    H128622   4.906   5.652  15.831 -0.0138 -1.1643 -2.4817
 2377TIP3    H228623   5.040   5.662  15.901 -1.9798 -0.1197  1.3510
 2378TIP3   OH228624   3.147   1.466  14.030 -0.5265  0.0293  0.5013
 2378TIP3    H128625   3.206   1.399  14.064 -1.2203 -1.2701 -0.7237
 2378TIP3    H228626   3.185   1.492  13.946  0.0981  1.7120  1.2695
 2379TIP3   OH228627   4.566   6.138   0.811 -0.1664 -0.2064  0.0296
 2379TIP3    H128628   4.525   6.192   0.743 -0.2287  2.7279  2.2232
 2379TIP3    H228629   4.660   6.153   0.798 -0.1679  0.1034  0.3581
 2380TIP3   OH228630   1.727   2.419  14.498 -0.3967 -0.1883 -0.0088
 2380TIP3    H128631   1.789   2.481  14.537  0.3598 -0.6118 -0.5184
 2380TIP3    H228632   1.657   2.475  14.463  1.1714  0.6018 -2.1203
 2381TIP3   OH228633   2.766   1.809  12.645  0.3549 -0.9678  0.2865
 2381TIP3    H128634   2.815   1.878  12.689  0.6960 -1.9791  1.5846
 2381TIP3    H228635   2.707   1.854  12.585  0.8497  0.4080  0.8153
 2382TIP3   OH228636   0.530   5.347  13.453 -0.3746 -0.0587  0.3731
 2382TIP3    H128637   0.517   5.430  13.498 -0.9235 -0.0997  0.2946
 2382TIP3    H228638   0.529   5.282  13.523 -0.3096 -0.0361  0.3959
 2383TIP3   OH228639   4.368   2.565  15.036 -0.0194 -0.4754 -0.2093
 2383TIP3    H128640   4.405   2.590  15.121 -0.3535 -0.4152 -0.0809
 2383TIP3    H228641   4.429   2.600  14.972  0.7213 -1.2904  0.0195
 2384TIP3   OH228642   0.054   0.661   2.144  0.4255  0.2735  0.2321
 2384TIP3    H128643   0.014   0.665   2.231 -0.6801  0.6080 -0.2711
 2384TIP3    H228644   0.118   0.732   2.144  0.1766  0.5032  0.6535
 2385TIP3   OH228645   3.830   2.552  15.635  0.2132  0.5029  0.0456
 2385TIP3    H128646   3.755   2.522  15.584  0.8769 -0.4965 -0.3654
 2385TIP3    H228647   3.902   2.553  15.572  0.5898  1.2722  0.4817
 2386TIP3   OH228648   6.236   2.837   1.612  0.1490 -0.1332  0.5166
 2386TIP3    H128649   6.224   2.827   1.707  1.3620 -0.7390  0.6239
 2386TIP3    H228650   6.258   2.749   1.582  1.3623  0.3515 -0.0745
 2387TIP3   OH228651   1.070   3.700   2.271 -0.8265  0.3403 -0.0672
 2387TIP3    H128652   1.057   3.631   2.206  0.4043 -0.3505  0.3824
 2387TIP3    H228653   1.150   3.674   2.317 -1.5730  0.9056  1.6137
 2388TIP3   OH228654   4.973   0.415  16.248 -0.3869 -0.1379  0.5436
 2388TIP3    H128655   4.932   0.386  16.166  0.0995  0.3098  0.1384
 2388TIP3    H228656   4.904   0.405  16.314 -0.3048 -2.0896  0.4114
 2389TIP3   OH228657   3.790   5.605  16.208 -0.4131 -0.4110 -0.5866
 2389TIP3    H128658   3.728   5.651  16.264  0.7978  0.0280  0.4517
 2389TIP3    H228659   3.864   5.665  16.200 -0.0647 -0.9522 -1.7180
 2390TIP3   OH228660   6.700   4.312  10.843 -0.7808  0.2145  0.2054
 2390TIP3    H128661   6.765   4.254  10.804 -0.4567 -1.0315  2.4449
 2390TIP3    H228662   6.633   4.253  10.878 -2.0776  1.3790 -0.2450
 2391TIP3   OH228663   0.933   2.116  11.912 -0.3616  0.0305 -0.5160
 2391TIP3    H128664   0.905   2.066  11.989 -0.5451  0.0207 -0.5883
 2391TIP3    H228665   0.912   2.060  11.838 -0.3031  0.0938 -0.5812
 2392TIP3   OH228666   0.342   3.661  13.120 -0.3386 -0.0337  0.3098
 2392TIP3    H128667   0.280   3.732  13.139  0.1974  0.6107 -0.3195
 2392TIP3    H228668   0.417   3.680  13.177 -0.6492 -0.7303  0.9620
 2393TIP3   OH228669   1.498   5.218  14.101 -0.6187  0.4316 -0.3313
 2393TIP3    H128670   1.456   5.296  14.136  1.6946  0.6823  2.2073
 2393TIP3    H228671   1.460   5.207  14.014 -1.2822  4.1654 -0.6702
 2394TIP3   OH228672   6.263   3.870   0.970 -0.3858 -0.0623  0.4921
 2394TIP3    H128673   6.173   3.885   0.939  0.2875  0.7703 -1.2112
 2394TIP3    H228674   6.277   3.776   0.958 -0.2942  0.1517 -1.5151
 2395TIP3   OH228675   4.852   5.743   2.682  0.5410  0.3170 -0.1579
 2395TIP3    H128676   4.809   5.823   2.712  1.0973  0.2418  0.8932
 2395TIP3    H228677   4.781   5.684   2.660  0.0336  1.8505 -3.2768
 2396TIP3   OH228678   4.887   0.216  15.255  0.4005  0.0682  0.1384
 2396TIP3    H128679   4.860   0.147  15.316  0.7403 -0.6663 -0.5169
 2396TIP3    H228680   4.968   0.183  15.216  0.0452  0.3864 -0.9152
 2397TIP3   OH228681   4.200   3.819  13.614  0.1415  0.0085  0.5261
 2397TIP3    H128682   4.224   3.736  13.656  0.8130 -0.3882 -0.6126
 2397TIP3    H228683   4.156   3.793  13.533 -0.8328  0.7752  0.7811
 2398TIP3   OH228684   4.285   0.239   5.940 -0.6741 -0.4564  0.2275
 2398TIP3    H128685   4.297   0.297   5.865 -1.7493  0.4892  0.7553
 2398TIP3    H228686   4.190   0.230   5.948 -0.5382 -1.8510  0.5060
 2399TIP3   OH228687   2.060   2.045  15.681 -0.2126 -0.5646  0.2407
 2399TIP3    H128688   2.035   1.964  15.637 -0.8056  0.4438 -1.3657
 2399TIP3    H228689   1.997   2.055  15.752  0.7166 -2.1795  1.3733
 2400TIP3   OH228690   1.424   3.673   0.105  0.3716 -0.3821 -0.8289
 2400TIP3    H128691   1.360   3.742   0.120  0.7231 -0.5049  1.8436
 2400TIP3    H228692   1.372   3.596   0.081 -0.0437  0.6363 -3.5065
 2401TIP3   OH228693   0.871   5.789   2.128  0.0930 -0.3125  0.1449
 2401TIP3    H128694   0.791   5.748   2.097  0.6772 -0.7297 -0.8810
 2401TIP3    H228695   0.922   5.805   2.048 -0.8000  4.0156  0.2299
 2402TIP3   OH228696   3.644   1.472   4.331  0.5900  0.0387 -0.0167
 2402TIP3    H128697   3.652   1.563   4.361 -2.9899  1.5865 -2.9252
 2402TIP3    H228698   3.734   1.445   4.313  1.8290  2.8469  1.3315
 2403TIP3   OH228699   4.109   4.761   0.178 -0.7844  0.4142  0.1138
 2403TIP3    H128700   4.066   4.835   0.135  0.7556  2.3953  1.7667
 2403TIP3    H228701   4.039   4.717   0.226 -1.9550 -0.0035 -1.8605
 2404TIP3   OH228702   5.422   5.609   5.352  0.4724 -0.4535  0.0355
 2404TIP3    H128703   5.367   5.568   5.285 -0.4089 -1.5441  1.3677
 2404TIP3    H228704   5.510   5.573   5.337  0.5051  0.0603 -1.1008
 2405TIP3   OH228705   6.641   0.236  14.087 -0.0580  0.3897 -0.3721
 2405TIP3    H128706   6.575   0.179  14.126 -0.9594  2.6247  1.6225
 2405TIP3    H228707   6.723   0.209  14.126 -0.1450 -0.7467 -0.9313
 2406TIP3   OH228708   3.392   3.021   3.070  0.2600  0.4377  0.4858
 2406TIP3    H128709   3.329   3.006   2.999  2.2745  1.8935 -1.7787
 2406TIP3    H228710   3.341   3.065   3.138 -1.3754  0.6996 -0.8351
 2407TIP3   OH228711   1.128   5.118   0.546 -0.3234 -0.3593 -0.2945
 2407TIP3    H128712   1.103   5.026   0.537 -0.9191 -0.1050 -1.3724
 2407TIP3    H228713   1.067   5.152   0.612  0.0148 -0.7767  0.2372
 2408TIP3   OH228714   3.731   3.602  12.047  0.5875 -0.1350 -0.2258
 2408TIP3    H128715   3.786   3.673  12.082 -0.0027  0.7060 -0.9596
 2408TIP3    H228716   3.699   3.556  12.125 -0.8109  1.7709  0.3936
 2409TIP3   OH228717   6.441   5.472  14.581 -0.7506 -0.2365 -0.4312
 2409TIP3    H128718   6.409   5.458  14.671  1.1962 -0.6374  0.2423
 2409TIP3    H228719   6.441   5.384  14.542  0.7638 -0.4679  0.0365
 2410TIP3   OH228720   3.368   2.076   4.692 -0.1264  0.5285 -0.0049
 2410TIP3    H128721   3.441   2.121   4.735  0.2408 -1.8335  2.0821
 2410TIP3    H228722   3.408   2.031   4.618 -0.2861  2.4429 -1.3544
 2411TIP3   OH228723   1.114   5.961   0.063  0.2808 -0.0608 -0.1157
 2411TIP3    H128724   1.078   6.020   0.129  0.9316 -0.9727  1.1064
 2411TIP3    H228725   1.136   6.018  -0.011 -2.2181  0.7250 -0.3354
 2412TIP3   OH228726   1.811   0.603   1.125  0.1075  0.2173  0.1791
 2412TIP3    H128727   1.752   0.627   1.054  1.4719 -2.0346 -1.8870
 2412TIP3    H228728   1.849   0.686   1.154 -2.2299  1.4450 -0.0369
 2413TIP3   OH228729   6.735   1.061  13.606 -0.1239  0.1894  0.0123
 2413TIP3    H128730   6.727   1.137  13.548 -1.3130 -1.0579 -1.5418
 2413TIP3    H228731   6.828   1.037  13.602  0.0898  1.0206 -0.1668
 2414TIP3   OH228732   3.409   4.689   3.573  0.3657  0.0921  0.1093
 2414TIP3    H128733   3.347   4.683   3.500 -0.0451 -1.3984  0.5501
 2414TIP3    H228734   3.355   4.708   3.649  0.5986  0.0251  0.2914
 2415TIP3   OH228735   3.692   2.070  16.724 -0.0733 -0.4719  0.3745
 2415TIP3    H128736   3.761   2.107  16.780  2.0295 -1.9378 -1.0919
 2415TIP3    H228737   3.610   2.102  16.762  1.2737 -0.5558  3.6532
 2416TIP3   OH228738   6.005   0.916  15.359 -0.6893  0.4315 -0.0548
 2416TIP3    H128739   6.085   0.872  15.328 -1.1634 -0.1729 -0.4413
 2416TIP3    H228740   5.999   0.891  15.452 -1.1003 -0.5588 -0.3384
 2417TIP3   OH228741   2.112   5.082   6.163 -0.7133 -0.1262  0.1092
 2417TIP3    H128742   2.071   5.168   6.153  1.2287  0.8619  0.1684
 2417TIP3    H228743   2.104   5.042   6.077 -1.0112  0.4120 -0.1185
 2418TIP3   OH228744   2.812   4.081   1.105  0.5900  0.0604  0.0089
 2418TIP3    H128745   2.782   3.991   1.118  0.5510  0.0292 -0.2898
 2418TIP3    H228746   2.851   4.106   1.188 -0.7118  0.2790  0.5833
 2419TIP3   OH228747   4.710   5.233   5.096  0.2695 -0.6154  0.3024
 2419TIP3    H128748   4.618   5.239   5.121  0.0561  0.4333 -0.6775
 2419TIP3    H228749   4.723   5.304   5.033  1.8912 -0.4067  0.8332
 2420TIP3   OH228750   1.298   3.939  13.770 -0.2940 -0.8225 -0.0583
 2420TIP3    H128751   1.209   3.944  13.737 -0.7610 -0.6790  1.1735
 2420TIP3    H228752   1.323   3.847  13.758 -0.3945 -0.7539 -0.8882
 2421TIP3   OH228753   3.868   3.814   2.465 -0.4608  0.1873 -0.2656
 2421TIP3    H128754   3.940   3.778   2.414  0.4334  2.9608 -1.1436
 2421TIP3    H228755   3.886   3.787   2.555  0.8769 -0.3628 -0.6837
 2422TIP3   OH228756   0.903   0.808   0.112 -0.3263  0.2640  0.1431
 2422TIP3    H128757   0.875   0.849   0.030 -1.4965  1.2776  1.0019
 2422TIP3    H228758   0.980   0.756   0.089 -1.8569 -1.2210 -2.0299
 2423TIP3   OH228759   6.001   4.202  15.517  0.4985  0.0391  0.2647
 2423TIP3    H128760   6.064   4.143  15.558 -0.1582 -0.4118  0.6288
 2423TIP3    H228761   5.951   4.147  15.457 -1.7818 -0.3729  2.3773
 2424TIP3   OH228762   3.402   6.017   3.915 -0.6101 -0.0771  0.3450
 2424TIP3    H128763   3.377   5.975   3.832 -2.1375 -0.2108  0.8444
 2424TIP3    H228764   3.377   6.109   3.904  0.6046  0.2420  0.1110
 2425TIP3   OH228765   3.267   6.502  15.081 -0.4292  0.3256 -0.1913
 2425TIP3    H128766   3.340   6.536  15.132 -0.3360 -0.3729  0.1598
 2425TIP3    H228767   3.227   6.579  15.041  1.8289  0.5811 -2.2228
 2426TIP3   OH228768   3.292   2.985   1.289 -0.1202 -0.4184  0.2824
 2426TIP3    H128769   3.368   3.029   1.249 -0.3207 -2.3043 -2.4680
 2426TIP3    H228770   3.323   2.955   1.374  2.2515 -1.0772 -0.7260
 2427TIP3   OH228771   0.159   4.832  12.321  0.7025 -0.2212 -0.1977
 2427TIP3    H128772   0.083   4.794  12.276  0.0387  0.5235  0.2738
 2427TIP3    H228773   0.230   4.771  12.304  0.8895  0.7085 -3.5731
 2428TIP3   OH228774   1.641   0.657  14.350  0.3961  0.0242  0.5434
 2428TIP3    H128775   1.664   0.743  14.383  0.1984  0.1214  0.4276
 2428TIP3    H228776   1.584   0.674  14.275  1.6795 -0.1557 -0.5310
 2429TIP3   OH228777   2.036   0.640   5.222 -0.1009  0.1550 -0.3080
 2429TIP3    H128778   2.111   0.591   5.189 -0.7822 -1.6178  0.6618
 2429TIP3    H228779   2.064   0.673   5.307 -0.6462 -1.1961  0.4244
 2430TIP3   OH228780   2.985   2.917   2.537 -0.0527  0.0949 -0.1143
 2430TIP3    H128781   3.002   3.004   2.501 -0.0735  0.4787  0.7780
 2430TIP3    H228782   2.915   2.931   2.601 -1.7254 -0.9630 -1.6209
 2431TIP3   OH228783   5.327   2.747  11.908 -0.5852  0.0232  0.8193
 2431TIP3    H128784   5.292   2.831  11.877 -1.4262 -0.6107 -0.0103
 2431TIP3    H228785   5.256   2.684  11.891 -0.0910 -0.8035  1.7165
 2432TIP3   OH228786   2.422   4.845  17.082  0.0781 -0.2036 -0.1052
 2432TIP3    H128787   2.491   4.791  17.043  0.0578  0.3055 -0.8732
 2432TIP3    H228788   2.424   4.822  17.175  0.7844 -0.7405 -0.2349
 2433TIP3   OH228789   3.625   1.887   1.320  0.3425 -0.1083 -0.0102
 2433TIP3    H128790   3.691   1.831   1.279 -0.8789 -0.3319 -1.8043
 2433TIP3    H228791   3.609   1.956   1.256  0.0561  0.9201  1.1356
 2434TIP3   OH228792   4.173   5.504  13.510 -0.2954  0.5352  0.5901
 2434TIP3    H128793   4.198   5.429  13.563  0.8168 -0.4804 -1.2847
 2434TIP3    H228794   4.256   5.548  13.490 -0.5657  0.2978 -1.1433
 2435TIP3   OH228795   5.640   2.532   1.880 -0.0832 -0.1614  0.1178
 2435TIP3    H128796   5.548   2.556   1.880  0.1781  0.9391 -0.7694
 2435TIP3    H228797   5.668   2.543   1.971 -0.2392  1.9783 -0.0522
 2436TIP3   OH228798   0.763   4.452   3.000 -0.2529 -0.8328 -0.5188
 2436TIP3    H128799   0.734   4.539   2.973  0.7611  0.0195  0.9610
 2436TIP3    H228800   0.685   4.397   2.996 -1.0570  0.3122 -0.8365
 2437TIP3   OH228801   2.191   2.788   1.900  0.6178  0.2269  0.1147
 2437TIP3    H128802   2.245   2.722   1.943 -1.9327 -2.5924 -0.6460
 2437TIP3    H228803   2.144   2.740   1.832 -2.0525  2.6624  0.0327
 2438TIP3   OH228804   0.724   1.112   1.152 -0.1768  0.0997  0.2348
 2438TIP3    H128805   0.665   1.168   1.202 -0.8687  0.7420 -1.2461
 2438TIP3    H228806   0.710   1.137   1.061  2.0247 -0.0912 -0.2118
 2439TIP3   OH228807   3.137   2.907   1.079 -0.1375 -0.5771 -0.0865
 2439TIP3    H128808   3.205   2.923   1.145 -0.0821  0.8959 -0.4690
 2439TIP3    H228809   3.090   2.830   1.111  1.7596 -1.7067  0.1421
 2440TIP3   OH228810   4.601   5.874   3.375 -0.0649  0.2699 -0.7116
 2440TIP3    H128811   4.608   5.901   3.466 -2.0169  1.9089 -0.9794
 2440TIP3    H228812   4.585   5.780   3.379 -0.0937  0.3114  0.6254
 2441TIP3   OH228813   2.465   5.702  15.126 -0.4440  0.4751 -0.1511
 2441TIP3    H128814   2.494   5.643  15.057 -1.0912  1.0069 -0.8925
 2441TIP3    H228815   2.369   5.697  15.124 -0.5251  1.8119 -0.4759
 2442TIP3   OH228816   2.711   0.103   5.119 -0.1049 -0.3401  1.1246
 2442TIP3    H128817   2.768   0.062   5.054 -0.0513  1.9251 -0.3961
 2442TIP3    H228818   2.763   0.107   5.199  0.9048 -0.6370  0.4888
 2443TIP3   OH228819   4.546   0.764   3.613  0.2563 -0.1232  0.2147
 2443TIP3    H128820   4.559   0.847   3.660 -0.7013  1.3486 -1.9786
 2443TIP3    H228821   4.575   0.782   3.524 -2.8110 -1.1554 -1.1156
 2444TIP3   OH228822   1.740   2.124  13.089 -0.2226  0.2032  0.2464
 2444TIP3    H128823   1.815   2.065  13.079 -0.7050 -0.3355 -0.3531
 2444TIP3    H228824   1.759   2.175  13.167  1.3208  0.8977 -0.5433
 2445TIP3   OH228825   2.453   5.264   5.809  0.3213 -0.0572  0.0634
 2445TIP3    H128826   2.543   5.247   5.782  0.1720 -1.1880  0.2313
 2445TIP3    H228827   2.444   5.359   5.806  1.0676 -0.0012 -1.4503
 2446TIP3   OH228828   1.608   0.551  16.280  0.0466  0.3011  0.6357
 2446TIP3    H128829   1.527   0.592  16.251  1.1882  0.8666 -2.1384
 2446TIP3    H228830   1.671   0.569  16.210  1.7421 -2.7487  1.1515
 2447TIP3   OH228831   3.014   5.327  16.201  0.0032 -0.3840 -0.2030
 2447TIP3    H128832   2.988   5.308  16.291 -0.9517  1.4213 -0.0342
 2447TIP3    H228833   3.097   5.374  16.210 -0.4071  0.3576 -0.1936
 2448TIP3   OH228834   4.468   2.340   5.840 -0.7038  0.6812  0.2330
 2448TIP3    H128835   4.522   2.409   5.876 -0.6805  0.7527  0.0629
 2448TIP3    H228836   4.504   2.325   5.752 -0.3521  0.0697  0.4732
 2449TIP3   OH228837   3.530   5.979  16.410  1.0136  0.4457 -0.4248
 2449TIP3    H128838   3.614   6.024  16.401  1.5343 -0.4629 -0.2191
 2449TIP3    H228839   3.553   5.890  16.435 -0.0055  0.0944 -0.6921
 2450TIP3   OH228840   0.083   5.082  16.027  0.2112 -0.1232 -0.7037
 2450TIP3    H128841   0.001   5.063  15.980 -0.0940 -1.3471  0.2523
 2450TIP3    H228842   0.091   5.010  16.090  0.6224  1.3938  1.0768
 2451TIP3   OH228843   2.584   2.902  13.443 -0.0240 -0.0855 -0.4321
 2451TIP3    H128844   2.676   2.877  13.452  0.0021 -0.0340 -0.5651
 2451TIP3    H228845   2.571   2.917  13.349 -0.1797 -0.1378 -0.4204
 2452TIP3   OH228846   2.768   1.901   3.977 -0.0308 -0.0918 -0.3968
 2452TIP3    H128847   2.703   1.942   4.034  1.8032  1.4038  0.7604
 2452TIP3    H228848   2.817   1.843   4.035  0.9242  0.3311 -0.7564
 2453TIP3   OH228849   1.553   1.125   4.753 -0.1752  0.2766 -0.0075
 2453TIP3    H128850   1.495   1.065   4.800 -1.9309  0.7404 -1.4805
 2453TIP3    H228851   1.555   1.203   4.808  1.0068 -0.5714  1.2255
 2454TIP3   OH228852   1.409   4.297  11.561 -0.0793  0.5845  0.0184
 2454TIP3    H128853   1.450   4.274  11.478  0.3858 -0.1281  0.4327
 2454TIP3    H228854   1.318   4.313  11.540 -0.4123 -1.5413 -0.3441
 2455TIP3   OH228855   5.928   6.521  11.005 -0.2015 -0.2516 -0.4171
 2455TIP3    H128856   5.876   6.472  11.069 -1.0166  1.7815  0.5424
 2455TIP3    H228857   5.981   6.454  10.962  0.6332 -1.7147  2.6047
 2456TIP3   OH228858   2.561   0.699   3.718  0.2335  0.0086  0.4201
 2456TIP3    H128859   2.558   0.775   3.660  0.9791  0.1340  0.5407
 2456TIP3    H228860   2.582   0.736   3.804 -0.7642 -0.1864  0.7577
 2457TIP3   OH228861   2.933   1.396  12.735 -0.1428 -0.2466  0.2193
 2457TIP3    H128862   2.946   1.458  12.663 -0.5002 -1.0059 -0.5197
 2457TIP3    H228863   3.011   1.340  12.731 -0.1909 -0.3237  0.3826
 2458TIP3   OH228864   4.362   2.748  11.483  0.0432 -0.0677 -0.0209
 2458TIP3    H128865   4.454   2.764  11.464  0.4806 -0.3487  1.6643
 2458TIP3    H228866   4.336   2.821  11.539 -0.8263  0.1273 -0.6609
 2459TIP3   OH228867   1.427   3.694  12.491 -0.1907  0.2546  0.3208
 2459TIP3    H128868   1.457   3.679  12.581  2.6801  1.7258 -0.2389
 2459TIP3    H228869   1.443   3.611  12.446  0.0203  0.0293  0.8032
 2460TIP3   OH228870   5.474   5.836  16.855  0.1181 -0.2400 -0.2829
 2460TIP3    H128871   5.479   5.807  16.946  2.7142  0.1457 -0.2237
 2460TIP3    H228872   5.533   5.777  16.808 -0.9608 -0.2515 -1.6721
 2461TIP3   OH228873   4.040   5.229   0.395 -0.7036 -0.6738  0.2172
 2461TIP3    H128874   4.116   5.285   0.412 -0.1886 -1.3476  0.1843
 2461TIP3    H228875   3.991   5.275   0.327 -1.9095  1.2321  2.2434
 2462TIP3   OH228876   1.690   6.142   5.681  0.2274  0.1908  0.2889
 2462TIP3    H128877   1.705   6.136   5.776  0.9820 -0.3330  0.1461
 2462TIP3    H228878   1.667   6.233   5.666  0.2736  0.3203  0.9548
 2463TIP3   OH228879   4.614   2.319  13.532  0.2681  0.4542  0.4728
 2463TIP3    H128880   4.547   2.260  13.566 -0.2237  0.8133  0.1523
 2463TIP3    H228881   4.580   2.345  13.446  0.2944  1.4922  0.7690
 2464TIP3   OH228882   5.095   5.443  16.040 -0.6820  0.0211  0.3028
 2464TIP3    H128883   5.055   5.375  16.094  0.9482 -0.7422  0.6187
 2464TIP3    H228884   5.173   5.469  16.088 -0.6955  1.3518 -0.3558
 2465TIP3   OH228885   0.853   2.366  11.460 -0.0720 -0.9956  0.9131
 2465TIP3    H128886   0.765   2.404  11.463 -0.0261 -0.9306  3.3751
 2465TIP3    H228887   0.870   2.352  11.367 -2.6336 -0.9071  0.3610
 2466TIP3   OH228888   3.116   6.702   5.646 -0.4615  0.0146  0.0654
 2466TIP3    H128889   3.191   6.705   5.586 -1.1062 -1.0441 -0.8550
 2466TIP3    H228890   3.041   6.685   5.588 -1.0333 -1.6095  1.2191
 2467TIP3   OH228891   6.181   3.081   3.788 -0.4082  0.3261 -0.4465
 2467TIP3    H128892   6.192   3.025   3.865  0.6188 -0.3038 -1.0294
 2467TIP3    H228893   6.157   3.167   3.824  1.4662  0.4287  0.6857
 2468TIP3   OH228894   6.359   0.589  12.852  0.2992 -0.0621 -0.0498
 2468TIP3    H128895   6.362   0.586  12.756  0.1945 -0.2664 -0.0460
 2468TIP3    H228896   6.376   0.499  12.879  0.0160 -0.0640  0.1176
 2469TIP3   OH228897   5.838   3.628  17.000 -0.5358  1.0075  0.4532
 2469TIP3    H128898   5.822   3.706  17.053 -0.7410  0.4815  1.1760
 2469TIP3    H228899   5.923   3.645  16.958  0.8860  0.3973  2.9034
 2470TIP3   OH228900   0.614   0.398  15.409  0.2462  0.1614 -0.2934
 2470TIP3    H128901   0.653   0.393  15.496  0.4204  0.5610 -0.3468
 2470TIP3    H228902   0.589   0.490  15.398  1.2707  0.3648 -1.1087
 2471TIP3   OH228903   5.967   5.985  15.696  0.1203 -0.2090  0.2991
 2471TIP3    H128904   5.897   5.919  15.689 -0.1427  0.2821 -3.0916
 2471TIP3    H228905   6.021   5.953  15.768 -0.3093 -3.8670 -0.7613
 2472TIP3   OH228906   4.635   5.767  11.878  0.2995  0.0901  0.1324
 2472TIP3    H128907   4.638   5.769  11.783  2.6279  1.2589  0.1610
 2472TIP3    H228908   4.619   5.858  11.904 -0.9038 -0.3095  0.8897
 2473TIP3   OH228909   5.530   5.908   1.676 -0.3347  0.1841 -0.6092
 2473TIP3    H128910   5.582   5.984   1.651 -0.0515  0.0271 -0.5062
 2473TIP3    H228911   5.569   5.835   1.628 -0.3262  0.0295 -0.3723
 2474TIP3   OH228912   0.625   2.318   2.264  0.1712 -0.1674 -0.7301
 2474TIP3    H128913   0.681   2.244   2.285  0.4344  0.5771  1.4839
 2474TIP3    H228914   0.672   2.394   2.300 -1.1468  0.7589 -0.8957
 2475TIP3   OH228915   6.212   4.524  13.665 -0.3494  0.4284  0.2093
 2475TIP3    H128916   6.210   4.429  13.678 -0.0773 -0.1007 -2.9920
 2475TIP3    H228917   6.257   4.536  13.582  1.4812  3.5447  1.4968
 2476TIP3   OH228918   0.847   6.771  16.738 -0.8347 -0.0055  0.2095
 2476TIP3    H128919   0.828   6.827  16.813  0.5429  0.1924  0.4518
 2476TIP3    H228920   0.840   6.828  16.662 -0.9074  0.1289  0.3174
 2477TIP3   OH228921   1.451   5.129  10.447 -0.0605 -0.4342  0.4620
 2477TIP3    H128922   1.475   5.221  10.440 -0.4882 -0.1983  1.8130
 2477TIP3    H228923   1.371   5.121  10.396  1.2517 -0.6181 -1.7054
 2478TIP3   OH228924   4.762   4.331   3.308 -0.1002  0.0443  0.0120
 2478TIP3    H128925   4.678   4.357   3.345  0.6966  1.2858  1.0492
 2478TIP3    H228926   4.758   4.359   3.217 -0.8516 -0.0179  0.0220
 2479TIP3   OH228927   4.976   1.504  15.782 -0.3212 -0.1625  0.1117
 2479TIP3    H128928   5.024   1.472  15.706 -3.4612  0.5446 -2.3736
 2479TIP3    H228929   4.917   1.432  15.805 -1.7497  0.8208 -0.3489
 2480TIP3   OH228930   3.655   0.310  12.990 -0.5238  0.4334  0.4783
 2480TIP3    H128931   3.739   0.325  13.034 -0.1826 -0.5914  0.2102
 2480TIP3    H228932   3.592   0.359  13.042  0.0595  0.2486  1.3927
 2481TIP3   OH228933   1.617   6.507  14.150  0.0012  0.5095 -0.3865
 2481TIP3    H128934   1.564   6.442  14.104  1.6278 -0.6739 -0.6615
 2481TIP3    H228935   1.636   6.573  14.083 -3.1113  2.3176  0.3155
 2482TIP3   OH228936   2.036   6.217  10.841 -0.4068  0.2051 -0.2557
 2482TIP3    H128937   2.037   6.222  10.936 -1.3420  1.2860 -0.2877
 2482TIP3    H228938   2.044   6.123  10.821  0.2660  0.0139  0.8586
 2483TIP3   OH228939   4.288   4.533  12.181 -1.1225 -0.1066  0.1088
 2483TIP3    H128940   4.314   4.509  12.270 -2.1437 -0.4182  0.3378
 2483TIP3    H228941   4.313   4.458  12.127  0.0453  0.3292  0.0171
 2484TIP3   OH228942   5.214   0.905   4.931  0.1999  0.8767  0.4836
 2484TIP3    H128943   5.269   0.883   5.007 -1.0451 -1.8564  0.6751
 2484TIP3    H228944   5.145   0.961   4.967  0.2399  0.5122  1.1377
 2485TIP3   OH228945   1.706   1.644   1.011  0.3441 -0.2365  0.4046
 2485TIP3    H128946   1.720   1.575   0.946 -1.2490  0.5807 -0.9023
 2485TIP3    H228947   1.724   1.725   0.963 -0.9956  0.4005  0.9142
 2486TIP3   OH228948   0.939   1.938  11.634  0.2697  0.0946  0.3195
 2486TIP3    H128949   0.956   1.846  11.655  0.8461  0.4369  1.4354
 2486TIP3    H228950   0.885   1.935  11.555  0.9055 -1.1841 -0.1012
 2487TIP3   OH228951   3.824   2.932   3.333 -0.2091  0.1933 -0.0139
 2487TIP3    H128952   3.835   3.027   3.327  2.4382 -0.1236 -1.6238
 2487TIP3    H228953   3.833   2.913   3.427  0.5520  1.3985  0.1795
 2488TIP3   OH228954   5.286   2.110   4.237  0.5841 -0.0768  0.0877
 2488TIP3    H128955   5.335   2.041   4.190 -0.0954  0.7661 -1.9875
 2488TIP3    H228956   5.353   2.168   4.272  1.1384  0.1367 -1.2690
 2489TIP3   OH228957   6.458   1.434  10.429 -0.2546  0.1401 -0.3367
 2489TIP3    H128958   6.409   1.380  10.491 -0.1843 -0.6219 -0.9290
 2489TIP3    H228959   6.545   1.393  10.426 -0.6301 -0.6356 -1.8833
 2490TIP3   OH228960   5.022   5.952   0.122 -0.0408 -0.4068  0.0607
 2490TIP3    H128961   5.111   5.925   0.102  0.3154  0.9999 -0.3815
 2490TIP3    H228962   5.032   6.040   0.159 -1.2723 -0.0781 -0.3571
 2491TIP3   OH228963   5.923   2.968  16.447  0.4410 -0.1572 -0.2611
 2491TIP3    H128964   5.984   3.000  16.380  0.1699  0.8699 -0.0417
 2491TIP3    H228965   5.885   2.888  16.409  0.9828 -0.1051 -0.9303
 2492TIP3   OH228966   6.418   1.452   3.305 -0.1680  0.0659  0.2934
 2492TIP3    H128967   6.421   1.367   3.349 -2.3613 -0.4461 -0.4405
 2492TIP3    H228968   6.422   1.431   3.212 -1.6126  0.6473  0.0692
 2493TIP3   OH228969   2.375   2.977   1.794  0.1936  0.1341  0.6196
 2493TIP3    H128970   2.316   2.913   1.832 -2.1999  2.6893  1.5860
 2493TIP3    H228971   2.447   2.985   1.856 -0.9257  0.3770  1.9137
 2494TIP3   OH228972   1.980   5.648  16.307 -0.3252  0.0656  0.4592
 2494TIP3    H128973   1.973   5.742  16.326  1.1781 -0.1559  2.2978
 2494TIP3    H228974   1.968   5.605  16.392 -2.3627 -1.5475 -0.5398
 2495TIP3   OH228975   5.851   0.733  12.450 -0.0930 -0.5082  0.4649
 2495TIP3    H128976   5.938   0.749  12.487 -0.3019  0.7047  0.4729
 2495TIP3    H228977   5.830   0.814  12.404 -0.8201 -1.1475 -0.3513
 2496TIP3   OH228978   0.599   4.563  11.875 -0.8606  0.1113 -0.4304
 2496TIP3    H128979   0.529   4.553  11.939 -1.0068  0.5814 -0.5197
 2496TIP3    H228980   0.645   4.642  11.901 -0.1740 -0.3521 -0.1970
 2497TIP3   OH228981   2.488   6.306   4.416 -0.1293 -0.3416  0.1966
 2497TIP3    H128982   2.574   6.264   4.416 -0.4980 -1.1371  0.8070
 2497TIP3    H228983   2.444   6.269   4.493 -1.2538 -0.4392 -0.4697
 2498TIP3   OH228984   0.940   3.075  11.411  0.4663  0.4543  0.5860
 2498TIP3    H128985   0.890   3.138  11.463  0.5996  1.5355 -0.5132
 2498TIP3    H228986   0.987   3.023  11.474 -1.5353 -0.1823  1.6445
 2499TIP3   OH228987   4.320   5.542  11.235 -0.4444 -0.2075 -0.3088
 2499TIP3    H128988   4.242   5.497  11.267 -1.3390  1.8975  0.6388
 2499TIP3    H228989   4.364   5.573  11.314 -0.1081  0.9485 -0.9259
 2500TIP3   OH228990   4.145   2.699  12.302  0.1575 -0.2875  0.0852
 2500TIP3    H128991   4.115   2.765  12.364  1.1203  1.1424 -0.9285
 2500TIP3    H228992   4.181   2.748  12.229 -0.4164 -1.9264 -1.3800
 2501TIP3   OH228993   5.931   6.674   4.202 -0.1311  0.4610 -0.3430
 2501TIP3    H128994   5.929   6.685   4.107  0.8671  1.4747 -0.2678
 2501TIP3    H228995   6.014   6.630   4.219  0.6579  2.1003  0.2003
 2502TIP3   OH228996   1.221   5.315   2.740 -0.5922  0.2707 -0.2203
 2502TIP3    H128997   1.234   5.290   2.832 -0.4483  1.4690  0.1112
 2502TIP3    H228998   1.226   5.411   2.741  0.7214  0.2503 -1.6903
 2503TIP3   OH228999   3.742   4.018  11.867 -0.7269 -0.2916  0.0985
 2503TIP3    H129000   3.819   3.984  11.822  0.4950 -0.0419  1.9164
 2503TIP3    H229001   3.693   3.940  11.893 -1.6767 -0.4339 -1.9483
 2504TIP3   OH229002   6.654   6.170   1.583  0.0174 -0.2001  0.1582
 2504TIP3    H129003   6.728   6.199   1.637 -0.3188 -0.1394  0.5982
 2504TIP3    H229004   6.654   6.230   1.508  0.2387 -0.0170  0.3018
 2505TIP3   OH229005   4.328   2.875   4.017 -0.1325 -0.0117  0.5333
 2505TIP3    H129006   4.392   2.825   3.968 -0.6737  1.2050 -1.5284
 2505TIP3    H229007   4.357   2.870   4.108  0.7478 -2.5847  0.1707
 2506TIP3   OH229008   4.771   6.632   4.605 -0.4586  0.4747  0.2442
 2506TIP3    H129009   4.791   6.539   4.609  0.8975  0.7178 -0.5319
 2506TIP3    H229010   4.856   6.676   4.608 -1.0847  1.7112  0.8666
 2507TIP3   OH229011   6.491   5.896  12.269 -0.5610 -0.4999  0.4842
 2507TIP3    H129012   6.426   5.959  12.237 -0.0542  0.4429  1.2833
 2507TIP3    H229013   6.541   5.872  12.191 -0.5379  0.3582  0.2239
 2508TIP3   OH229014   3.569   0.595  15.714  0.1517  0.1426  0.0902
 2508TIP3    H129015   3.613   0.680  15.705 -0.7900  0.5594 -0.8593
 2508TIP3    H229016   3.637   0.536  15.744  0.1080  1.9434  4.5087
 2509TIP3   OH229017   1.960   4.609   5.410  0.2972 -0.4526 -0.0546
 2509TIP3    H129018   1.974   4.515   5.404 -0.5246 -0.5464 -0.7763
 2509TIP3    H229019   1.989   4.643   5.325  0.3392 -0.0875  0.1025
 2510TIP3   OH229020   5.436   2.185   2.201  0.1200 -0.1639  0.3667
 2510TIP3    H129021   5.467   2.161   2.289 -0.9698  0.2581  0.8804
 2510TIP3    H229022   5.362   2.243   2.217  0.1263  0.1998 -0.8467
 2511TIP3   OH229023   2.704   6.092  10.734 -0.0976 -1.1374 -0.3066
 2511TIP3    H129024   2.728   6.171  10.782 -1.9211 -1.4566  1.2288
 2511TIP3    H229025   2.788   6.054  10.706  0.9228  0.1112  0.9304
 2512TIP3   OH229026   0.113   3.450   2.869  0.1469 -0.1408  0.1132
 2512TIP3    H129027   0.110   3.371   2.923  1.6848 -0.8031 -0.7042
 2512TIP3    H229028   0.178   3.505   2.911  0.0221  0.1343 -0.0557
 2513TIP3   OH229029   3.753   6.013   5.191  0.1021 -0.1341 -0.0163
 2513TIP3    H129030   3.799   5.940   5.233  1.2480  0.9973  0.7647
 2513TIP3    H229031   3.711   6.060   5.264 -1.9699 -0.8756 -0.6662
 2514TIP3   OH229032   5.876   4.124  15.231  0.1656  0.4224  0.5123
 2514TIP3    H129033   5.898   4.217  15.240 -1.5535  0.9001  0.1934
 2514TIP3    H229034   5.784   4.124  15.206  0.0536 -1.3944  0.8134
 2515TIP3   OH229035   6.487   6.582   4.823 -0.6726  0.1970 -0.1071
 2515TIP3    H129036   6.458   6.649   4.762 -1.7253  0.7938  1.0118
 2515TIP3    H229037   6.436   6.597   4.902  1.2472 -0.0048  1.2544
 2516TIP3   OH229038   2.493   4.471   1.407  0.2091  0.5255 -0.1747
 2516TIP3    H129039   2.415   4.421   1.431  1.5080 -0.8819  1.3218
 2516TIP3    H229040   2.554   4.458   1.480  2.5833 -0.0138 -2.1289
 2517TIP3   OH229041   6.000   5.213   6.450 -0.0250 -0.3756  0.2602
 2517TIP3    H129042   5.936   5.255   6.393  1.8450 -0.9865 -2.4715
 2517TIP3    H229043   6.077   5.270   6.446  0.5660 -1.0683  1.2459
 2518TIP3   OH229044   5.509   5.056  16.596  0.4585  0.0358 -0.4892
 2518TIP3    H129045   5.434   5.094  16.552  0.1464 -0.9814 -0.8692
 2518TIP3    H229046   5.562   5.131  16.622 -0.8881  0.7915  0.1699
 2519TIP3   OH229047   6.760   5.947  13.997  0.2064  0.0866 -0.2464
 2519TIP3    H129048   6.742   5.900  14.078 -1.9569  0.3628 -0.5115
 2519TIP3    H229049   6.849   5.921  13.974  0.6597 -0.4436  1.8898
 2520TIP3   OH229050   6.513   1.339  13.193  0.3714 -0.3020 -0.0397
 2520TIP3    H129051   6.572   1.320  13.120  2.8489  0.2996  1.7006
 2520TIP3    H229052   6.426   1.345  13.152  1.5618 -0.5268 -2.8182
 2521TIP3   OH229053   3.047   6.150   4.955  0.7951  0.3822  0.3058
 2521TIP3    H129054   3.004   6.215   4.900 -0.0009 -0.4654 -0.0837
 2521TIP3    H229055   3.043   6.069   4.905  2.5195  0.1770  0.4127
 2522TIP3   OH229056   3.350   0.416   2.657 -0.2569 -0.7516  0.2119
 2522TIP3    H129057   3.340   0.353   2.728  0.1443  0.5885  1.4939
 2522TIP3    H229058   3.276   0.397   2.598  0.4818 -3.1120 -0.0409
 2523TIP3   OH229059   1.445   6.049   5.206  0.5533 -0.4197 -0.1371
 2523TIP3    H129060   1.385   6.043   5.132  2.5998  0.1768 -1.9102
 2523TIP3    H229061   1.388   6.072   5.280 -1.4932 -0.6128 -1.5669
 2524TIP3   OH229062   0.558   0.765   1.863 -0.1946 -0.1172  0.4881
 2524TIP3    H129063   0.539   0.813   1.943 -1.0246 -0.2287  0.3644
 2524TIP3    H229064   0.563   0.673   1.890  0.0205 -0.1051  0.4926
 2525TIP3   OH229065   3.684   1.102   4.400 -0.1080 -0.5033 -0.2589
 2525TIP3    H129066   3.693   1.186   4.355 -1.6782 -0.4977 -0.6070
 2525TIP3    H229067   3.695   1.124   4.493  0.3503 -0.0635 -0.4122
 2526TIP3   OH229068   5.666   3.831  11.259  0.4696  0.2274  0.4468
 2526TIP3    H129069   5.618   3.750  11.245  0.1654  0.5951 -0.7373
 2526TIP3    H229070   5.754   3.803  11.286  0.2877 -0.4780  0.3013
 2527TIP3   OH229071   4.979   6.629   0.504  0.2136  0.5815  0.6102
 2527TIP3    H129072   5.070   6.656   0.521  1.4218 -3.3120  1.3223
 2527TIP3    H229073   4.964   6.654   0.413  2.0178  1.3243  0.4696
 2528TIP3   OH229074   6.674   6.488  11.110 -0.8144 -0.3151  0.2213
 2528TIP3    H129075   6.640   6.569  11.148 -1.9832 -1.3064  1.3862
 2528TIP3    H229076   6.715   6.443  11.183 -0.5316 -0.9653 -0.3290
 2529TIP3   OH229077   4.210   1.447  15.647  0.0242  0.4061  0.1920
 2529TIP3    H129078   4.127   1.465  15.603 -0.4251  0.7760  1.1526
 2529TIP3    H229079   4.276   1.451  15.578 -0.8729 -1.0090 -0.7995
 2530TIP3   OH229080   4.424   1.987   6.251 -0.0685 -0.4056 -0.0374
 2530TIP3    H129081   4.486   2.026   6.190  0.5459  0.5288  1.1388
 2530TIP3    H229082   4.474   1.975   6.332 -1.5243  0.8353  1.1074
 2531TIP3   OH229083   3.186   5.460   5.191  0.1236 -0.2292  0.0434
 2531TIP3    H129084   3.255   5.423   5.246  0.2598  0.3278  0.2581
 2531TIP3    H229085   3.209   5.553   5.183 -0.6998  0.0091  0.2789
 2532TIP3   OH229086   4.558   4.742   0.331 -0.1973 -0.5540  0.2755
 2532TIP3    H129087   4.467   4.758   0.306 -0.0943  0.6402  0.5833
 2532TIP3    H229088   4.600   4.712   0.251 -0.3252  1.2519 -0.5334
 2533TIP3   OH229089   0.422   1.297   3.034  0.1033  0.4958 -0.0548
 2533TIP3    H129090   0.488   1.334   3.093 -0.5545  0.6657  0.5907
 2533TIP3    H229091   0.343   1.289   3.088 -0.2235 -0.3207 -0.6349
 2534TIP3   OH229092   2.390   6.516  14.956 -0.0804 -0.2116  0.0230
 2534TIP3    H129093   2.349   6.589  15.003  2.3657  0.0838  1.8534
 2534TIP3    H229094   2.474   6.551  14.925  1.0150 -2.1498  0.6853
 2535TIP3   OH229095   0.511   4.366   0.169 -0.2216 -0.6856 -0.4660
 2535TIP3    H129096   0.480   4.453   0.145 -0.6251 -1.0890 -1.4435
 2535TIP3    H229097   0.601   4.362   0.136  0.3516 -0.1120  0.9241
 2536TIP3   OH229098   4.461   3.265  14.633  0.6098  0.5421 -0.2730
 2536TIP3    H129099   4.402   3.301  14.568 -0.0755 -2.0859 -1.2446
 2536TIP3    H229100   4.541   3.244  14.585  0.7982  0.2943  0.1347
 2537TIP3   OH229101   0.527   5.328  16.347  0.2248 -0.4993 -0.1079
 2537TIP3    H129102   0.455   5.367  16.297  1.1387  1.9613  0.3496
 2537TIP3    H229103   0.577   5.279  16.282  0.0030  0.5764 -1.1280
 2538TIP3   OH229104   0.104   4.517   4.489  0.1762 -0.2391 -0.4317
 2538TIP3    H129105   0.116   4.484   4.400  0.8090 -0.2720 -0.3348
 2538TIP3    H229106   0.130   4.609   4.484 -2.0286  0.4407 -0.8149
 2539TIP3   OH229107   5.985   1.697   4.951  0.5439 -0.1919  0.2904
 2539TIP3    H129108   5.914   1.760   4.948 -0.2730 -1.1045 -2.2080
 2539TIP3    H229109   6.048   1.729   4.887  0.9437 -1.0031  0.2663
 2540TIP3   OH229110   2.472   6.230   2.721 -0.5399 -0.5013 -0.0296
 2540TIP3    H129111   2.430   6.182   2.793  0.0229 -0.5691  0.2580
 2540TIP3    H229112   2.477   6.167   2.650 -0.5739 -0.6129  0.0658
 2541TIP3   OH229113   1.212   3.640  10.858  0.2146 -0.5100  0.0987
 2541TIP3    H129114   1.159   3.597  10.791  0.7616  0.4309 -0.9627
 2541TIP3    H229115   1.295   3.594  10.857  0.1146 -0.7028  0.3729
 2542TIP3   OH229116   0.106   4.402  11.330 -0.0567 -0.4836 -0.1756
 2542TIP3    H129117   0.070   4.485  11.360 -2.9226 -1.9057  0.7227
 2542TIP3    H229118   0.076   4.393  11.240 -1.7643 -1.5068  0.4546
 2543TIP3   OH229119   5.322   1.649  14.293 -0.3215  0.0180  0.2575
 2543TIP3    H129120   5.254   1.697  14.246  0.7946 -0.9175 -2.5161
 2543TIP3    H229121   5.375   1.716  14.335 -0.1980  1.1215 -1.5527
 2544TIP3   OH229122   6.389   1.218   4.385  0.1016  0.1666  0.5854
 2544TIP3    H129123   6.452   1.280   4.349 -0.5383  0.4687 -0.0591
 2544TIP3    H229124   6.341   1.186   4.308 -0.1791 -0.4435  1.0092
 2545TIP3   OH229125   3.433   0.795  14.148  0.2186  0.3535  0.0247
 2545TIP3    H129126   3.351   0.825  14.108  0.2719  0.8682  0.2868
 2545TIP3    H229127   3.405   0.748  14.227  0.1188 -0.5620 -0.5409
 2546TIP3   OH229128   1.874   1.532  12.938 -0.1104 -0.1948  0.1972
 2546TIP3    H129129   1.885   1.582  12.857  3.1309  0.2617  0.7745
 2546TIP3    H229130   1.956   1.547  12.986 -1.1682 -1.9378  2.7330
 2547TIP3   OH229131   2.355   5.125  12.309  0.5741 -0.3145  0.2126
 2547TIP3    H129132   2.413   5.054  12.280  0.4360 -0.5131  0.4253
 2547TIP3    H229133   2.387   5.149  12.396 -1.8131 -2.8549  1.9644
 2548TIP3   OH229134   6.732   3.679   5.536  0.0356 -0.3709 -0.0467
 2548TIP3    H129135   6.704   3.619   5.467  0.4405 -1.0135  0.3357
 2548TIP3    H229136   6.653   3.726   5.561 -0.7795 -2.2478  1.1077
 2549TIP3   OH229137   1.391   3.537  11.074 -0.8131  0.1407 -0.6730
 2549TIP3    H129138   1.364   3.605  11.135  1.2196 -0.3407  0.8644
 2549TIP3    H229139   1.483   3.557  11.055 -0.6338 -1.2878 -1.4509
 2550TIP3   OH229140   4.359   2.030   1.711  0.0901 -0.2030 -0.4469
 2550TIP3    H129141   4.334   1.940   1.734  0.0485  0.0362  0.5155
 2550TIP3    H229142   4.420   2.055   1.781  2.1636 -0.3769 -2.1011
 2551TIP3   OH229143   1.444   6.364   3.529  0.0911 -0.1590 -0.2353
 2551TIP3    H129144   1.377   6.341   3.465  0.4901  0.2108 -0.7876
 2551TIP3    H229145   1.526   6.359   3.481  0.6444 -2.0187  0.7792
 2552TIP3   OH229146   3.784   4.683   2.159 -0.2386  0.6117 -0.2754
 2552TIP3    H129147   3.735   4.707   2.081 -4.3253 -2.2024  1.0727
 2552TIP3    H229148   3.760   4.750   2.223  1.3763  1.7040 -0.7630
 2553TIP3   OH229149   1.791   1.087  15.618 -0.3796 -0.4466 -0.4792
 2553TIP3    H129150   1.760   1.108  15.530  0.3023 -0.5704 -0.7548
 2553TIP3    H229151   1.792   0.991  15.621 -1.9973 -0.4730  0.2440
 2554TIP3   OH229152   2.078   6.246   4.342  0.2684 -0.2112 -0.3910
 2554TIP3    H129153   2.163   6.290   4.336  0.5399 -0.7708 -0.7551
 2554TIP3    H229154   2.056   6.224   4.251 -1.0720  1.4165 -0.5031
 2555TIP3   OH229155   4.439   5.616  15.932  0.3664 -0.0223  0.1041
 2555TIP3    H129156   4.429   5.547  15.866  3.5954 -0.5239 -0.0050
 2555TIP3    H229157   4.436   5.569  16.015 -0.9090  0.2499  0.2431
 2556TIP3   OH229158   6.510   2.713  12.058 -0.1438 -0.3939 -0.1309
 2556TIP3    H129159   6.599   2.747  12.066 -0.2171  0.1052 -1.2268
 2556TIP3    H229160   6.504   2.645  12.125  1.6051 -1.6148 -1.1541
 2557TIP3   OH229161   1.761   0.956   5.975 -0.2544  0.1296 -0.4870
 2557TIP3    H129162   1.811   0.927   6.051  0.6812 -0.4320 -1.2965
 2557TIP3    H229163   1.673   0.920   5.989 -0.6344  1.5668  1.2056
 2558TIP3   OH229164   3.057   1.435   4.145 -0.1661 -0.6151 -0.4788
 2558TIP3    H129165   3.110   1.362   4.111  1.0857  0.0911 -0.1198
 2558TIP3    H229166   3.040   1.412   4.236 -0.2997 -0.7465 -0.5368
 2559TIP3   OH229167   0.455   5.009   0.549  0.2231 -0.1869  0.4810
 2559TIP3    H129168   0.402   4.934   0.524  2.7810 -1.4391 -1.6104
 2559TIP3    H229169   0.512   4.977   0.620  0.4537  0.1445  0.4533
 2560TIP3   OH229170   2.279   2.207  16.901 -0.1678 -0.2139  0.2994
 2560TIP3    H129171   2.321   2.291  16.918  3.0982 -1.7050  0.5781
 2560TIP3    H229172   2.289   2.194  16.807  1.0898 -1.0241  0.5126
 2561TIP3   OH229173   5.609   6.719   1.186  0.3108 -0.3737  0.0109
 2561TIP3    H129174   5.627   6.631   1.218 -0.0559 -0.2024  0.6837
 2561TIP3    H229175   5.687   6.769   1.210  0.7674 -0.6384 -0.8745
 2562TIP3   OH229176   2.695   2.931  10.923 -0.6278 -0.6877  0.3220
 2562TIP3    H129177   2.715   2.979  10.842  0.5335 -0.3002  0.8156
 2562TIP3    H229178   2.699   2.839  10.897 -0.6390 -0.5616 -0.1485
 2563TIP3   OH229179   0.002   4.979   9.936 -0.1150  0.3726 -0.2540
 2563TIP3    H129180  -0.023   5.039  10.007 -0.2612  1.4853 -1.2165
 2563TIP3    H229181   0.064   4.918   9.977 -0.6837  0.5959  0.9756
 2564TIP3   OH229182   4.778   5.011  14.402  0.6849 -0.0137 -0.3605
 2564TIP3    H129183   4.712   5.058  14.453  1.3623  0.8072 -0.2111
 2564TIP3    H229184   4.842   4.982  14.467  1.0894  0.2617 -0.6248
 2565TIP3   OH229185   3.471   3.343   6.570 -0.2289  0.2108 -0.6968
 2565TIP3    H129186   3.390   3.390   6.549 -1.2222 -0.8493  0.5964
 2565TIP3    H229187   3.448   3.287   6.644  1.8655  0.3303  0.1151
 2566TIP3   OH229188   2.372   1.731  12.852  0.0110  0.1764  0.3365
 2566TIP3    H129189   2.456   1.689  12.867 -0.2743 -0.5245  0.0186
 2566TIP3    H229190   2.391   1.824  12.853  0.5629  0.0665  1.6217
 2567TIP3   OH229191   6.660   4.904  12.973 -0.2258  0.6644  0.5009
 2567TIP3    H129192   6.731   4.957  13.008 -0.2718  0.2313  1.2622
 2567TIP3    H229193   6.662   4.823  13.024  0.4388 -0.4888 -1.2405
 2568TIP3   OH229194   5.009   0.650  12.689 -0.0710  0.0880  0.2472
 2568TIP3    H129195   4.997   0.561  12.659 -0.0019  0.6025 -1.3893
 2568TIP3    H229196   5.103   0.665  12.685  0.4485 -0.9100  4.1445
 2569TIP3   OH229197   1.115   5.864  11.861 -0.4658  0.4073  0.1121
 2569TIP3    H129198   1.141   5.807  11.934  1.5081  1.6881  0.4940
 2569TIP3    H229199   1.100   5.949  11.903  0.9964  1.2379 -0.9716
 2570TIP3   OH229200   4.195   4.665   5.720 -0.1101  0.3546  0.4021
 2570TIP3    H129201   4.273   4.609   5.728 -0.1166  0.0183 -1.5265
 2570TIP3    H229202   4.126   4.605   5.693  0.1783  1.4093 -3.0480
 2571TIP3   OH229203   4.079   2.406   0.349 -0.3612 -0.0954 -0.1641
 2571TIP3    H129204   4.039   2.393   0.263  1.8066  0.4184 -1.3225
 2571TIP3    H229205   4.034   2.482   0.385  0.1813  1.1071 -1.8644
 2572TIP3   OH229206   2.248   5.141  11.556  0.3176 -0.3729  0.0988
 2572TIP3    H129207   2.241   5.203  11.484 -0.6080 -1.4040 -0.7340
 2572TIP3    H229208   2.315   5.178  11.614 -1.7021  2.5049  0.7755
 2573TIP3   OH229209   5.466   5.362   1.218  0.1400 -0.3029  0.2731
 2573TIP3    H129210   5.463   5.269   1.236  1.5695 -0.6406 -0.9975
 2573TIP3    H229211   5.544   5.373   1.162 -2.3925  0.9337 -3.4248
 2574TIP3   OH229212   0.209   0.293   1.132  0.3450 -0.3805  0.3088
 2574TIP3    H129213   0.187   0.356   1.063 -1.4251  1.1725  2.1442
 2574TIP3    H229214   0.271   0.339   1.188 -0.8262 -0.2688  1.5708
 2575TIP3   OH229215   6.384   1.516   4.859  0.0977  0.2171 -0.6493
 2575TIP3    H129216   6.331   1.593   4.841  1.6149  1.1953 -1.0961
 2575TIP3    H229217   6.390   1.472   4.774  1.2445  0.9365 -0.9583
 2576TIP3   OH229218   6.203   5.825   4.867  0.0575 -0.1616 -0.1211
 2576TIP3    H129219   6.110   5.825   4.848  0.3547 -0.2178 -1.7256
 2576TIP3    H229220   6.211   5.874   4.949 -1.2915  0.5673 -0.3962
 2577TIP3   OH229221   4.685   1.277   5.657  0.7174 -0.2986  0.0359
 2577TIP3    H129222   4.695   1.226   5.576 -0.7197 -0.1452 -0.2706
 2577TIP3    H229223   4.722   1.363   5.635 -0.3528 -0.0129 -0.7345
 2578TIP3   OH229224   2.284   0.920  15.301  0.3851  0.3811  0.0020
 2578TIP3    H129225   2.302   0.939  15.209 -0.2047  1.5234  0.0997
 2578TIP3    H229226   2.329   0.989  15.349  1.9513 -1.0507  0.7010
 2579TIP3   OH229227   3.534   6.674   5.186 -0.0856  0.3150  0.5401
 2579TIP3    H129228   3.578   6.670   5.101 -1.5279 -2.8794 -0.2100
 2579TIP3    H229229   3.464   6.608   5.180 -1.4638  1.3187  3.5591
 2580TIP3   OH229230   3.097   1.129   4.896 -0.3572  0.2270 -0.8362
 2580TIP3    H129231   3.024   1.100   4.841 -0.9148  0.8325 -0.4413
 2580TIP3    H229232   3.101   1.224   4.883  0.8300  0.1122 -1.3986
 2581TIP3   OH229233   3.725   4.090  11.329 -0.2043 -0.0140  0.1552
 2581TIP3    H129234   3.650   4.069  11.274 -1.3480  2.1472  0.7749
 2581TIP3    H229235   3.689   4.097  11.418  0.4943  1.9752  0.3235
 2582TIP3   OH229236   3.008   2.982   4.475  0.3058 -0.2382  0.0650
 2582TIP3    H129237   3.023   3.075   4.456 -1.0646  0.0754  0.4435
 2582TIP3    H229238   2.947   2.982   4.548  1.0452 -1.4552  0.7093
 2583TIP3   OH229239   4.314   5.055  16.742  0.0358 -0.2269 -0.0518
 2583TIP3    H129240   4.240   5.004  16.710 -0.8449  1.0768 -0.1553
 2583TIP3    H229241   4.300   5.062  16.836  0.1356 -0.1503 -0.0419
 2584TIP3   OH229242   0.797   4.541  14.386  0.3468 -0.5239  0.1673
 2584TIP3    H129243   0.797   4.446  14.382  1.9364 -0.5169 -0.8518
 2584TIP3    H229244   0.885   4.567  14.358  0.3094  1.2133  1.4714
 2585TIP3   OH229245   2.726   5.386  14.185  0.2773 -0.1679  0.1361
 2585TIP3    H129246   2.763   5.465  14.145  1.7323 -0.8912  0.0105
 2585TIP3    H229247   2.655   5.360  14.126 -1.7794  2.2814  1.3235
 2586TIP3   OH229248   2.575   0.248  15.314  0.2991  0.3227 -0.0058
 2586TIP3    H129249   2.570   0.294  15.398  0.4000  1.3311 -0.5321
 2586TIP3    H229250   2.525   0.168  15.327  1.7810 -0.4156  1.5555
 2587TIP3   OH229251   2.343   2.979   2.654  0.0181  0.7818  0.4325
 2587TIP3    H129252   2.361   2.924   2.578 -0.1604  0.8707  0.3256
 2587TIP3    H229253   2.259   3.021   2.634 -0.3638  0.2915  0.9622
 2588TIP3   OH229254   2.451   3.307   6.374  0.5225 -0.1224  0.0129
 2588TIP3    H129255   2.468   3.216   6.352  0.2715 -0.5786  1.5833
 2588TIP3    H229256   2.449   3.309   6.470 -2.4147  0.9437  0.0359
 2589TIP3   OH229257   2.847   1.614   2.706 -0.2234 -0.1736 -0.0115
 2589TIP3    H129258   2.836   1.654   2.792 -2.7355  0.8405 -0.7088
 2589TIP3    H229259   2.887   1.682   2.653  0.0037 -0.3045 -0.0102
 2590TIP3   OH229260   3.809   3.351   4.772  0.3721 -0.5088  0.2335
 2590TIP3    H129261   3.837   3.400   4.695 -2.2785  1.6156  0.4655
 2590TIP3    H229262   3.846   3.399   4.846  0.1138 -0.5513  0.3906
 2591TIP3   OH229263   4.980   5.908  11.214  0.0718  0.1202 -0.7442
 2591TIP3    H129264   5.011   5.844  11.278 -0.0283 -1.3372 -2.1016
 2591TIP3    H229265   4.886   5.913  11.229  0.1655  0.4420 -0.2251
 2592TIP3   OH229266   1.036   2.719  12.475  0.4403 -0.0950 -0.7823
 2592TIP3    H129267   1.107   2.750  12.531  1.3256 -1.2125 -1.2609
 2592TIP3    H229268   1.076   2.705  12.390 -0.4107 -0.4887 -1.1295
 2593TIP3   OH229269   5.558   1.065   3.490 -0.4628 -0.0983  0.8441
 2593TIP3    H129270   5.483   1.083   3.546 -1.8370 -1.7910 -0.3795
 2593TIP3    H229271   5.575   0.972   3.500  1.1180  0.1319  0.6356
 2594TIP3   OH229272   4.588   3.043  11.233 -0.3558 -0.2053 -0.1691
 2594TIP3    H129273   4.553   3.131  11.245 -1.5365 -0.6550 -0.1470
 2594TIP3    H229274   4.651   3.051  11.161 -0.0972  0.7335  0.1441
 2595TIP3   OH229275   0.421   6.159   0.176  0.1281 -0.2022 -0.2038
 2595TIP3    H129276   0.510   6.169   0.143  0.5884  0.0877  1.0726
 2595TIP3    H229277   0.365   6.191   0.105  1.0053 -0.7344 -1.1689
 2596TIP3   OH229278   5.378   5.773  13.069 -0.6427 -0.5760  0.3123
 2596TIP3    H129279   5.323   5.787  13.146 -0.7560 -1.1039  0.3299
 2596TIP3    H229280   5.461   5.815  13.091 -0.6884 -0.6852  0.7090
 2597TIP3   OH229281   3.686   4.108   4.579  0.1087  0.4122 -0.2637
 2597TIP3    H129282   3.662   4.201   4.569  2.4557  1.2962  1.4135
 2597TIP3    H229283   3.630   4.062   4.516 -1.8874  2.8239 -0.4147
 2598TIP3   OH229284   3.602   2.085   1.110 -0.2284 -0.3110  0.6584
 2598TIP3    H129285   3.652   2.021   1.060  0.2662  0.3726  0.2678
 2598TIP3    H229286   3.536   2.117   1.048  0.4395  0.5993  0.3949
 2599TIP3   OH229287   2.116   6.785  16.947 -0.1099  0.2901  0.1172
 2599TIP3    H129288   2.047   6.806  17.011 -1.2164 -0.5783 -0.7540
 2599TIP3    H229289   2.070   6.741  16.876  1.3661 -0.3427 -0.4806
 2600TIP3   OH229290   5.605   6.310  16.106 -0.0707 -0.5042 -0.5060
 2600TIP3    H129291   5.618   6.371  16.033  0.0366  0.5794  0.3923
 2600TIP3    H229292   5.511   6.306  16.118 -0.0454  0.4379  0.1792
 2601TIP3   OH229293   5.138   3.637  16.489  0.4488 -0.0747 -0.1243
 2601TIP3    H129294   5.170   3.687  16.565 -0.1714 -0.0992  0.1609
 2601TIP3    H229295   5.131   3.547  16.521 -0.6369  0.0565  0.0688
 2602TIP3   OH229296   3.113   2.550  16.306  0.0558 -0.2119  0.0644
 2602TIP3    H129297   3.133   2.639  16.333  0.1600 -0.3131  0.3275
 2602TIP3    H229298   3.094   2.504  16.388  0.6178 -0.5854 -0.0059
 2603TIP3   OH229299   5.283   5.045  15.406 -0.2373  0.0158  0.2009
 2603TIP3    H129300   5.200   5.013  15.442 -0.3263 -0.4028 -0.3807
 2603TIP3    H229301   5.276   5.032  15.312  0.2891  0.4469  0.0943
 2604TIP3   OH229302   3.488   1.007   1.851 -0.2888  0.2894 -0.1169
 2604TIP3    H129303   3.480   1.002   1.756 -0.4593  1.5080 -0.1755
 2604TIP3    H229304   3.400   0.985   1.883  0.0471 -1.2484 -0.1754
 2605TIP3   OH229305   6.805   1.330  12.694 -0.2495  0.4166  0.3874
 2605TIP3    H129306   6.769   1.329  12.606  0.7831 -3.1280 -0.1226
 2605TIP3    H229307   6.729   1.319  12.751 -0.6024 -1.0713 -0.3284
 2606TIP3   OH229308   4.256   6.559  11.982 -0.0055 -0.1595 -0.5113
 2606TIP3    H129309   4.239   6.643  12.025  0.0864  0.1762 -1.1277
 2606TIP3    H229310   4.201   6.496  12.029 -1.1824  0.4942 -0.9811
 2607TIP3   OH229311   0.238   0.220   2.588 -0.2600 -0.6767  0.0155
 2607TIP3    H129312   0.191   0.270   2.521  1.5973  0.2194 -0.6913
 2607TIP3    H229313   0.296   0.162   2.539  0.5626 -0.5692  0.8321
 2608TIP3   OH229314   0.063   5.271   0.605 -0.3006 -0.4176 -0.3049
 2608TIP3    H129315   0.000   5.200   0.589  1.7864 -2.7905  1.1946
 2608TIP3    H229316   0.147   5.235   0.574  0.7466  1.6840 -0.0580
 2609TIP3   OH229317   1.944   1.741   0.189 -0.3189 -0.0041 -0.5250
 2609TIP3    H129318   2.026   1.713   0.228 -1.0792 -0.0198  1.1109
 2609TIP3    H229319   1.882   1.671   0.208 -0.6385 -0.2080 -2.1406
 2610TIP3   OH229320   6.027   3.892   5.932 -0.2617  0.3859  0.6198
 2610TIP3    H129321   6.108   3.932   5.902  0.5061 -0.4756  1.4739
 2610TIP3    H229322   6.048   3.800   5.943 -0.9511  0.3847  2.2225
 2611TIP3   OH229323   6.583   3.374   3.016  0.1265 -0.5638  0.4862
 2611TIP3    H129324   6.597   3.323   3.095 -0.1152 -0.0187  0.8906
 2611TIP3    H229325   6.608   3.463   3.040 -0.4001 -0.2998  0.0947
 2612TIP3   OH229326   4.870   3.747  12.159  0.3600 -0.0111 -0.0542
 2612TIP3    H129327   4.886   3.805  12.233  0.4369 -0.2250  0.0976
 2612TIP3    H229328   4.930   3.777  12.091  0.0503  0.4010 -0.1477
 2613TIP3   OH229329   2.553   4.800   5.452 -0.3683 -0.1522 -0.2934
 2613TIP3    H129330   2.551   4.818   5.358 -0.7823  1.2421 -0.0358
 2613TIP3    H229331   2.621   4.859   5.486 -0.0712 -0.7973  0.2655
 2614TIP3   OH229332   3.334   6.646   3.913  0.4330  0.8377  0.2987
 2614TIP3    H129333   3.307   6.598   3.835  1.3297 -0.1413  0.5722
 2614TIP3    H229334   3.374   6.726   3.880  0.8929  0.3861 -0.2485
 2615TIP3   OH229335   0.680   1.855   1.006  0.3336 -0.3901 -0.2142
 2615TIP3    H129336   0.749   1.796   0.976  0.0871 -0.6887 -0.1964
 2615TIP3    H229337   0.725   1.938   1.022  0.6231 -0.4728 -0.5704
 2616TIP3   OH229338   3.315   1.028  13.230 -0.4573 -0.1992  0.3819
 2616TIP3    H129339   3.329   0.972  13.154 -1.2981 -0.9631  0.7689
 2616TIP3    H229340   3.401   1.064  13.250 -0.0591 -0.7020 -0.3746
 2617TIP3   OH229341   1.613   2.533   0.339 -0.2221 -0.3072  0.1538
 2617TIP3    H129342   1.586   2.495   0.422  1.7989  0.3939  1.1855
 2617TIP3    H229343   1.578   2.622   0.340 -2.3065 -1.0375 -0.9059
 2618TIP3   OH229344   2.350   4.616   4.590  0.1305 -0.5600 -0.0111
 2618TIP3    H129345   2.278   4.567   4.550  0.4369 -1.1087  0.0963
 2618TIP3    H229346   2.408   4.548   4.625  0.9436 -0.1386 -0.5163
 2619TIP3   OH229347   0.395   5.372  11.896 -0.1395  0.0213  0.5480
 2619TIP3    H129348   0.437   5.369  11.810 -0.6527  0.5140  0.2715
 2619TIP3    H229349   0.440   5.305  11.948  0.6828  0.2387  0.1266
 2620TIP3   OH229350   2.864   6.324  14.239 -0.4477 -0.4302 -0.4252
 2620TIP3    H129351   2.928   6.326  14.167 -2.1592 -0.5980 -2.0383
 2620TIP3    H229352   2.899   6.385  14.304  0.7659  0.3679 -1.7598
 2621TIP3   OH229353   1.735   2.730  13.158 -0.0078 -0.2005 -0.1575
 2621TIP3    H129354   1.708   2.742  13.249 -1.5537  0.4929 -0.6692
 2621TIP3    H229355   1.823   2.691  13.163 -0.6849 -1.6337  1.6214
 2622TIP3   OH229356   1.510   2.985   4.242 -0.3130 -0.2011 -0.5948
 2622TIP3    H129357   1.544   2.961   4.155  0.5063  0.3613 -0.4297
 2622TIP3    H229358   1.533   3.077   4.253 -0.4754 -0.2477  0.1942
 2623TIP3   OH229359   3.900   1.833   3.975 -0.1957  1.1022 -0.5071
 2623TIP3    H129360   3.935   1.788   4.051  1.0754  0.9976 -1.1305
 2623TIP3    H229361   3.831   1.890   4.010 -0.2445  0.4008  0.5859
 2624TIP3   OH229362   4.980   5.004  13.518 -0.0170  0.0066  0.3756
 2624TIP3    H129363   4.982   4.914  13.484  0.4019  0.6068 -1.2809
 2624TIP3    H229364   4.891   5.034  13.502  0.6880  0.9837 -2.2685
 2625TIP3   OH229365   0.210   6.118  16.374  0.4918 -0.1902  0.1759
 2625TIP3    H129366   0.241   6.050  16.434 -0.8529 -0.6833  0.3459
 2625TIP3    H229367   0.156   6.176  16.428  2.5066  1.7129  0.2836
 2626TIP3   OH229368   3.916   5.775  12.161  0.7578 -0.4248 -0.1938
 2626TIP3    H129369   3.997   5.786  12.210  0.7564 -1.0415 -0.0519
 2626TIP3    H229370   3.919   5.844  12.095  1.5110 -0.6056 -0.3540
 2627TIP3   OH229371   4.345   0.074   2.288 -0.0358  0.2604 -0.3429
 2627TIP3    H129372   4.323   0.034   2.372 -1.5950  0.3903 -0.6531
 2627TIP3    H229373   4.341   0.002   2.225  0.7652  0.2345 -0.3753
 2628TIP3   OH229374   6.382   2.094   3.688  0.1954 -0.5665 -0.5099
 2628TIP3    H129375   6.298   2.067   3.650  0.1101  0.4174 -1.0427
 2628TIP3    H229376   6.440   2.105   3.613  0.7314 -0.9757 -0.1611
 2629TIP3   OH229377   3.031   3.615   5.094  0.0464  0.2285 -0.0924
 2629TIP3    H129378   2.972   3.556   5.141 -0.1153 -0.2220 -0.8350
 2629TIP3    H229379   3.118   3.595   5.129  0.0141 -0.5820 -0.4479
 2630TIP3   OH229380   2.038   2.651   4.183  0.1778  0.2306  0.7165
 2630TIP3    H129381   2.132   2.650   4.198  0.2280  1.5136  0.6171
 2630TIP3    H229382   2.005   2.572   4.226  1.6584 -2.0645 -2.0191
 2631TIP3   OH229383   2.868   2.330   5.547  0.3799  0.3630  0.3943
 2631TIP3    H129384   2.937   2.395   5.554  0.0881  1.0539 -2.1103
 2631TIP3    H229385   2.801   2.371   5.491 -0.4070 -1.5647 -0.1814
 2632TIP3   OH229386   4.669   1.199  14.389 -0.0600 -0.0050 -0.2392
 2632TIP3    H129387   4.637   1.145  14.461 -1.2961 -0.2848 -0.9694
 2632TIP3    H229388   4.636   1.287  14.408  0.4405  0.1344  0.0216
 2633TIP3   OH229389   0.211   1.002  14.417 -0.4429 -0.0286  0.0279
 2633TIP3    H129390   0.208   1.073  14.482 -0.1149  0.0174 -0.0035
 2633TIP3    H229391   0.165   1.037  14.341 -0.7252 -0.0376  0.1931
 2634TIP3   OH229392   0.046   2.910   4.068 -0.0039  0.0275 -0.4794
 2634TIP3    H129393   0.106   2.836   4.082  0.4319  0.2767 -0.9993
 2634TIP3    H229394   0.046   2.923   3.973 -0.6988  0.1890 -0.4615
 2635TIP3   OH229395   2.382   3.171   0.530 -0.0181 -0.5824 -0.0081
 2635TIP3    H129396   2.332   3.105   0.577 -0.5373 -0.0793  0.1545
 2635TIP3    H229397   2.434   3.215   0.597  0.3547 -0.8490 -0.1211
 2636TIP3   OH229398   2.046   4.568   1.955 -0.0766  0.5704 -0.7178
 2636TIP3    H129399   1.952   4.580   1.946 -0.0202  1.2822 -0.4748
 2636TIP3    H229400   2.078   4.654   1.984  0.3532 -0.2144  1.3253
 2637TIP3   OH229401   4.209   2.914  15.947  0.4141 -0.0975 -0.2717
 2637TIP3    H129402   4.182   2.826  15.923  0.3603 -0.4451  0.9831
 2637TIP3    H229403   4.136   2.948  15.999  0.5848  0.5432 -0.4454
 2638TIP3   OH229404   0.990   0.932  12.856  0.0252 -0.1473 -0.4045
 2638TIP3    H129405   0.994   0.901  12.765  1.1157 -0.7397 -0.1788
 2638TIP3    H229406   1.061   0.885  12.900 -1.9854 -1.6796  1.3422
 2639TIP3   OH229407   4.648   6.360   3.607 -0.4145 -0.2174  0.5568
 2639TIP3    H129408   4.739   6.340   3.583 -0.8360 -0.4802 -0.9734
 2639TIP3    H229409   4.598   6.290   3.566 -1.3594  0.2697  0.8638
 2640TIP3   OH229410   5.974   6.134   5.023  0.1633 -0.1037  0.4246
 2640TIP3    H129411   6.038   6.203   5.041  0.9951 -1.2481  2.0944
 2640TIP3    H229412   6.026   6.054   5.019 -0.9681 -0.8404  0.0494
 2641TIP3   OH229413   5.198   0.919   0.418 -0.5465 -0.1469 -0.5892
 2641TIP3    H129414   5.115   0.885   0.452 -1.3842  2.1953 -0.0391
 2641TIP3    H229415   5.179   1.011   0.398  2.1105  0.6702  0.2058
 2642TIP3   OH229416   0.224   0.509   1.945  0.3375  0.2181  0.2894
 2642TIP3    H129417   0.165   0.512   2.020  1.0014  0.1739  0.8241
 2642TIP3    H229418   0.185   0.444   1.886 -2.1407  2.7647 -1.1088
 2643TIP3   OH229419   6.639   0.259   5.009  0.0120  0.1441  0.1043
 2643TIP3    H129420   6.572   0.192   4.999 -0.0710  0.2438 -0.0090
 2643TIP3    H229421   6.654   0.265   5.103  1.8645 -1.8608  0.0116
 2644TIP3   OH229422   0.081   6.692   0.606  0.5773 -0.4539 -0.2676
 2644TIP3    H129423   0.061   6.609   0.563 -3.7904 -0.2917  0.9593
 2644TIP3    H229424   0.065   6.758   0.538  1.5229 -0.4515 -0.5099
 2645TIP3   OH229425   6.704   3.351  16.039 -0.1467 -0.5836  0.3855
 2645TIP3    H129426   6.627   3.376  15.988  0.8451  1.4556 -0.2527
 2645TIP3    H229427   6.680   3.268  16.080 -1.4809 -1.6621 -2.3459
 2646TIP3   OH229428   5.287   4.416  17.145 -0.0438 -0.3812  0.0560
 2646TIP3    H129429   5.351   4.480  17.178  0.0258 -0.7121  0.5856
 2646TIP3    H229430   5.309   4.405  17.053  0.2750 -0.0313  0.0881
 2647TIP3   OH229431   1.599   5.814  13.116 -0.1863  0.4753 -0.2112
 2647TIP3    H129432   1.656   5.775  13.182 -1.4383 -0.5864  0.2977
 2647TIP3    H229433   1.521   5.841  13.166 -1.1032 -0.2373 -1.2207
 2648TIP3   OH229434   6.624   5.140  16.844  0.0077 -0.1212  0.1395
 2648TIP3    H129435   6.709   5.097  16.830 -0.1952  0.1431 -2.3762
 2648TIP3    H229436   6.645   5.219  16.893  1.0774 -0.5369  0.3868
 2649TIP3   OH229437   2.595   3.097  15.365 -0.0154 -0.4820  0.1072
 2649TIP3    H129438   2.572   3.142  15.284 -0.3924  1.9540  1.4827
 2649TIP3    H229439   2.678   3.137  15.392 -0.8454  0.1395  1.8637
 2650TIP3   OH229440   4.554   3.113  14.868  0.1445 -0.2344 -0.0212
 2650TIP3    H129441   4.489   3.145  14.930  0.6420  0.4918  0.1404
 2650TIP3    H229442   4.521   3.141  14.782 -0.5480 -1.2484 -0.1024
 2651TIP3   OH229443   6.343   5.817   0.850  0.1132  0.2550  0.1565
 2651TIP3    H129444   6.396   5.895   0.837 -0.7078  0.5406 -2.1155
 2651TIP3    H229445   6.395   5.746   0.813  0.2058  0.0030  0.7711
 2652TIP3   OH229446   6.202   3.441   4.418 -0.6171  0.7288  0.4458
 2652TIP3    H129447   6.261   3.431   4.344 -0.0430  1.4497  0.7921
 2652TIP3    H229448   6.240   3.513   4.469 -1.0365  0.2907  1.3946
 2653TIP3   OH229449   1.881   0.044  16.459 -0.3543 -0.2359  0.2540
 2653TIP3    H129450   1.875   0.051  16.554 -0.6292  2.1530  0.1012
 2653TIP3    H229451   1.806  -0.010  16.434 -0.2958 -0.8559  1.3710
 2654TIP3   OH229452   2.223   1.888   0.446  0.0557  0.6389  0.0773
 2654TIP3    H129453   2.189   1.974   0.421  0.4653  0.6880 -0.3167
 2654TIP3    H229454   2.211   1.834   0.368  2.6207  1.1548 -0.7882
 2655TIP3   OH229455   1.135   6.491  15.568  0.0473  0.5416  0.4462
 2655TIP3    H129456   1.178   6.444  15.639 -1.4896 -0.1342  0.9744
 2655TIP3    H229457   1.191   6.475  15.492 -0.0051 -1.5450  0.7770
 2656TIP3   OH229458   1.264   0.433  16.090  0.6675 -0.0040 -0.1786
 2656TIP3    H129459   1.317   0.400  16.017  3.0687 -0.6964  1.7443
 2656TIP3    H229460   1.310   0.511  16.120  0.6527 -0.6025  1.5467
 2657TIP3   OH229461   0.667   3.272   4.637 -0.2732  0.7057  0.2557
 2657TIP3    H129462   0.635   3.292   4.725  0.6713 -1.1130  1.0682
 2657TIP3    H229463   0.677   3.357   4.595  0.5796  1.7350  2.3883
 2658TIP3   OH229464   2.429   0.335  14.212 -0.1426 -0.6166 -0.2149
 2658TIP3    H129465   2.429   0.288  14.129 -1.5604  0.8778 -1.1223
 2658TIP3    H229466   2.343   0.316  14.250 -0.3826  0.4781 -0.1715
 2659TIP3   OH229467   0.261   5.688   5.937 -0.2385 -0.3256 -0.1189
 2659TIP3    H129468   0.324   5.656   6.000  1.0590  1.6529 -0.3092
 2659TIP3    H229469   0.180   5.700   5.987 -0.3048 -2.2214  0.2892
 2660TIP3   OH229470   4.409   4.284  12.172 -0.0801 -0.1199 -0.1522
 2660TIP3    H129471   4.456   4.256  12.093 -0.5176  1.4807 -1.0403
 2660TIP3    H229472   4.464   4.353  12.209  0.1859 -0.9484  1.0523
 2661TIP3   OH229473   2.305   6.429  16.107  0.1504  0.2976 -0.2270
 2661TIP3    H129474   2.376   6.388  16.156  0.0830 -0.8869 -1.0827
 2661TIP3    H229475   2.231   6.429  16.168  0.3494 -0.2289  0.0209
 2662TIP3   OH229476   0.762   6.079  12.070  0.0730  0.7355 -0.1442
 2662TIP3    H129477   0.794   6.159  12.028 -1.5935  1.5878  0.1425
 2662TIP3    H229478   0.719   6.110  12.150  0.2484 -0.5551  0.4739
 2663TIP3   OH229479   5.560   5.609   0.624  0.2500  0.0247  0.3400
 2663TIP3    H129480   5.472   5.641   0.600 -0.2966 -1.3985  0.3601
 2663TIP3    H229481   5.616   5.637   0.552 -0.1633  1.1761  0.4474
 2664TIP3   OH229482   3.152   2.864  11.298 -0.1794 -0.0819  0.3165
 2664TIP3    H129483   3.206   2.869  11.219  1.0447  3.9782  1.1206
 2664TIP3    H229484   3.173   2.780  11.338  0.7430 -1.3159 -2.5773
 2665TIP3   OH229485   1.942   3.772   5.870 -0.3626  0.0025 -0.1128
 2665TIP3    H129486   1.987   3.795   5.951 -0.9176 -2.6249  1.0590
 2665TIP3    H229487   2.007   3.727   5.817 -0.4131  0.3351 -0.4653
 2666TIP3   OH229488   0.672   3.718  12.669 -0.3228 -0.2707  0.9061
 2666TIP3    H129489   0.580   3.745  12.670 -0.1813  0.2697  0.1468
 2666TIP3    H229490   0.683   3.668  12.750 -1.3139 -0.4471  0.9436
 2667TIP3   OH229491   4.464   1.231  17.013  0.3381  0.1096  0.0703
 2667TIP3    H129492   4.393   1.281  17.055 -1.2021 -1.1528 -0.8908
 2667TIP3    H229493   4.509   1.188  17.085 -1.0076 -0.4371  0.6257
 2668TIP3   OH229494   4.510   5.516   5.392  0.9360  0.4876 -0.2400
 2668TIP3    H129495   4.541   5.434   5.431  1.4842  0.7782 -0.0620
 2668TIP3    H229496   4.581   5.544   5.335  0.2826  0.2502 -1.1842
 2669TIP3   OH229497   1.187   1.234   4.349  0.5738  0.1011 -0.2223
 2669TIP3    H129498   1.240   1.243   4.269 -0.3676 -2.9821 -1.3476
 2669TIP3    H229499   1.231   1.164   4.398 -1.1115 -0.8934 -0.0652
 2670TIP3   OH229500   1.077   6.188  11.925 -0.7501 -0.1709 -0.4763
 2670TIP3    H129501   1.015   6.246  11.968  1.6364  3.3403 -1.3687
 2670TIP3    H229502   1.045   6.178  11.836 -0.6358  0.7019 -0.6169
 2671TIP3   OH229503   5.110   1.699   2.006  0.3091 -0.3201 -0.0929
 2671TIP3    H129504   5.123   1.636   2.076 -0.3117  0.1757  0.4805
 2671TIP3    H229505   5.015   1.704   1.995  0.1111  2.6255  1.8727
 2672TIP3   OH229506   5.882   3.698   3.470  0.4736  0.2235  0.1760
 2672TIP3    H129507   5.830   3.712   3.549 -0.4278  2.3585 -0.7115
 2672TIP3    H229508   5.818   3.670   3.404  1.0927 -0.7691 -0.0282
 2673TIP3   OH229509   2.058   2.742  14.216 -0.1533 -0.2824  0.3224
 2673TIP3    H129510   2.077   2.790  14.297 -0.2549 -0.6983  0.5979
 2673TIP3    H229511   2.141   2.700  14.193  0.3817  1.2623 -0.7873
 2674TIP3   OH229512   6.693   4.616   2.375 -0.0240 -0.1123 -0.4144
 2674TIP3    H129513   6.703   4.605   2.470 -1.0736 -4.1194 -0.6141
 2674TIP3    H229514   6.626   4.553   2.350  1.6348 -0.6598 -4.1351
 2675TIP3   OH229515   4.270   0.394  16.708 -0.3958  0.3715  0.5230
 2675TIP3    H129516   4.275   0.325  16.641 -1.8618  0.4280  0.3271
 2675TIP3    H229517   4.231   0.469  16.662 -2.2698  0.1297  1.6045
 2676TIP3   OH229518   0.138   1.664  16.611 -0.0808  0.5124  0.2605
 2676TIP3    H129519   0.162   1.591  16.669 -1.7508 -1.2428 -1.1322
 2676TIP3    H229520   0.058   1.700  16.650 -0.1455  0.5629  0.0776
 2677TIP3   OH229521   4.633   0.099   3.659 -0.1134  0.3945  0.0861
 2677TIP3    H129522   4.583   0.068   3.735  0.4114  0.8936  0.6371
 2677TIP3    H229523   4.718   0.057   3.667 -0.2713 -0.1003 -0.6165
 2678TIP3   OH229524   4.174   6.329   5.364  0.8044 -0.3176  0.0801
 2678TIP3    H129525   4.259   6.371   5.367  0.5662  0.1323  0.9263
 2678TIP3    H229526   4.122   6.383   5.305  0.7435  0.1162  0.5252
 2679TIP3   OH229527   1.944   3.432  14.736 -0.4145  0.1563 -0.3588
 2679TIP3    H129528   1.856   3.427  14.774 -0.3564  1.0974 -0.0872
 2679TIP3    H229529   2.000   3.386  14.798 -0.5540  0.4127 -0.0452
 2680TIP3   OH229530   1.669   2.774  13.942  0.2755  0.4959  0.7428
 2680TIP3    H129531   1.693   2.820  14.023  1.8667 -1.4728  1.4637
 2680TIP3    H229532   1.708   2.687  13.951 -1.5268 -0.5916 -1.1271
 2681TIP3   OH229533   6.204   3.318  15.781 -0.8725  0.0192  0.1185
 2681TIP3    H129534   6.112   3.344  15.780 -1.3112 -1.4730 -0.8172
 2681TIP3    H229535   6.240   3.350  15.699 -0.4894  0.7519  0.5583
 2682TIP3   OH229536   2.950   4.154   0.683 -0.1859  0.1299 -0.1395
 2682TIP3    H129537   2.866   4.127   0.720  0.3423 -1.6881 -0.1557
 2682TIP3    H229538   2.929   4.230   0.628 -1.7100  0.0754  0.3272
 2683TIP3   OH229539   0.572   4.502   1.472 -0.1195 -0.1809  0.2945
 2683TIP3    H129540   0.552   4.443   1.398 -0.9107 -0.2329  0.5378
 2683TIP3    H229541   0.495   4.558   1.478 -0.7134 -1.1192  1.9855
 2684TIP3   OH229542   1.992   3.378  13.705 -0.4419  0.2098 -0.1507
 2684TIP3    H129543   2.020   3.469  13.692 -1.2083  0.5157  0.2227
 2684TIP3    H229544   1.967   3.375  13.798  0.6265 -0.6829  0.1248
 2685TIP3   OH229545   0.007   2.962  11.332  0.2456 -0.1893 -0.0507
 2685TIP3    H129546   0.044   2.907  11.401 -0.2407 -1.4149 -0.7463
 2685TIP3    H229547   0.074   3.028  11.315  1.4753 -1.4623 -0.2443
 2686TIP3   OH229548   0.366   0.527  12.632 -0.2163 -0.6200 -0.0141
 2686TIP3    H129549   0.397   0.608  12.592  0.7618 -0.6487  0.6530
 2686TIP3    H229550   0.296   0.555  12.691  0.2825 -0.2187  0.3960
 2687TIP3   OH229551   3.062   0.993  15.650  0.6987  0.5063  0.0880
 2687TIP3    H129552   3.015   1.006  15.733 -1.8946 -2.1653 -0.7781
 2687TIP3    H229553   3.039   1.070  15.598 -0.6121  0.5373  0.6514
 2688TIP3   OH229554   1.963   0.517  14.095  0.0952  0.4801 -0.4092
 2688TIP3    H129555   1.942   0.448  14.158 -0.3252 -0.4037 -1.4929
 2688TIP3    H229556   2.058   0.512  14.085  0.0093 -0.2844 -0.8670
 2689TIP3   OH229557   1.259   1.193   2.977 -0.3874 -0.4261 -0.1630
 2689TIP3    H129558   1.272   1.151   2.892 -1.4674  0.0990 -0.5973
 2689TIP3    H229559   1.207   1.130   3.027 -3.4357  0.9379 -1.3667
 2690TIP3   OH229560   2.131   0.709  11.038  0.5367 -0.4245  0.1692
 2690TIP3    H129561   2.221   0.680  11.026  1.1985  0.8979  1.6295
 2690TIP3    H229562   2.103   0.669  11.120  0.6722  1.0888  0.9966
 2691TIP3   OH229563   2.939   6.496   5.977  0.3600  1.0791 -0.2388
 2691TIP3    H129564   2.909   6.578   5.937 -0.5235  0.9741  0.1741
 2691TIP3    H229565   3.016   6.521   6.028  1.3856  1.2611 -1.7780
 2692TIP3   OH229566   6.553   6.737   0.284  0.0425 -0.5716  0.2458
 2692TIP3    H129567   6.641   6.701   0.292 -0.4765 -1.7910  0.8152
 2692TIP3    H229568   6.558   6.823   0.325  0.5517 -1.3953  2.0033
 2693TIP3   OH229569   4.895   2.740   5.926 -0.0950  0.1122  0.0795
 2693TIP3    H129570   4.847   2.706   6.002 -0.7609  1.7771  0.4492
 2693TIP3    H229571   4.830   2.741   5.855  0.3286 -0.7516 -0.3392
 2694TIP3   OH229572   1.609   1.401  13.192  0.0493  0.1060  0.4092
 2694TIP3    H129573   1.632   1.403  13.099  2.0831 -0.2107  0.8484
 2694TIP3    H229574   1.519   1.433  13.195 -0.4107 -0.7782 -1.7533
 2695TIP3   OH229575   2.970   3.460  12.326 -0.1322 -0.1221 -0.0441
 2695TIP3    H129576   2.886   3.418  12.310 -0.7489  1.0321  0.0618
 2695TIP3    H229577   3.035   3.395  12.300 -1.0363 -1.3726  0.7509
 2696TIP3   OH229578   0.056   2.709   5.598  0.0467 -0.0491  0.1875
 2696TIP3    H129579   0.064   2.658   5.517 -1.9950  1.0280 -0.7662
 2696TIP3    H229580   0.065   2.800   5.570 -1.1996  0.3683  1.0655
 2697TIP3   OH229581   0.846   5.661  13.303 -0.0218  0.2726  0.5493
 2697TIP3    H129582   0.915   5.609  13.262 -0.9031 -0.6590  0.1894
 2697TIP3    H229583   0.805   5.707  13.229 -1.5715 -1.3565  0.3164
 2698TIP3   OH229584   2.491   1.260  17.078 -0.2763  0.0106 -0.0537
 2698TIP3    H129585   2.584   1.245  17.095  0.0992 -0.5709 -2.2614
 2698TIP3    H229586   2.483   1.355  17.071 -0.3924  0.2604  2.6034
 2699TIP3   OH229587   3.329   0.871  14.512 -0.4356 -0.0275  0.0134
 2699TIP3    H129588   3.297   0.904  14.428  0.1754  1.7692  0.4448
 2699TIP3    H229589   3.410   0.825  14.491 -0.6683 -0.2306 -0.4505
 2700TIP3   OH229590   6.690   5.718  12.318 -0.1486  0.0672  0.5198
 2700TIP3    H129591   6.637   5.650  12.360 -0.9780  0.0955 -0.4537
 2700TIP3    H229592   6.638   5.798  12.326  0.5054  0.4580  1.0238
 2701TIP3   OH229593   3.750   1.483  14.520  0.1109 -0.6420 -0.2082
 2701TIP3    H129594   3.767   1.511  14.610 -0.4631 -2.2286  0.4115
 2701TIP3    H229595   3.668   1.527  14.496 -1.4050 -2.6055  1.1645
 2702TIP3   OH229596   5.605   5.864   5.940  0.0053  0.1270 -0.4527
 2702TIP3    H129597   5.603   5.772   5.916  0.2807 -0.0398  0.1538
 2702TIP3    H229598   5.617   5.910   5.857 -2.0450 -0.2515 -1.0075
 2703TIP3   OH229599   0.529   2.545  15.163 -0.0458 -0.1428 -0.0617
 2703TIP3    H129600   0.439   2.550  15.194 -0.1005 -1.3526  0.0249
 2703TIP3    H229601   0.529   2.590  15.079 -1.2778 -2.1104 -1.2053
 2704TIP3   OH229602   4.250   3.604  15.890  0.2534  0.3116 -0.1487
 2704TIP3    H129603   4.167   3.645  15.869 -0.3674 -1.0076 -0.3493
 2704TIP3    H229604   4.273   3.553  15.812  0.5527 -0.4388  0.4151
 2705TIP3   OH229605   5.425   6.060   6.060  0.4525  0.7881  0.7566
 2705TIP3    H129606   5.476   5.982   6.041 -1.4369 -0.3072 -0.1624
 2705TIP3    H229607   5.424   6.109   5.977  0.5571  1.1199  0.9508
 2706TIP3   OH229608   1.609   3.357   0.630 -0.6840  0.4924  0.1939
 2706TIP3    H129609   1.645   3.330   0.714 -0.2994 -1.4708 -0.5609
 2706TIP3    H229610   1.525   3.311   0.623  0.7468 -2.0598 -1.8377
 2707TIP3   OH229611   4.472   2.134   1.950  0.5680  0.5812 -0.0426
 2707TIP3    H129612   4.561   2.103   1.971  0.2629  0.3386  0.9491
 2707TIP3    H229613   4.428   2.138   2.035 -0.1647  1.3619 -0.4546
 2708TIP3   OH229614   2.642   3.663  16.337 -0.2070 -0.2883 -0.2035
 2708TIP3    H129615   2.549   3.665  16.313 -0.2190 -0.8236 -0.2110
 2708TIP3    H229616   2.664   3.754  16.352  0.1640  0.2929 -3.5980
 2709TIP3   OH229617   2.506   5.769   2.161 -0.2319  0.5190 -0.3677
 2709TIP3    H129618   2.597   5.769   2.190 -0.6746 -1.7483  1.3607
 2709TIP3    H229619   2.471   5.852   2.192  0.8438  0.6834  0.4586
 2710TIP3   OH229620   5.301   4.745   0.458  0.0599 -0.0898  0.1558
 2710TIP3    H129621   5.338   4.682   0.396  1.6418  1.6158 -0.7194
 2710TIP3    H229622   5.374   4.771   0.513 -0.6018  0.8751  0.5973
 2711TIP3   OH229623   2.035   1.315   3.455  0.3124 -0.2839 -0.9885
 2711TIP3    H129624   2.104   1.319   3.521  0.2082 -0.6984 -0.8507
 2711TIP3    H229625   2.066   1.250   3.392  0.0498 -0.4584 -0.9346
 2712TIP3   OH229626   3.518   5.924   1.050  0.3399 -0.2398 -0.2771
 2712TIP3    H129627   3.514   5.850   0.990 -1.2544  0.0106 -0.5358
 2712TIP3    H229628   3.427   5.936   1.079  0.7728  0.8392  0.7048
 2713TIP3   OH229629   1.294   0.736   1.755  0.0130  0.5966  0.5987
 2713TIP3    H129630   1.276   0.643   1.743  0.1985  0.5504  0.6767
 2713TIP3    H229631   1.223   0.768   1.809  0.0167  0.4736  0.6759
 2714TIP3   OH229632   4.785   0.021   1.229  0.0768 -0.4800 -0.1955
 2714TIP3    H129633   4.809  -0.037   1.301  1.5557  0.0613 -0.2271
 2714TIP3    H229634   4.762   0.104   1.271  1.4251 -0.0079 -0.3484
 2715TIP3   OH229635   3.503   4.307  17.050  0.1476  0.3915  0.1499
 2715TIP3    H129636   3.579   4.316  16.992 -0.7636 -1.7725 -1.5478
 2715TIP3    H229637   3.455   4.231  17.015 -2.9394  1.8038  0.9550
 2716TIP3   OH229638   6.107   6.336   4.321  0.7972  0.0916 -0.1564
 2716TIP3    H129639   6.092   6.429   4.338  2.6222  0.1984  1.1995
 2716TIP3    H229640   6.165   6.308   4.391 -0.1649 -2.2381 -0.2054
 2717TIP3   OH229641   2.852   6.140   2.232  1.1881 -0.1419  0.2506
 2717TIP3    H129642   2.898   6.189   2.300  0.8224 -0.2123  0.5501
 2717TIP3    H229643   2.894   6.166   2.150  2.6101 -1.1328  0.6264
 2718TIP3   OH229644   3.871   2.505  16.399  0.0840 -0.1002 -0.4465
 2718TIP3    H129645   3.877   2.430  16.458 -1.6066  0.5555  0.6290
 2718TIP3    H229646   3.871   2.581  16.456 -0.8003  0.5915 -1.3300
 2719TIP3   OH229647   1.041   2.373  15.865 -0.5113  0.1062  0.0306
 2719TIP3    H129648   1.120   2.366  15.920 -1.2017 -0.3949  0.9901
 2719TIP3    H229649   0.970   2.386  15.928 -1.3061 -0.2816 -0.7722
 2720TIP3   OH229650   6.283   5.697  12.633 -0.2639  0.4066  0.3173
 2720TIP3    H129651   6.374   5.706  12.606 -0.6361 -1.8295 -2.0550
 2720TIP3    H229652   6.284   5.629  12.700 -0.3693 -2.1244 -2.0364
 2721TIP3   OH229653   6.693   1.143   4.888 -0.0142  0.0893  0.4899
 2721TIP3    H129654   6.752   1.169   4.959 -2.8567  1.9276  2.3957
 2721TIP3    H229655   6.634   1.079   4.927 -0.5017 -0.2764 -0.7812
 2722TIP3   OH229656   4.141   5.642   1.562  0.4722  0.5484 -0.1848
 2722TIP3    H129657   4.067   5.622   1.620  0.4883  0.7721 -0.0880
 2722TIP3    H229658   4.212   5.668   1.621  0.7254  0.0497 -0.2560
 2723TIP3   OH229659   4.857   1.124   3.443  0.0597 -0.7422 -0.0219
 2723TIP3    H129660   4.880   1.215   3.463  1.0460 -0.9187 -0.2827
 2723TIP3    H229661   4.933   1.073   3.472 -0.4331 -1.4791  0.0142
 2724TIP3   OH229662   5.697   6.568   4.250 -0.4020 -0.2471  0.4686
 2724TIP3    H129663   5.692   6.473   4.236 -1.2767  0.0818 -1.7810
 2724TIP3    H229664   5.785   6.592   4.223 -1.0635 -0.0775 -1.7045
 2725TIP3   OH229665   3.712   2.405   4.243 -0.1308 -0.0809 -0.2322
 2725TIP3    H129666   3.758   2.489   4.233 -0.5832  0.1337 -0.5469
 2725TIP3    H229667   3.621   2.430   4.257 -0.7699 -0.5514 -3.0342
 2726TIP3   OH229668   5.692   0.279   1.634  0.1439  0.3022  0.6335
 2726TIP3    H129669   5.663   0.188   1.628 -0.6651  0.5710  0.3709
 2726TIP3    H229670   5.732   0.286   1.721  0.4850 -0.3772  0.5342
 2727TIP3   OH229671   4.271   3.965  14.658  0.2795 -0.0174 -0.6240
 2727TIP3    H129672   4.363   3.941  14.649 -0.2555 -2.4425 -0.4174
 2727TIP3    H229673   4.231   3.938  14.575 -0.1498  1.7643 -1.0430
 2728TIP3   OH229674   0.983   6.163  15.279  0.1577 -0.3140 -0.7224
 2728TIP3    H129675   0.898   6.198  15.252 -0.4981 -0.4626  1.0236
 2728TIP3    H229676   0.966   6.123  15.364  2.1151  0.1690 -0.0674
 2729TIP3   OH229677   1.145   1.413  15.934 -0.3405  0.4150  0.5053
 2729TIP3    H129678   1.105   1.380  15.854 -0.8644  0.2965  0.8091
 2729TIP3    H229679   1.080   1.396  16.002  0.2566  0.1746  1.0206
 2730TIP3   OH229680   3.296   1.057  17.072 -0.0854  0.1159 -0.2359
 2730TIP3    H129681   3.280   0.972  17.112  2.2291 -0.1107  0.3277
 2730TIP3    H229682   3.312   1.116  17.146  2.2213  0.1336 -0.6694
 2731TIP3   OH229683   0.813   2.624   1.230 -0.1879  0.0812  0.4359
 2731TIP3    H129684   0.835   2.562   1.300 -3.3180  1.1800  2.6142
 2731TIP3    H229685   0.881   2.691   1.235  1.5231 -1.5450  0.0816
 2732TIP3   OH229686   5.810   0.956  17.009 -0.3749 -0.3609 -0.2039
 2732TIP3    H129687   5.821   0.984  16.918  1.0536 -1.3020 -0.3471
 2732TIP3    H229688   5.891   0.911  17.031  0.5396  2.2677  2.4684
 2733TIP3   OH229689   5.804   3.116  14.899  0.6013 -0.1540 -0.3496
 2733TIP3    H129690   5.789   3.171  14.822  1.1250 -0.3713 -0.6115
 2733TIP3    H229691   5.805   3.178  14.972 -1.8359 -0.1417 -0.2491
 2734TIP3   OH229692   0.406   5.624  11.111  0.5453 -0.2904 -0.0845
 2734TIP3    H129693   0.394   5.581  11.027 -2.1124  0.2823 -0.0931
 2734TIP3    H229694   0.321   5.664  11.130  1.5097  0.8952  2.1583
 2735TIP3   OH229695   2.470   5.149   2.899 -0.3426  0.6232 -0.2116
 2735TIP3    H129696   2.392   5.142   2.954 -0.6860 -1.5048 -0.8601
 2735TIP3    H229697   2.541   5.115   2.954 -0.1746  1.0259 -0.1769
 2736TIP3   OH229698   5.266   0.532   1.890  0.2715 -1.1486  0.3761
 2736TIP3    H129699   5.286   0.476   1.814 -0.9748 -0.9832 -0.0894
 2736TIP3    H229700   5.176   0.510   1.913 -0.5130  1.1401 -0.2397
 2737TIP3   OH229701   2.112   6.292   4.882  0.1279  0.0082  0.9770
 2737TIP3    H129702   2.029   6.303   4.928 -0.2827 -0.3318  0.3259
 2737TIP3    H229703   2.088   6.272   4.792  0.8818 -1.8188  1.1289
 2738TIP3   OH229704   6.749   2.300  12.919  0.1267  0.1175 -0.3110
 2738TIP3    H129705   6.728   2.339  13.004 -0.9739 -1.9911  0.4553
 2738TIP3    H229706   6.726   2.368  12.856 -0.2795  1.2647  1.0022
 2739TIP3   OH229707   0.669   1.340   2.808 -0.0355  1.1827 -0.5856
 2739TIP3    H129708   0.656   1.366   2.899 -0.8680  0.3175 -0.4434
 2739TIP3    H229709   0.593   1.373   2.761 -1.5123 -1.4771 -0.2648
 2740TIP3   OH229710   0.526   0.284   5.402 -0.1006 -0.3261  0.3325
 2740TIP3    H129711   0.499   0.375   5.413  2.4360  0.5204  0.2339
 2740TIP3    H229712   0.554   0.257   5.490 -0.5031 -0.8960  0.2898
 2741TIP3   OH229713   4.812   0.832   4.102 -0.1054 -0.6661 -0.1305
 2741TIP3    H129714   4.819   0.822   4.008 -1.5870 -2.9490 -0.0541
 2741TIP3    H229715   4.887   0.785   4.138  1.4158  1.5747 -0.1117
 2742TIP3   OH229716   3.483   5.731   3.670 -0.7314  0.0527 -0.0311
 2742TIP3    H129717   3.390   5.711   3.683 -1.0573 -0.9389 -3.2186
 2742TIP3    H229718   3.523   5.647   3.648  0.2361  0.9552 -1.9289
 2743TIP3   OH229719   6.406   4.974   1.276  0.8533  0.0180 -0.0352
 2743TIP3    H129720   6.341   4.917   1.235  3.2761 -1.9524 -1.3450
 2743TIP3    H229721   6.429   5.037   1.208  0.8101  0.2985  0.2083
 2744TIP3   OH229722   3.044   6.187  15.526 -0.4907 -0.4480 -0.0549
 2744TIP3    H129723   3.081   6.112  15.480 -1.1630 -1.4463  0.9697
 2744TIP3    H229724   3.110   6.210  15.592 -0.0457  0.2237 -0.7239
 2745TIP3   OH229725   4.719   1.836   0.861 -0.4259 -0.7563  0.0743
 2745TIP3    H129726   4.814   1.825   0.858 -0.5905 -2.2082 -0.7836
 2745TIP3    H229727   4.694   1.805   0.948 -0.1244 -0.4792  0.2604
 2746TIP3   OH229728   4.226   1.219   0.234 -0.8462  0.2629  0.1296
 2746TIP3    H129729   4.262   1.281   0.297 -0.2642  1.4195 -1.2818
 2746TIP3    H229730   4.263   1.135   0.259 -0.1222  0.8029  0.9359
 2747TIP3   OH229731   0.700   5.963  10.578  0.2002  0.1670 -0.4847
 2747TIP3    H129732   0.731   5.876  10.553 -2.0027 -1.0039  0.5621
 2747TIP3    H229733   0.779   6.010  10.605  1.2798 -2.0773  0.5072
 2748TIP3   OH229734   4.424   5.885   5.735  0.0510  0.0074  0.0118
 2748TIP3    H129735   4.488   5.931   5.789 -1.3345  0.6305  1.1826
 2748TIP3    H229736   4.340   5.926   5.757 -1.0233 -2.0390 -0.0639
 2749TIP3   OH229737   3.681   1.471  12.794 -0.1449 -0.2822  0.0353
 2749TIP3    H129738   3.767   1.430  12.806  0.6143  1.0533 -0.6372
 2749TIP3    H229739   3.697   1.544  12.734 -2.0700 -1.0637 -1.5357
 2750TIP3   OH229740   4.519   6.612   3.649  0.9890 -0.1099 -0.2235
 2750TIP3    H129741   4.426   6.598   3.635  0.6467  2.2173 -0.7016
 2750TIP3    H229742   4.556   6.524   3.660 -1.3881 -1.0169  0.9781
 2751TIP3   OH229743   3.483   2.933   1.929 -0.6618 -0.7129 -0.1593
 2751TIP3    H129744   3.474   3.011   1.874  0.4759 -0.5038 -0.0809
 2751TIP3    H229745   3.555   2.955   1.989  0.1313 -2.0561 -0.5685
 2752TIP3   OH229746   0.104   4.244  12.574  0.3947 -0.6871 -0.0557
 2752TIP3    H129747   0.054   4.216  12.650  0.3010 -1.6661 -0.4545
 2752TIP3    H229748   0.168   4.174  12.561 -1.1091 -1.7639 -2.2617
 2753TIP3   OH229749   3.931   4.845  12.593  0.2336 -0.5563 -0.2617
 2753TIP3    H129750   3.909   4.838  12.500  1.7836 -0.0783 -0.6888
 2753TIP3    H229751   3.854   4.809  12.639 -1.1039  0.4159 -1.6628
 2754TIP3   OH229752   1.858   0.643  17.060  0.1969 -0.1396 -0.6283
 2754TIP3    H129753   1.831   0.615  17.147  0.0942  1.1147 -0.2326
 2754TIP3    H229754   1.785   0.617  17.003 -0.3181  0.1513 -0.1238
 2755TIP3   OH229755   5.491   3.441  15.146 -0.2435  0.1452  0.5047
 2755TIP3    H129756   5.542   3.510  15.104  0.0648  0.5980  1.5881
 2755TIP3    H229757   5.527   3.436  15.235 -1.0025 -0.6533  0.7751
 2756TIP3   OH229758   0.762   6.825   4.900  0.0426 -0.3105 -0.0489
 2756TIP3    H129759   0.691   6.781   4.946 -1.6850  1.5944 -0.7163
 2756TIP3    H229760   0.787   6.764   4.830 -0.8177 -1.0911  0.3104
 2757TIP3   OH229761   3.256   2.475   4.087  0.4709 -0.0459 -0.1881
 2757TIP3    H129762   3.297   2.556   4.117  0.7029 -0.6801  1.2766
 2757TIP3    H229763   3.327   2.425   4.047  1.0629 -0.8543  1.7460
 2758TIP3   OH229764   0.455   0.018   0.508 -0.3499 -0.1801 -0.3463
 2758TIP3    H129765   0.539   0.062   0.500 -0.3695  0.2868  1.4379
 2758TIP3    H229766   0.434   0.024   0.602 -1.5065 -1.8760 -0.4507
 2759TIP3   OH229767   1.499   2.188  16.150 -0.1231  0.0721 -0.6469
 2759TIP3    H129768   1.414   2.185  16.193  0.6287 -0.4695  0.8715
 2759TIP3    H229769   1.561   2.208  16.220  1.1693 -0.9545 -1.4392
 2760TIP3   OH229770   3.143   3.254   0.415 -0.1960  0.3302  0.3338
 2760TIP3    H129771   3.079   3.303   0.467 -0.4767 -0.2707  0.5677
 2760TIP3    H229772   3.149   3.169   0.458  0.8469  0.4080  0.3784
 2761TIP3   OH229773   3.432   6.738  15.324 -0.2736 -0.2732  0.2140
 2761TIP3    H129774   3.348   6.781  15.339  0.0621 -0.3919  2.9287
 2761TIP3    H229775   3.486   6.805  15.282 -0.8374  0.8160  1.1678
 2762TIP3   OH229776   2.769   2.289  12.397 -0.3906 -0.0475  0.0290
 2762TIP3    H129777   2.821   2.283  12.317  0.5889 -1.1653  0.7073
 2762TIP3    H229778   2.698   2.225  12.384 -1.8572  1.7175 -1.0359
 2763TIP3   OH229779   0.914   5.969   3.611 -0.3833 -0.3294 -0.2951
 2763TIP3    H129780   0.995   5.920   3.623  0.0004  0.1913 -0.7316
 2763TIP3    H229781   0.901   6.014   3.694 -1.3303 -2.0032  0.5223
 2764TIP3   OH229782   0.075   4.514   2.095 -0.0749 -0.0741  0.4011
 2764TIP3    H129783   0.107   4.523   2.005  0.6442 -0.2433  0.6371
 2764TIP3    H229784   0.013   4.586   2.105  0.9260  0.8330  0.2386
 2765TIP3   OH229785   5.518   2.940   3.606  0.4431 -0.1422 -0.5607
 2765TIP3    H129786   5.440   2.994   3.617  1.2591  0.9476  0.1008
 2765TIP3    H229787   5.484   2.852   3.591 -0.9307  0.5425 -1.7720
 2766TIP3   OH229788   5.975   1.835   1.085 -0.0310  0.1941 -0.3310
 2766TIP3    H129789   6.004   1.772   1.151 -0.3345 -0.7905 -1.1158
 2766TIP3    H229790   5.929   1.903   1.135  0.0562 -0.3458  0.5018
 2767TIP3   OH229791   6.682   3.780   1.627 -0.1501 -0.7836  0.0698
 2767TIP3    H129792   6.722   3.716   1.568  1.4970 -0.7943  1.1332
 2767TIP3    H229793   6.729   3.769   1.710  0.3627  1.9093  0.2375
 2768TIP3   OH229794   5.310   1.628  11.874  0.0451 -0.0131 -0.0906
 2768TIP3    H129795   5.290   1.581  11.793  0.0821 -1.3237  0.6387
 2768TIP3    H229796   5.319   1.560  11.940  2.0684  0.8634  0.6248
 2769TIP3   OH229797   1.809   5.005  15.756  0.1145  0.7798  0.7149
 2769TIP3    H129798   1.887   5.007  15.701  1.3483 -0.3795  2.3175
 2769TIP3    H229799   1.800   4.913  15.782 -1.8312  0.8756  0.5381
 2770TIP3   OH229800   4.711   5.143  10.487 -0.2002 -0.0216  0.0667
 2770TIP3    H129801   4.775   5.130  10.557 -0.3256 -1.8438 -0.1046
 2770TIP3    H229802   4.755   5.112  10.408 -1.0428 -0.6704 -0.1637
 2771TIP3   OH229803   2.368   0.996   2.836  0.0343  0.8045 -0.1335
 2771TIP3    H129804   2.358   1.007   2.741  0.8425  1.1772 -0.1895
 2771TIP3    H229805   2.460   1.020   2.852  0.2796 -0.5182  0.5521
 2772TIP3   OH229806   5.510   0.780   3.472  0.4305 -0.1626  0.4052
 2772TIP3    H129807   5.548   0.700   3.436  0.0397 -0.6435  1.0415
 2772TIP3    H229808   5.444   0.750   3.535 -0.8418  0.6390 -0.4898
 2773TIP3   OH229809   4.845   4.270  12.179  0.6414 -0.4269 -0.4842
 2773TIP3    H129810   4.800   4.346  12.216  1.1728 -0.2294 -0.2245
 2773TIP3    H229811   4.928   4.306  12.146  0.3732 -0.6752 -1.4739
 2774TIP3   OH229812   4.074   0.730  16.280 -0.3370 -0.1362  0.4967
 2774TIP3    H129813   4.032   0.792  16.339  0.9438  0.1924  1.1015
 2774TIP3    H229814   4.098   0.782  16.203 -2.5758 -0.6925 -0.6717
 2775TIP3   OH229815   2.289   1.023   5.218  0.0816  0.6284  0.0405
 2775TIP3    H129816   2.248   1.064   5.142  1.8261 -0.1885 -1.4133
 2775TIP3    H229817   2.264   1.079   5.292 -2.3832  0.9514 -0.9588
 2776TIP3   OH229818   5.204   1.732  15.186  0.1181  0.5992  0.5798
 2776TIP3    H129819   5.182   1.752  15.277  0.2634  0.9726  0.5358
 2776TIP3    H229820   5.203   1.636  15.181 -0.3273  0.5899  0.8615
 2777TIP3   OH229821   2.458   1.530  14.554  0.2895 -0.2032 -0.7625
 2777TIP3    H129822   2.446   1.593  14.625 -0.1416 -0.2874 -0.7552
 2777TIP3    H229823   2.409   1.453  14.582 -0.2569 -0.0800 -1.3425
 2778TIP3   OH229824   4.781   4.805  15.789 -0.6298  0.2999  0.2098
 2778TIP3    H129825   4.830   4.818  15.708 -1.1987  1.1588 -0.0135
 2778TIP3    H229826   4.753   4.714  15.786 -1.6424  0.6193 -1.1568
 2779TIP3   OH229827   5.784   0.540  11.739  0.0422 -0.0398  0.6394
 2779TIP3    H129828   5.739   0.586  11.809 -1.5205 -1.0660  0.3889
 2779TIP3    H229829   5.743   0.573  11.658  1.3879  0.6873  0.2361
 2780TIP3   OH229830   1.180   5.610  14.268  0.0680  0.2183  0.4003
 2780TIP3    H129831   1.167   5.704  14.256 -0.7363  0.2770  1.5114
 2780TIP3    H229832   1.093   5.572  14.253  0.5482 -0.4378 -0.7754
 2781TIP3   OH229833   1.402   0.723   1.379 -0.3783 -0.6809 -0.2040
 2781TIP3    H129834   1.495   0.710   1.399 -0.0585  0.5331 -0.7792
 2781TIP3    H229835   1.391   0.818   1.378 -1.7446 -0.8143  0.3353
 2782TIP3   OH229836   4.315   0.951   1.301  0.6322  0.0130 -0.0668
 2782TIP3    H129837   4.283   0.961   1.211 -0.6628 -1.5332  0.1774
 2782TIP3    H229838   4.396   1.001   1.303  0.4721  0.4311 -1.9753
 2783TIP3   OH229839   6.340   4.146   5.384 -0.3000 -0.5039  0.7629
 2783TIP3    H129840   6.335   4.053   5.409  0.1167 -0.2926  1.6583
 2783TIP3    H229841   6.384   4.188   5.457  0.0207  0.3151  0.1110
 2784TIP3   OH229842   1.185   5.907  15.127 -0.3473  0.1041  0.2266
 2784TIP3    H129843   1.229   5.911  15.042  1.8316 -0.7829  1.2381
 2784TIP3    H229844   1.163   5.815  15.139  0.3522  0.0230  1.0486
 2785TIP3   OH229845   3.913   4.828  12.311  0.7917  0.5621  0.1376
 2785TIP3    H129846   3.979   4.769  12.275 -0.0612  0.6226 -1.6441
 2785TIP3    H229847   3.956   4.913  12.317  1.4915  0.1581  1.0198
 2786TIP3   OH229848   1.568   0.143  11.296 -0.5776 -0.2993 -0.3859
 2786TIP3    H129849   1.633   0.148  11.227  0.1864  0.0789  0.3368
 2786TIP3    H229850   1.567   0.231  11.334  1.1524 -1.1562  1.9505
 2787TIP3   OH229851   0.077   4.577   0.823  0.3585 -0.2263  0.2417
 2787TIP3    H129852   0.014   4.507   0.808  0.1925 -0.2718  1.0625
 2787TIP3    H229853   0.138   4.571   0.750  0.1759 -1.0421  0.1463
 2788TIP3   OH229854   3.538   3.755   1.306 -0.0285  0.1544  0.5055
 2788TIP3    H129855   3.613   3.738   1.249  1.0928  0.7765  1.7467
 2788TIP3    H229856   3.553   3.844   1.338 -2.1638  0.9282 -0.4869
 2789TIP3   OH229857   5.998   4.210  11.056 -0.2782 -0.4252 -0.4976
 2789TIP3    H129858   6.060   4.236  10.987  0.3487  0.0925  0.2338
 2789TIP3    H229859   6.009   4.115  11.063  1.0281 -0.2511  0.1516
 2790TIP3   OH229860   4.987   4.570   2.031  0.1716 -0.5843  0.1793
 2790TIP3    H129861   4.943   4.486   2.047  0.4764 -0.4870  1.6772
 2790TIP3    H229862   4.929   4.635   2.070  0.5361 -0.2351  0.1384
 2791TIP3   OH229863   5.300   2.589  11.347  0.8123  0.2836 -0.0926
 2791TIP3    H129864   5.271   2.662  11.293  0.8456  0.9498  0.7661
 2791TIP3    H229865   5.337   2.630  11.425 -1.5428 -0.6639  1.6227
 2792TIP3   OH229866   1.329   0.347   2.537  0.6784  0.1567 -0.1452
 2792TIP3    H129867   1.245   0.352   2.581  0.4517  0.6450 -0.6253
 2792TIP3    H229868   1.394   0.352   2.608  0.3104 -0.3829  0.2378
 2793TIP3   OH229869   1.659   5.931   0.120  0.0539  0.4006  0.0841
 2793TIP3    H129870   1.653   6.025   0.138 -0.1838  0.4119 -0.0610
 2793TIP3    H229871   1.753   5.913   0.122  0.1791  0.8648 -1.0500
 2794TIP3   OH229872   6.489   1.333  16.804  0.3373  0.2269 -0.6053
 2794TIP3    H129873   6.459   1.309  16.716  0.4552 -0.7853 -0.3898
 2794TIP3    H229874   6.580   1.358  16.793  0.7725 -1.2230 -0.6067
 2795TIP3   OH229875   0.504   3.322  16.913 -0.0567 -0.4053 -0.5808
 2795TIP3    H129876   0.494   3.232  16.944 -0.6793  0.0058  0.4786
 2795TIP3    H229877   0.462   3.323  16.827 -1.2524 -0.8399 -0.0253
 2796TIP3   OH229878   0.185   2.521  12.325 -0.6073 -0.2583 -0.7406
 2796TIP3    H129879   0.168   2.597  12.270  1.7752  0.2443 -0.8639
 2796TIP3    H229880   0.216   2.453  12.265 -1.1677 -0.8205 -0.4158
 2797TIP3   OH229881   2.880   1.988  12.423 -0.1845 -0.6734  0.0134
 2797TIP3    H129882   2.792   1.994  12.386  0.5631  1.1975 -1.6869
 2797TIP3    H229883   2.874   2.033  12.507 -0.4513  1.6098 -1.1223
 2798TIP3   OH229884   6.231   2.721   5.337 -0.0517  0.3193 -0.3723
 2798TIP3    H129885   6.188   2.786   5.393 -2.0943 -1.3557  0.1256
 2798TIP3    H229886   6.202   2.743   5.249  1.0818  1.3807 -0.5169
 2799TIP3   OH229887   4.129   0.915   0.433  0.3273  0.4069  0.2682
 2799TIP3    H129888   4.046   0.962   0.426 -0.9955 -1.7769  0.7656
 2799TIP3    H229889   4.111   0.839   0.488  1.9370 -1.6206 -1.7939
 2800TIP3   OH229890   5.232   4.426  11.877 -0.7580  0.1380 -0.1002
 2800TIP3    H129891   5.327   4.438  11.884 -0.5329 -2.0484  1.7243
 2800TIP3    H229892   5.196   4.514  11.889  1.0163  0.8955 -0.0023
 2801TIP3   OH229893   4.685   0.990  11.708 -0.2179 -0.1242  0.3754
 2801TIP3    H129894   4.692   1.086  11.708 -1.8758  0.0457 -0.1352
 2801TIP3    H229895   4.630   0.970  11.783 -1.0238 -0.5338 -0.3022
 2802TIP3   OH229896   6.653   3.211   4.342  0.0359  0.0198  0.8590
 2802TIP3    H129897   6.748   3.206   4.349  0.3651  0.3302 -2.0087
 2802TIP3    H229898   6.636   3.210   4.248 -2.8353 -0.2920  1.2859
 2803TIP3   OH229899   4.355   3.474   0.942 -0.5513  0.0714  0.5033
 2803TIP3    H129900   4.262   3.498   0.944  0.2194  4.0484 -1.5030
 2803TIP3    H229901   4.385   3.500   0.855  2.2751 -2.2633  0.5997
 2804TIP3   OH229902   6.586   5.710   2.172 -0.0207 -0.3031 -0.2218
 2804TIP3    H129903   6.656   5.761   2.213  0.1811 -1.5821  1.1034
 2804TIP3    H229904   6.616   5.620   2.176 -1.6609 -0.8631  0.2144
 2805TIP3   OH229905   0.075   5.728  14.088 -0.3761 -0.0234 -0.4624
 2805TIP3    H129906   0.150   5.787  14.087  2.0940 -2.9289 -0.2150
 2805TIP3    H229907   0.029   5.749  14.170  0.7657  1.1219 -0.0797
 2806TIP3   OH229908   5.112   5.924   0.661 -0.3220 -0.0613 -0.1962
 2806TIP3    H129909   5.047   5.854   0.651 -1.8907  1.1082  1.2894
 2806TIP3    H229910   5.082   5.993   0.602 -0.9370  0.8165  1.1223
 2807TIP3   OH229911   2.241   1.470   2.516 -0.0780 -0.6132  0.6330
 2807TIP3    H129912   2.164   1.453   2.462  0.1490  1.9311 -0.6389
 2807TIP3    H229913   2.205   1.499   2.601 -0.8042  3.2179 -0.7576
 2808TIP3   OH229914   6.615   0.670  12.827 -0.0138 -0.0124 -0.3718
 2808TIP3    H129915   6.657   0.622  12.899 -1.6569 -0.6824  0.1828
 2808TIP3    H229916   6.525   0.637  12.825  0.0211 -0.1963 -2.9071
 2809TIP3   OH229917   5.787   0.073   3.342 -0.1364  0.3412 -0.6825
 2809TIP3    H129918   5.757   0.010   3.275  0.1370 -0.6780  0.1309
 2809TIP3    H229919   5.866   0.034   3.378 -1.5532 -0.3741  1.9226
 2810TIP3   OH229920   6.075   6.406  12.246  0.3414 -0.7448 -0.1659
 2810TIP3    H129921   6.168   6.401  12.266  0.0682 -1.3134  1.0718
 2810TIP3    H229922   6.053   6.499  12.251  0.4164 -0.7989  1.7034
 2811TIP3   OH229923   4.455   6.217   4.659 -0.3371  0.0801  0.6061
 2811TIP3    H129924   4.373   6.168   4.655 -0.3979  0.2296 -0.0288
 2811TIP3    H229925   4.473   6.241   4.568  1.7220 -2.1188  0.3450
 2812TIP3   OH229926   4.712   4.276   5.641 -0.2091  0.0012 -0.4815
 2812TIP3    H129927   4.767   4.314   5.709  0.5702  1.3780 -1.8296
 2812TIP3    H229928   4.646   4.226   5.689  0.3863  0.8205  1.2647
 2813TIP3   OH229929   2.574   4.575   4.325 -0.5712 -0.2962  0.4055
 2813TIP3    H129930   2.521   4.654   4.331  1.3399  1.2104 -1.2926
 2813TIP3    H229931   2.536   4.526   4.251 -0.8704 -0.2567  0.5336
 2814TIP3   OH229932   4.156   6.561  15.936 -0.1391 -0.0295  0.0008
 2814TIP3    H129933   4.114   6.635  15.979  0.4352 -0.8828  2.1368
 2814TIP3    H229934   4.148   6.580  15.842 -0.9416  2.1827  0.4668
 2815TIP3   OH229935   4.629   4.665   1.982 -0.0184  0.4664  0.2916
 2815TIP3    H129936   4.675   4.581   1.990 -1.5684 -0.4889 -0.2811
 2815TIP3    H229937   4.646   4.694   1.893 -2.7674 -1.3797 -0.9877
 2816TIP3   OH229938   3.528   5.374  13.499 -0.1417  0.5904 -0.1006
 2816TIP3    H129939   3.435   5.360  13.482 -0.0495 -1.0725  0.5473
 2816TIP3    H229940   3.541   5.341  13.588  0.8381  1.9825  0.3106
 2817TIP3   OH229941   4.767   1.157   5.438 -0.2937  0.3544  0.8084
 2817TIP3    H129942   4.715   1.086   5.401  0.2337  0.5257 -0.2813
 2817TIP3    H229943   4.849   1.116   5.462  0.7222  0.8850 -1.4875
 2818TIP3   OH229944   5.778   3.933  12.563 -0.1188 -0.1549  0.2371
 2818TIP3    H129945   5.825   3.860  12.523 -0.7048 -0.7909  0.6871
 2818TIP3    H229946   5.837   3.965  12.631  0.3533  0.1266 -0.2989
 2819TIP3   OH229947   1.482   2.411  10.303  0.0464 -0.4408 -0.1141
 2819TIP3    H129948   1.508   2.323  10.333 -1.2849 -1.1344 -0.8822
 2819TIP3    H229949   1.390   2.418  10.328  0.0497  0.6225 -0.3685
 2820TIP3   OH229950   6.460   6.840   1.424  0.1840  0.0385 -0.3368
 2820TIP3    H129951   6.496   6.894   1.494 -0.6899  2.0519 -1.3495
 2820TIP3    H229952   6.520   6.765   1.417  1.0840  0.5339  1.5470
 2821TIP3   OH229953   4.074   0.931  16.745 -0.5652  0.0752 -0.1494
 2821TIP3    H129954   4.152   0.988  16.751  0.9840 -1.8302 -1.0850
 2821TIP3    H229955   4.052   0.931  16.652 -1.3156  0.1048  0.0266
 2822TIP3   OH229956   3.417   4.622   4.051 -0.4440  0.5740 -0.3886
 2822TIP3    H129957   3.324   4.633   4.074 -0.5983  1.5715 -1.3758
 2822TIP3    H229958   3.465   4.658   4.125 -0.9054  2.3963 -0.9230
 2823TIP3   OH229959   2.947   3.739  12.379  0.4109  0.1282 -0.0220
 2823TIP3    H129960   2.949   3.644  12.371 -0.8403  0.0071  0.9126
 2823TIP3    H229961   2.873   3.766  12.324  1.0629  0.6277 -0.6835
 2824TIP3   OH229962   0.874   0.254   5.673  0.2087  0.2649  0.1105
 2824TIP3    H129963   0.785   0.288   5.683  0.3639  0.4864  0.7875
 2824TIP3    H229964   0.866   0.160   5.687 -0.4192 -0.2342 -2.9150
 2825TIP3   OH229965   0.945   5.715   0.033  0.0619  0.0150  0.4404
 2825TIP3    H129966   0.996   5.792   0.008  1.4909 -1.3369 -1.0403
 2825TIP3    H229967   0.892   5.696  -0.044 -1.3381  0.3031  1.3040
 2826TIP3   OH229968   4.071   2.486  16.738 -0.3425  0.6571  0.1348
 2826TIP3    H129969   3.998   2.548  16.740 -1.2927 -0.3530 -1.1147
 2826TIP3    H229970   4.078   2.454  16.828 -0.9451  1.3068  0.4227
 2827TIP3   OH229971   3.409   3.448   4.586 -0.1320  0.2390  0.3674
 2827TIP3    H129972   3.394   3.365   4.632  0.1884 -0.3054 -0.4834
 2827TIP3    H229973   3.327   3.465   4.541  0.2144 -0.2846 -0.4795
 2828TIP3   OH229974   0.997   5.861   6.687 -0.8037 -0.0127  0.2610
 2828TIP3    H129975   1.016   5.805   6.611 -0.3183  0.0742  0.3140
 2828TIP3    H229976   0.931   5.922   6.655 -0.3901  0.2119 -0.1900
 2829TIP3   OH229977   6.521   1.292   6.301 -0.2490  0.1539  0.0202
 2829TIP3    H129978   6.554   1.250   6.222  0.4768  1.4100 -0.3574
 2829TIP3    H229979   6.438   1.247   6.319 -1.0191  0.6303 -2.1094
 2830TIP3   OH229980   2.104   3.980  11.451  0.1280 -0.7664  0.1925
 2830TIP3    H129981   2.121   4.052  11.390  1.9163 -1.2452  0.0803
 2830TIP3    H229982   2.186   3.931  11.453 -0.4323 -1.6841  1.7634
 2831TIP3   OH229983   4.793   6.560   2.597  0.3666 -0.4543  0.1702
 2831TIP3    H129984   4.843   6.603   2.528 -0.4325 -1.3350 -0.9788
 2831TIP3    H229985   4.730   6.627   2.626  0.2549 -0.2919 -0.4356
 2832TIP3   OH229986   5.572   6.608  16.137 -0.3990 -0.4438 -0.1807
 2832TIP3    H129987   5.490   6.617  16.089  0.1937  0.4827 -1.0613
 2832TIP3    H229988   5.562   6.664  16.214 -0.7582 -0.7183 -0.0210
 2833TIP3   OH229989   3.061   2.967  11.938 -0.0349 -0.1569 -0.3352
 2833TIP3    H129990   2.988   2.911  11.964 -2.4023  2.3301 -1.2531
 2833TIP3    H229991   3.049   3.048  11.986  3.1519 -0.1692  0.7568
 2834TIP3   OH229992   1.483   3.080   0.068 -0.0011  0.5242  0.2087
 2834TIP3    H129993   1.443   2.997   0.043 -0.5360  0.7634  0.2532
 2834TIP3    H229994   1.573   3.074   0.035  0.0667 -0.2025  0.5068
 2835TIP3   OH229995   2.738   0.081  16.341 -0.2907  0.2672 -0.3748
 2835TIP3    H129996   2.655   0.116  16.373  0.8454  0.2359  2.9291
 2835TIP3    H229997   2.800   0.153  16.348  0.6838 -0.6164  0.4391
 2836TIP3   OH229998   4.713   6.385  15.228 -0.4205 -0.0257  0.5191
 2836TIP3    H129999   4.627   6.371  15.189  0.0705  0.3024 -0.7094
 2836TIP3    H230000   4.726   6.480  15.225  0.1546 -0.1073  0.3020
 2837TIP3   OH230001   1.802   2.400  12.004 -0.4512 -0.2879  0.2030
 2837TIP3    H130002   1.765   2.325  11.956 -2.1158  0.2066  0.6455
 2837TIP3    H230003   1.727   2.457  12.020  0.4963  0.6900  1.3200
 2838TIP3   OH230004   0.577   4.101   5.164  0.5767 -0.4933  0.0742
 2838TIP3    H130005   0.580   4.168   5.232  1.3215 -0.5691  0.1187
 2838TIP3    H230006   0.669   4.081   5.145  0.3678 -1.0568 -0.3760
 2839TIP3   OH230007   4.090   1.244  10.954 -0.0268 -0.1324 -0.9327
 2839TIP3    H130008   4.175   1.205  10.934  0.1335 -0.0526 -0.4345
 2839TIP3    H230009   4.068   1.209  11.041  0.4455  1.3997 -0.1527
 2840TIP3   OH230010   0.788   4.062   2.007  0.2412  0.1670  0.3212
 2840TIP3    H130011   0.830   4.079   2.092  0.1133  0.6329  0.2971
 2840TIP3    H230012   0.767   4.150   1.974 -2.2297 -0.0571  1.0778
 2841TIP3   OH230013   5.757   2.087   2.672  0.0915 -0.0618  0.5919
 2841TIP3    H130014   5.791   2.097   2.761 -0.9573  0.1918  0.9751
 2841TIP3    H230015   5.825   2.039   2.626 -0.0982 -1.7628  1.9884
 2842TIP3   OH230016   0.066   1.875  15.476 -0.7997  0.1480 -0.6507
 2842TIP3    H130017   0.010   1.829  15.539  1.7380 -2.2943  0.0384
 2842TIP3    H230018   0.111   1.941  15.528 -0.6259 -0.1009 -0.4846
 2843TIP3   OH230019   4.232   0.959   2.037 -0.5284 -0.0163  0.5941
 2843TIP3    H130020   4.203   0.900   2.107  0.5177  0.9718  1.9280
 2843TIP3    H230021   4.261   0.901   1.967 -0.1042 -1.0927  1.6172
 2844TIP3   OH230022   3.970   5.092  11.699  0.1485  0.1989  0.5878
 2844TIP3    H130023   4.037   5.053  11.643  0.5693  2.2056 -0.3857
 2844TIP3    H230024   3.901   5.121  11.639 -1.0657 -0.7055  1.4645
 2845TIP3   OH230025   5.680   0.033  12.460 -0.2842 -0.5464  0.1011
 2845TIP3    H130026   5.713   0.008  12.547  0.5615  0.9775  0.2571
 2845TIP3    H230027   5.689  -0.046  12.408  1.7542 -0.7798  0.7091
 2846TIP3   OH230028   4.084   4.267  12.197  0.2823 -0.4983 -0.6705
 2846TIP3    H130029   4.001   4.225  12.172  0.3266 -0.9441 -0.1106
 2846TIP3    H230030   4.148   4.233  12.135 -0.1506  0.7442 -1.8476
 2847TIP3   OH230031   2.184   3.348   2.379  0.5045  0.1111 -0.3838
 2847TIP3    H130032   2.152   3.265   2.343  0.9990 -0.6750  0.9236
 2847TIP3    H230033   2.108   3.385   2.424  1.2475 -1.6949  2.6069
 2848TIP3   OH230034   1.090   1.476   5.750 -0.1525  0.4100 -0.7122
 2848TIP3    H130035   0.998   1.491   5.771 -0.0288  2.3487 -1.3277
 2848TIP3    H230036   1.116   1.404   5.807 -2.3838 -1.1646 -1.5469
 2849TIP3   OH230037   4.769   2.844   3.358  0.6766  0.1726  0.0290
 2849TIP3    H130038   4.793   2.895   3.435  0.2416  2.6204 -1.3645
 2849TIP3    H230039   4.709   2.901   3.309  1.4903 -0.9938 -2.4711
 2850TIP3   OH230040   0.029   4.522   3.720  0.2255  0.3505 -0.0458
 2850TIP3    H130041  -0.015   4.500   3.638  1.9476 -1.3602 -0.5830
 2850TIP3    H230042  -0.037   4.505   3.787 -0.1190 -1.8153 -0.8429
 2851TIP3   OH230043   3.249   5.377   1.642 -0.2129  0.6227 -0.2915
 2851TIP3    H130044   3.300   5.414   1.713  0.3584 -0.3410 -0.1773
 2851TIP3    H230045   3.216   5.452   1.594  2.1784  1.3166 -0.9910
 2852TIP3   OH230046   3.957   4.186   5.572 -0.0905 -0.4371  0.2842
 2852TIP3    H130047   4.041   4.178   5.527  0.0071  1.0437  0.1478
 2852TIP3    H230048   3.892   4.176   5.503  0.0333  0.5066  0.0134
 2853TIP3   OH230049   6.667   0.926  13.857 -0.0395 -0.1671  0.9948
 2853TIP3    H130050   6.748   0.972  13.880  0.1127  0.0723  0.0286
 2853TIP3    H230051   6.646   0.957  13.769 -2.0491  0.9603  1.8013
 2854TIP3   OH230052   4.606   5.687   4.827 -0.2340  0.2370  0.2142
 2854TIP3    H130053   4.670   5.617   4.838 -0.7774 -0.1914  0.7159
 2854TIP3    H230054   4.650   5.751   4.770  0.5143 -0.1946  0.2910
 2855TIP3   OH230055   1.781   6.384   0.731  0.7293  0.0482  0.4648
 2855TIP3    H130056   1.727   6.336   0.793  0.2788  0.1016  0.1213
 2855TIP3    H230057   1.825   6.317   0.680  0.8104  0.0044  0.5921
 2856TIP3   OH230058   0.704   1.468  14.454  0.3800  0.0183  0.4698
 2856TIP3    H130059   0.660   1.486  14.371  3.5637  0.3481 -1.2732
 2856TIP3    H230060   0.680   1.377  14.474 -0.8147  0.0843 -0.5461
 2857TIP3   OH230061   2.356   4.886  13.279  0.4378  0.7971 -0.3519
 2857TIP3    H130062   2.380   4.939  13.202 -1.0547  2.5617  0.3180
 2857TIP3    H230063   2.294   4.822  13.245 -0.6237  1.9069 -0.5698
 2858TIP3   OH230064   0.400   0.821  16.742  0.0409 -0.0439  0.0881
 2858TIP3    H130065   0.323   0.841  16.690  0.4163 -0.0567 -0.4922
 2858TIP3    H230066   0.445   0.905  16.753 -0.1368 -0.0075  0.5643
 2859TIP3   OH230067   1.371   5.140  13.881 -0.2266 -0.1186  0.1284
 2859TIP3    H130068   1.383   5.046  13.867  1.5576  0.3892 -2.6239
 2859TIP3    H230069   1.283   5.147  13.917  0.0304 -2.8923  1.6235
 2860TIP3   OH230070   5.365   5.625   2.899 -0.0459  0.5013 -0.5717
 2860TIP3    H130071   5.415   5.642   2.820  1.5567  0.5679  0.4028
 2860TIP3    H230072   5.325   5.539   2.885 -2.4209  1.8067 -2.6836
 2861TIP3   OH230073   4.134   5.153  11.265 -0.0641 -0.4331 -0.1982
 2861TIP3    H130074   4.190   5.199  11.202  0.8601 -0.4355  0.5951
 2861TIP3    H230075   4.084   5.091  11.211 -1.3231  1.4114 -1.2957
 2862TIP3   OH230076   5.928   0.406   2.297  0.1828 -0.2205 -0.1020
 2862TIP3    H130077   5.989   0.435   2.365  1.6026 -0.2237 -1.2993
 2862TIP3    H230078   5.919   0.482   2.240 -0.1979 -0.5240 -0.4472
 2863TIP3   OH230079   5.763   4.544  15.011  1.1418 -0.0553  0.0220
 2863TIP3    H130080   5.719   4.473  14.964  1.5201  0.2127 -0.7538
 2863TIP3    H230081   5.752   4.521  15.104 -0.6390  0.0200 -0.1353
 2864TIP3   OH230082   5.120   1.749   0.562  0.1643 -0.1046  0.4936
 2864TIP3    H130083   5.139   1.834   0.521 -0.8299 -0.3557 -0.5281
 2864TIP3    H230084   5.205   1.704   0.562  0.5251  0.5522  0.2504
 2865TIP3   OH230085   6.177   2.478  16.425 -0.3255 -0.2068 -0.0399
 2865TIP3    H130086   6.185   2.497  16.332  1.7177  1.2606  0.3635
 2865TIP3    H230087   6.250   2.419  16.445 -0.5448 -0.2457  0.6893
 2866TIP3   OH230088   1.307   4.848  16.942  0.8385  0.4533 -0.2093
 2866TIP3    H130089   1.374   4.894  16.992  0.0911  1.5499 -0.1750
 2866TIP3    H230090   1.226   4.894  16.964  0.3546  0.3337 -1.6559
 2867TIP3   OH230091   1.951   5.944   0.088 -0.3772  0.0235 -0.2225
 2867TIP3    H130092   1.991   5.863   0.119 -1.6435 -0.0245  1.4612
 2867TIP3    H230093   1.962   6.005   0.161 -1.0801  0.7882 -0.7421
 2868TIP3   OH230094   3.102   5.601  14.544  0.1136 -0.8884 -0.0616
 2868TIP3    H130095   3.021   5.553  14.559  0.0786 -0.3532  1.7167
 2868TIP3    H230096   3.167   5.556  14.598 -0.0586  1.3337  2.1707
 2869TIP3   OH230097   6.578   5.042  11.848 -0.4879 -0.0981  0.0015
 2869TIP3    H130098   6.651   5.000  11.804 -0.6933  0.2502 -0.6900
 2869TIP3    H230099   6.581   5.008  11.938 -0.3681 -1.2194 -0.4063
 2870TIP3   OH230100   6.332   0.883  14.664 -0.3352  0.0214  0.2586
 2870TIP3    H130101   6.315   0.830  14.741 -1.5547  0.5543  0.3760
 2870TIP3    H230102   6.345   0.820  14.593  0.8167 -0.4703  0.8867
 2871TIP3   OH230103   2.624   0.695   0.211 -0.4585 -0.1339  0.2064
 2871TIP3    H130104   2.543   0.645   0.223  0.8431 -2.3003  0.4015
 2871TIP3    H230105   2.647   0.683   0.119 -0.9050  1.4453 -0.1529
 2872TIP3   OH230106   2.236   3.737  16.083 -0.5779  0.2511 -0.0254
 2872TIP3    H130107   2.290   3.713  16.158  0.6824 -1.4131 -1.4205
 2872TIP3    H230108   2.232   3.833  16.087 -0.6083  0.2220  2.1642
 2873TIP3   OH230109   2.984   4.026  15.821  0.4080  0.8954 -0.0789
 2873TIP3    H130110   2.949   3.984  15.742 -0.6274  1.3349  0.1279
 2873TIP3    H230111   2.954   4.117  15.815  1.0595  1.1482  0.3960
 2874TIP3   OH230112   0.298   1.902   6.187 -0.4117  0.5811  0.0151
 2874TIP3    H130113   0.259   1.938   6.106 -1.3766  1.6229  0.9069
 2874TIP3    H230114   0.246   1.941   6.257  1.0053  0.4104  1.1906
 2875TIP3   OH230115   3.840   2.039   4.605 -0.1095  0.1815  0.1204
 2875TIP3    H130116   3.801   2.110   4.556 -1.0758  0.1286  0.7936
 2875TIP3    H230117   3.854   2.075   4.693 -0.9018 -0.5415  0.5544
 2876TIP3   OH230118   3.644   6.430   1.308 -0.6184  0.2822 -0.1413
 2876TIP3    H130119   3.555   6.394   1.313 -1.1595  1.5785  0.2092
 2876TIP3    H230120   3.701   6.358   1.335 -1.5194 -0.7158 -0.8115
 2877TIP3   OH230121   5.390   5.764  11.134 -0.7085  0.7067 -0.0799
 2877TIP3    H130122   5.295   5.767  11.137 -0.6913  0.4384  0.8454
 2877TIP3    H230123   5.411   5.675  11.104 -0.7383  0.5981  0.2224
 2878TIP3   OH230124   5.126   2.467   2.760  0.2425  0.3812 -0.4259
 2878TIP3    H130125   5.054   2.414   2.794  1.5498 -0.6089  0.9287
 2878TIP3    H230126   5.086   2.551   2.737 -1.5390 -0.5573 -0.8997
 2879TIP3   OH230127   2.374   2.993  15.674 -0.5229 -0.5594  0.6971
 2879TIP3    H130128   2.453   2.950  15.640  0.2482  1.5872 -0.5029
 2879TIP3    H230129   2.302   2.956  15.623  0.1449 -0.2616 -0.5032
 2880TIP3   OH230130   2.359   4.815   4.108  0.2006 -0.4911  0.0993
 2880TIP3    H130131   2.307   4.866   4.170  1.5987  0.1562  0.7958
 2880TIP3    H230132   2.323   4.726   4.113 -0.6118 -0.1346  0.7899
 2881TIP3   OH230133   3.320   3.032   0.877 -0.6132 -0.3988 -0.4018
 2881TIP3    H130134   3.260   3.031   0.803 -0.6734  3.0124 -0.5495
 2881TIP3    H230135   3.270   2.996   0.950 -1.2744 -1.7435 -1.4800
 2882TIP3   OH230136   2.880   0.809  13.694 -0.1252 -0.5680  0.0688
 2882TIP3    H130137   2.921   0.894  13.708  0.3363 -0.7650 -0.0692
 2882TIP3    H230138   2.911   0.755  13.767  1.0018 -1.1270 -0.7890
 2883TIP3   OH230139   6.678   3.181  14.084  0.1094  0.1268 -0.4244
 2883TIP3    H130140   6.628   3.129  14.146 -0.5746  0.4438 -0.6939
 2883TIP3    H230141   6.670   3.134  14.001 -0.1868  0.4543 -0.5838
 2884TIP3   OH230142   3.991   4.043   3.892  0.3277  0.3420 -0.2489
 2884TIP3    H130143   3.948   3.959   3.909  0.7573  0.4764  1.7367
 2884TIP3    H230144   3.985   4.054   3.797 -0.6416 -1.4366 -0.4407
 2885TIP3   OH230145   2.978   6.074   5.604 -0.1915 -0.3837  0.3414
 2885TIP3    H130146   3.017   6.104   5.522 -2.3491 -1.7140 -1.2665
 2885TIP3    H230147   2.964   6.154   5.654 -0.5636  0.6836 -1.3926
 2886TIP3   OH230148   4.221   1.887   0.236 -0.0892  0.0194  0.4020
 2886TIP3    H130149   4.150   1.949   0.243 -0.8663 -0.7103 -0.6390
 2886TIP3    H230150   4.255   1.878   0.325 -1.4045  0.2589  0.9459
 2887TIP3   OH230151   0.362   0.857   0.959 -0.2610 -0.3673  0.2332
 2887TIP3    H130152   0.286   0.847   1.016 -0.6014 -0.1559 -0.1783
 2887TIP3    H230153   0.329   0.840   0.871  0.0723  0.1300  0.0028
 2888TIP3   OH230154   3.962   5.275   3.192  0.2658 -0.2023  0.6903
 2888TIP3    H130155   3.932   5.231   3.113  1.4050  0.8146 -0.3632
 2888TIP3    H230156   3.892   5.262   3.256 -0.7105 -0.9840 -0.5059
 2889TIP3   OH230157   4.719   1.301  11.673 -0.2990 -0.5517  0.2514
 2889TIP3    H130158   4.655   1.343  11.731 -1.1818  1.1171 -1.8008
 2889TIP3    H230159   4.801   1.348  11.692 -0.8546  0.8614 -0.6512
 2890TIP3   OH230160   6.075   1.877  12.347 -0.2836  0.4408 -0.2269
 2890TIP3    H130161   6.069   1.895  12.253  0.4579  1.3293 -0.1053
 2890TIP3    H230162   6.095   1.961  12.387  1.0521 -0.2290  0.5691
 2891TIP3   OH230163   1.837   0.798   4.806 -0.0474  0.2158  0.1239
 2891TIP3    H130164   1.812   0.719   4.758  0.4369  0.9243 -1.3590
 2891TIP3    H230165   1.823   0.776   4.898  0.9068 -1.9070 -0.1822
 2892TIP3   OH230166   5.346   1.886   5.202 -0.0487 -0.0535 -0.4729
 2892TIP3    H130167   5.376   1.933   5.124 -1.1902  2.0422  0.2834
 2892TIP3    H230168   5.425   1.853   5.243  0.7237  0.4914 -1.4809
 2893TIP3   OH230169   3.929   5.099  16.033 -0.0257 -0.6422 -0.0542
 2893TIP3    H130170   3.875   5.021  16.049 -1.1904  0.2152  0.3420
 2893TIP3    H230171   3.884   5.169  16.080  1.4756  0.1049  0.3154
 2894TIP3   OH230172   0.546   6.642  12.963 -0.2329 -0.2883 -0.5945
 2894TIP3    H130173   0.504   6.571  13.011 -1.9475  0.7719 -0.4341
 2894TIP3    H230174   0.634   6.610  12.944 -0.1892 -1.5393  1.4666
 2895TIP3   OH230175   2.660   3.684   0.306  0.6402  0.1663  0.2212
 2895TIP3    H130176   2.610   3.640   0.237  0.6494  0.0249  0.3047
 2895TIP3    H230177   2.728   3.622   0.331  0.0620 -0.1720  1.0159
 2896TIP3   OH230178   2.764   3.370   1.263  0.2440  0.2723  0.5872
 2896TIP3    H130179   2.778   3.285   1.304 -0.1186 -0.7092 -1.1817
 2896TIP3    H230180   2.685   3.404   1.305  1.0181  0.2815  2.0975
 2897TIP3   OH230181   5.346   2.913  15.917  0.3993  0.0661 -0.2411
 2897TIP3    H130182   5.281   2.982  15.928  0.2637  0.0623 -0.9389
 2897TIP3    H230183   5.412   2.930  15.984  1.1710  1.8184 -1.3522
 2898TIP3   OH230184   3.718   0.419  15.147 -0.0414 -0.3862  0.0454
 2898TIP3    H130185   3.682   0.378  15.226 -0.1025 -1.7120 -0.6374
 2898TIP3    H230186   3.744   0.345  15.092 -1.4238  0.4663 -1.8462
 2899TIP3   OH230187   5.511   1.222   0.121 -0.3681  0.1759  0.1698
 2899TIP3    H130188   5.546   1.273   0.193 -0.0601  0.3618 -0.1109
 2899TIP3    H230189   5.481   1.287   0.057 -0.5520  0.0132  0.0894
 2900TIP3   OH230190   0.449   0.042   5.891  0.6896  0.4930 -0.4439
 2900TIP3    H130191   0.470  -0.044   5.927 -2.9208 -0.7099 -0.7921
 2900TIP3    H230192   0.383   0.024   5.823  0.3320  3.4813 -1.0294
 2901TIP3   OH230193   1.844   2.843  12.846  0.1044 -0.4640 -0.2105
 2901TIP3    H130194   1.832   2.756  12.808  0.5769 -0.9598  0.7415
 2901TIP3    H230195   1.794   2.901  12.789  0.3961 -1.2477 -1.2986
 2902TIP3   OH230196   4.174   6.672  14.325  0.4043 -0.5605 -0.1521
 2902TIP3    H130197   4.189   6.600  14.263  1.0322  0.3623 -1.0955
 2902TIP3    H230198   4.256   6.722  14.323  1.0480 -1.3543  2.5791
 2903TIP3   OH230199   5.857   6.057  13.383  0.1139 -0.5926 -0.1520
 2903TIP3    H130200   5.783   6.011  13.422  0.5571 -0.7642  0.4964
 2903TIP3    H230201   5.819   6.101  13.307 -0.6397 -0.7297  0.1276
 2904TIP3   OH230202   6.330   1.621   4.417  0.5977 -0.2889 -0.0733
 2904TIP3    H130203   6.351   1.712   4.438  0.7238 -0.6591  1.6024
 2904TIP3    H230204   6.235   1.617   4.418  0.5928 -0.1665 -0.1317
 2905TIP3   OH230205   6.133   6.586  14.743 -0.5803  0.0874 -0.2225
 2905TIP3    H130206   6.176   6.550  14.665  1.0730 -0.0807  0.7226
 2905TIP3    H230207   6.074   6.653  14.709  1.8982  1.7798 -1.5304
 2906TIP3   OH230208   3.858   1.708   5.237 -0.0233  0.1359 -0.3523
 2906TIP3    H130209   3.771   1.670   5.228  0.4905 -1.2752  0.3327
 2906TIP3    H230210   3.851   1.793   5.194 -1.7877  0.1521 -0.1167
 2907TIP3   OH230211   5.431   1.680  13.900 -0.3042  0.1034  0.2490
 2907TIP3    H130212   5.526   1.669  13.910 -0.0573  1.5597 -0.2400
 2907TIP3    H230213   5.394   1.637  13.977  0.8086  0.1664  0.8403
 2908TIP3   OH230214   2.302   0.228   1.236  0.2758  0.0456  0.2013
 2908TIP3    H130215   2.281   0.265   1.322  0.8604 -0.5384  0.6152
 2908TIP3    H230216   2.313   0.304   1.179 -1.1994  0.4095  0.3710
 2909TIP3   OH230217   6.341   1.377   5.265 -0.3870 -0.1631  0.1608
 2909TIP3    H130218   6.275   1.368   5.196 -1.7884  1.0000  1.2839
 2909TIP3    H230219   6.399   1.446   5.235 -1.5499  1.0092  0.5117
 2910TIP3   OH230220   4.919   2.885   1.554  0.5153  0.5047 -0.0824
 2910TIP3    H130221   4.930   2.879   1.459  1.2384  0.5829 -0.0131
 2910TIP3    H230222   4.831   2.853   1.570  1.2185 -1.8747 -0.5328
 2911TIP3   OH230223   2.992   4.527   6.029  0.1685  0.1486 -0.1673
 2911TIP3    H130224   2.942   4.455   5.992 -1.0444  0.5618  0.6041
 2911TIP3    H230225   2.926   4.585   6.068  1.2950 -0.1234  2.3736
 2912TIP3   OH230226   0.011   3.329  10.291 -0.0652 -0.0435 -0.7484
 2912TIP3    H130227   0.053   3.246  10.313 -0.2910  0.7002  3.1999
 2912TIP3    H230228   0.082   3.383  10.255  1.0710 -0.6433  0.5008
 2913TIP3   OH230229   0.825   3.511   0.583 -0.1713 -0.2397 -0.1684
 2913TIP3    H130230   0.768   3.437   0.566  0.1767 -0.4374 -0.5016
 2913TIP3    H230231   0.816   3.567   0.506  0.2767 -0.4005 -0.3432
 2914TIP3   OH230232   4.300   3.070  14.272 -0.5784  0.2990 -0.3060
 2914TIP3    H130233   4.210   3.096  14.294 -0.3425  0.9236 -0.0559
 2914TIP3    H230234   4.319   3.118  14.191 -1.8792 -2.9166 -2.7247
 2915TIP3   OH230235   5.106   5.520   6.185 -0.3789 -0.6530  0.1286
 2915TIP3    H130236   5.133   5.430   6.167  0.8667 -0.3036  0.1699
 2915TIP3    H230237   5.032   5.535   6.126  1.2058 -0.7709 -1.9922
 2916TIP3   OH230238   0.570   3.274   0.233 -0.1550 -0.0588  0.0887
 2916TIP3    H130239   0.496   3.215   0.214 -0.6005  0.9840 -1.5537
 2916TIP3    H230240   0.637   3.249   0.170  1.1081 -1.2184  1.7799
 2917TIP3   OH230241   5.603   4.918   4.816  0.8257  0.7592  0.8074
 2917TIP3    H130242   5.541   4.846   4.805  1.2221  0.4811  0.3560
 2917TIP3    H230243   5.581   4.957   4.901  0.2261  0.4789  0.7792
 2918TIP3   OH230244   2.988   4.337   1.528 -0.2442  0.1006  0.3180
 2918TIP3    H130245   3.044   4.385   1.468 -1.0551  1.3091  0.4935
 2918TIP3    H230246   2.977   4.251   1.487  0.6458  0.3043 -0.3698
 2919TIP3   OH230247   0.035   0.585  12.461  1.0961 -0.3129 -0.3184
 2919TIP3    H130248  -0.037   0.637  12.496 -0.2340 -1.3353 -1.4019
 2919TIP3    H230249   0.093   0.649  12.420  1.4780  0.6515  1.5985
 2920TIP3   OH230250   4.878   4.172  12.863  0.3668 -0.1357 -0.0098
 2920TIP3    H130251   4.912   4.256  12.834  2.3443 -0.4740  1.1006
 2920TIP3    H230252   4.899   4.112  12.792  2.3421 -0.3620  0.7097
 2921TIP3   OH230253   0.792   0.500   4.528  0.1485  0.2897  0.2416
 2921TIP3    H130254   0.867   0.514   4.586  0.3691 -0.4405  0.1458
 2921TIP3    H230255   0.733   0.573   4.547 -0.4501 -0.6918  2.4306
 2922TIP3   OH230256   2.871   4.598  16.986  0.5149  0.2029 -0.1020
 2922TIP3    H130257   2.909   4.510  16.983 -1.9774 -1.0722  1.9198
 2922TIP3    H230258   2.889   4.628  17.075 -0.2059  0.9919 -0.2151
 2923TIP3   OH230259   2.605   6.467   1.686 -0.5405  1.1208 -0.4460
 2923TIP3    H130260   2.695   6.447   1.710 -0.8117  1.2730  0.7459
 2923TIP3    H230261   2.612   6.539   1.624  0.2013  0.3949 -1.2273
 2924TIP3   OH230262   1.411   6.764  11.348  0.2341  0.2351 -0.0835
 2924TIP3    H130263   1.332   6.777  11.296  0.5074 -1.3763 -0.9717
 2924TIP3    H230264   1.464   6.842  11.330 -0.5621  0.6903 -0.5439
 2925TIP3   OH230265   2.283   5.418   4.262  0.0901 -0.3613 -0.1392
 2925TIP3    H130266   2.334   5.337   4.270  0.1653 -0.1388  3.7372
 2925TIP3    H230267   2.329   5.469   4.196  0.9192 -2.8208 -1.6030
 2926TIP3   OH230268   4.474   2.246  14.246  0.4061  0.3594 -0.3174
 2926TIP3    H130269   4.540   2.276  14.309  0.6406  1.9135 -1.2439
 2926TIP3    H230270   4.511   2.166  14.208  1.0734  0.3941  0.2336
 2927TIP3   OH230271   5.269   1.325   1.530 -0.0996 -0.1090 -0.2934
 2927TIP3    H130272   5.221   1.264   1.585  0.0408 -0.2679 -0.3452
 2927TIP3    H230273   5.242   1.411   1.560  0.3508 -0.1885  0.3598
 2928TIP3   OH230274   2.555   2.174  11.846  0.7300 -0.2564 -0.0965
 2928TIP3    H130275   2.460   2.187  11.845  0.8876  1.0680 -1.5455
 2928TIP3    H230276   2.574   2.134  11.761  1.4295 -1.0419  0.4152
 2929TIP3   OH230277   5.314   5.775  11.686 -0.0525 -0.2194  0.3534
 2929TIP3    H130278   5.263   5.693  11.684  1.4851 -1.2422  1.0211
 2929TIP3    H230279   5.396   5.753  11.641  1.7869 -0.0933  3.4211
 2930TIP3   OH230280   1.565   6.619  16.407 -0.7667 -0.8328  0.5752
 2930TIP3    H130281   1.527   6.572  16.482 -0.3073  0.1656  1.4649
 2930TIP3    H230282   1.506   6.693  16.393 -0.0689 -0.1943  0.9105
 2931TIP3   OH230283   3.546   6.819   3.318 -0.1270 -0.6195 -0.5157
 2931TIP3    H130284   3.494   6.811   3.238  0.8469  2.3490 -1.5797
 2931TIP3    H230285   3.544   6.913   3.339  1.6395 -0.9632  1.5669
 2932TIP3   OH230286   5.166   5.677  17.070  0.0306  0.3506  0.7080
 2932TIP3    H130287   5.096   5.741  17.084  1.0646  1.6140  0.2494
 2932TIP3    H230288   5.245   5.721  17.102  0.5632 -1.2409  1.6951
 2933TIP3   OH230289   5.857   5.603  11.445  0.1924 -0.0326 -0.0183
 2933TIP3    H130290   5.894   5.687  11.472 -0.2713  0.2859 -0.3658
 2933TIP3    H230291   5.920   5.568  11.382  0.3100  0.1285  0.0106
 2934TIP3   OH230292   3.671   6.362  13.733  0.4214  0.0778  0.0515
 2934TIP3    H130293   3.599   6.339  13.674 -0.7796  0.5310  1.3108
 2934TIP3    H230294   3.646   6.326  13.818  0.9400  1.5914  0.8727
 2935TIP3   OH230295   1.735   5.364  11.217  0.2181 -1.0338  0.0265
 2935TIP3    H130296   1.830   5.363  11.213  0.2791 -1.1606  1.3563
 2935TIP3    H230297   1.711   5.452  11.189  0.5058 -1.9234 -3.5658
 2936TIP3   OH230298   2.917   0.852  16.744 -0.6121  0.4110  0.0914
 2936TIP3    H130299   2.840   0.829  16.796 -1.2081  2.4015  0.1721
 2936TIP3    H230300   2.887   0.846  16.653 -0.4702 -0.0894  0.0767
 2937TIP3   OH230301   4.121   2.763   6.035 -0.0417 -0.0455  0.5534
 2937TIP3    H130302   4.038   2.737   6.076  0.1928 -1.2304  0.3316
 2937TIP3    H230303   4.147   2.686   5.984  0.8838  0.5368  0.1253
 2938TIP3   OH230304   2.770   0.404  16.342 -0.0722  0.6276 -0.0210
 2938TIP3    H130305   2.675   0.414  16.333  0.0529  1.4204 -0.5962
 2938TIP3    H230306   2.800   0.489  16.374  0.5920  0.8462 -1.1858
 2939TIP3   OH230307   1.227   5.113   5.086 -0.1696  0.3378 -0.5568
 2939TIP3    H130308   1.137   5.136   5.061 -0.1385  1.3237  0.2170
 2939TIP3    H230309   1.280   5.187   5.057  0.3494 -0.0730 -0.6744
 2940TIP3   OH230310   1.865   3.749  16.390  0.0048  0.6608 -0.6440
 2940TIP3    H130311   1.878   3.696  16.469 -0.8257 -0.4407 -1.2248
 2940TIP3    H230312   1.770   3.761  16.385 -0.1010 -0.6235 -2.3106
 2941TIP3   OH230313   6.557   4.234  11.814  0.3402  0.0338 -0.3212
 2941TIP3    H130314   6.518   4.271  11.894 -1.0327  0.8415 -1.3252
 2941TIP3    H230315   6.563   4.140  11.831 -0.2160  0.1560  0.6126
 2942TIP3   OH230316   5.477   3.990   4.894 -0.1295  0.0651 -0.4566
 2942TIP3    H130317   5.424   4.048   4.840 -2.3492 -1.0024  0.4428
 2942TIP3    H230318   5.530   4.049   4.948 -1.8379  1.2727 -0.0221
 2943TIP3   OH230319   4.478   6.775  11.325 -0.9699  0.4325 -0.0882
 2943TIP3    H130320   4.535   6.734  11.260 -1.3093  0.4113 -0.3751
 2943TIP3    H230321   4.426   6.703  11.361  0.6842  0.0805  1.7489
 2944TIP3   OH230322   4.483   2.484   2.570  0.2904 -0.3725 -0.0093
 2944TIP3    H130323   4.574   2.474   2.597  0.9042  2.0231 -0.9360
 2944TIP3    H230324   4.442   2.535   2.639  0.1987  0.2843 -0.5343
 2945TIP3   OH230325   4.570   4.974  10.998  0.1937  0.8279  0.1345
 2945TIP3    H130326   4.661   4.999  11.013 -0.0851  1.5760  0.6636
 2945TIP3    H230327   4.575   4.886  10.961  1.2532  1.7731 -2.1930
 2946TIP3   OH230328   5.932   6.253   4.622 -0.4548  0.0773  0.9293
 2946TIP3    H130329   5.994   6.311   4.665 -0.3801 -0.8786  2.1639
 2946TIP3    H230330   5.903   6.301   4.545  1.4509  0.7321  0.5856
 2947TIP3   OH230331   2.527   0.698   5.793 -0.0672  0.3583 -0.1397
 2947TIP3    H130332   2.574   0.635   5.848  0.2954  0.9976  0.2874
 2947TIP3    H230333   2.536   0.664   5.704  1.9685  0.9391 -0.1860
 2948TIP3   OH230334   0.852   0.744   1.263  0.0177  0.0324 -0.2370
 2948TIP3    H130335   0.833   0.662   1.217 -0.9268  0.9730 -1.5926
 2948TIP3    H230336   0.936   0.728   1.307  0.9142 -0.9656 -2.1939
 2949TIP3   OH230337   3.702   6.111   5.449 -0.5836 -0.4727  0.5141
 2949TIP3    H130338   3.619   6.065   5.440 -1.4885  1.3028 -0.8603
 2949TIP3    H230339   3.691   6.164   5.528 -0.4450 -0.8068  0.7617
 2950TIP3   OH230340   3.612   5.583  10.776  0.4131 -0.9126  1.0495
 2950TIP3    H130341   3.580   5.520  10.712 -0.2855 -0.9451  1.4215
 2950TIP3    H230342   3.702   5.602  10.749 -1.1581  2.5177 -2.6724
 2951TIP3   OH230343   6.725   4.449  16.034 -0.4653 -0.0298  0.0085
 2951TIP3    H130344   6.763   4.479  16.117  0.4468 -0.0664 -0.3886
 2951TIP3    H230345   6.745   4.355  16.030  0.0455  0.0965 -0.5399
 2952TIP3   OH230346   0.712   0.632  16.626  0.4211 -0.1533  0.0938
 2952TIP3    H130347   0.785   0.669  16.576  0.0301 -1.0527 -1.1997
 2952TIP3    H230348   0.634   0.661  16.579  0.0943 -2.7416 -1.1870
 2953TIP3   OH230349   6.681   3.276   0.483 -0.0599  0.0406 -0.2527
 2953TIP3    H130350   6.699   3.195   0.435 -3.2458 -0.0718 -1.5002
 2953TIP3    H230351   6.726   3.344   0.434  2.6530 -0.8395  0.8034
 2954TIP3   OH230352   2.081   4.170  12.168  0.3766  0.3983 -0.3846
 2954TIP3    H130353   2.061   4.076  12.170 -1.2946  0.7197  2.0628
 2954TIP3    H230354   1.999   4.211  12.140  0.8655  1.1829 -0.6873
 2955TIP3   OH230355   4.277   4.884   0.942  0.0965  0.1922  0.2792
 2955TIP3    H130356   4.288   4.973   0.978 -1.2649  2.1313 -3.5555
 2955TIP3    H230357   4.366   4.857   0.919  0.4731  0.7712  0.9728
 2956TIP3   OH230358   0.941   1.222  11.360  0.1543  0.2963  0.6592
 2956TIP3    H130359   0.953   1.226  11.265 -0.0046 -2.7616  0.4066
 2956TIP3    H230360   1.022   1.258  11.396  1.4477 -1.0719 -0.7234
 2957TIP3   OH230361   6.587   1.641  17.122  0.0062 -0.3381 -0.1800
 2957TIP3    H130362   6.505   1.675  17.158  0.0375 -0.6085  0.1394
 2957TIP3    H230363   6.577   1.653  17.027 -0.2823 -0.1004 -0.1233
 2958TIP3   OH230364   2.678   3.640   4.279 -0.0758 -0.1372 -0.3180
 2958TIP3    H130365   2.658   3.678   4.194 -1.2636  1.0036  0.4238
 2958TIP3    H230366   2.725   3.708   4.326  0.0259 -0.5296  0.1617
 2959TIP3   OH230367   6.300   6.335   2.895 -0.0960 -0.0809  0.2325
 2959TIP3    H130368   6.394   6.349   2.906 -0.1603 -0.9967  2.3180
 2959TIP3    H230369   6.293   6.246   2.861 -0.2309 -0.0071  0.0620
 2960TIP3   OH230370   5.103   6.720  15.284  0.5764  0.1088  0.0410
 2960TIP3    H130371   5.088   6.788  15.218 -2.4040 -0.8047 -0.3616
 2960TIP3    H230372   5.077   6.760  15.367 -1.0693 -0.4293 -0.1803
 2961TIP3   OH230373   6.175   3.535  13.941 -0.0902  0.8503  0.3286
 2961TIP3    H130374   6.232   3.567  13.871 -0.3924  0.3564 -0.1593
 2961TIP3    H230375   6.097   3.504  13.895  0.1540 -0.4979  0.7777
 2962TIP3   OH230376   5.943   4.106  16.035 -0.2112  0.0329  0.1459
 2962TIP3    H130377   5.923   4.185  15.986  0.2585  0.4369  0.5954
 2962TIP3    H230378   5.973   4.137  16.121 -0.1186 -0.6296  0.3623
 2963TIP3   OH230379   6.364   4.006  16.206 -0.1159 -0.3635 -0.1759
 2963TIP3    H130380   6.442   3.976  16.160 -2.3309 -1.6889 -3.5518
 2963TIP3    H230381   6.344   4.091  16.167 -1.3241 -0.9104 -0.8308
 2964TIP3   OH230382   6.641   5.841   5.366  0.1039  1.2957 -0.0570
 2964TIP3    H130383   6.720   5.853   5.418  0.3714  1.3461 -0.4682
 2964TIP3    H230384   6.611   5.753   5.388  0.2755  1.2751  0.0974
 2965TIP3   OH230385   3.334   0.736   4.277  0.2357  0.0424  0.0626
 2965TIP3    H130386   3.328   0.814   4.332 -1.7608 -0.7659  1.0916
 2965TIP3    H230387   3.385   0.764   4.201  2.5443  1.3772  1.9829
 2966TIP3   OH230388   4.684   3.951  13.497  0.3206 -0.3084 -0.1649
 2966TIP3    H130389   4.779   3.949  13.504  0.2601 -0.5639  0.7103
 2966TIP3    H230390   4.661   3.869  13.453  0.4100 -1.0658  1.1434
 2967TIP3   OH230391   3.147   5.034   4.537 -0.0218  0.2071  0.4240
 2967TIP3    H130392   3.216   5.019   4.601 -0.6558 -0.7320  0.9032
 2967TIP3    H230393   3.184   5.100   4.478  1.3166 -0.3146  0.6229
 2968TIP3   OH230394   2.840   5.715  10.996  0.0306 -0.0978 -0.4054
 2968TIP3    H130395   2.821   5.790  10.940 -1.9711 -0.0075  0.3079
 2968TIP3    H230396   2.866   5.754  11.080 -2.2614 -0.1017  0.3780
 2969TIP3   OH230397   0.566   0.589   0.802  0.3825  0.6445  0.2728
 2969TIP3    H130398   0.486   0.538   0.805  0.1525  1.0517  1.9509
 2969TIP3    H230399   0.576   0.614   0.710 -1.3464  0.5024  0.0245
 2970TIP3   OH230400   2.562   6.161   1.689 -0.4021 -0.2393 -0.3753
 2970TIP3    H130401   2.576   6.253   1.711 -1.4484 -0.6490  2.5245
 2970TIP3    H230402   2.469   6.147   1.703 -0.2092 -1.7852 -0.4761
 2971TIP3   OH230403   0.092   6.119   4.220 -0.3452  0.2605  0.5360
 2971TIP3    H130404   0.063   6.142   4.308 -1.0553  1.5128 -0.0054
 2971TIP3    H230405   0.129   6.031   4.229 -0.6909  0.2475  2.0154
 2972TIP3   OH230406   0.368   5.014   2.595 -0.2543 -0.7007  0.5262
 2972TIP3    H130407   0.397   5.104   2.606  1.2248 -1.2574  1.5247
 2972TIP3    H230408   0.375   4.997   2.501 -2.7900  0.8892 -0.0535
 2973TIP3   OH230409   3.572   6.103  15.666  1.0799 -0.4700  0.5152
 2973TIP3    H130410   3.613   6.077  15.583 -1.0814 -1.4328 -0.3280
 2973TIP3    H230411   3.558   6.021  15.712 -0.0716 -0.1883  0.6755
 2974TIP3   OH230412   3.345   4.623   2.141  0.3338 -0.1706  0.0059
 2974TIP3    H130413   3.252   4.640   2.159 -0.4918 -2.8555 -1.3187
 2974TIP3    H230414   3.358   4.655   2.052  0.6482  0.0431  0.1287
 2975TIP3   OH230415   2.374   2.717  12.518  0.0914 -0.3438 -0.4740
 2975TIP3    H130416   2.453   2.730  12.465 -0.5199 -0.5898 -1.4682
 2975TIP3    H230417   2.328   2.646  12.475 -0.2772 -0.7630  0.5876
 2976TIP3   OH230418   0.546   3.329   0.902 -0.1528  0.1600  0.0611
 2976TIP3    H130419   0.496   3.375   0.835  0.5603  1.5144  0.4413
 2976TIP3    H230420   0.490   3.254   0.925 -1.2690  0.7407 -0.6611
 2977TIP3   OH230421   1.040   1.354  15.250  0.2921  0.4534  0.8033
 2977TIP3    H130422   1.035   1.441  15.290 -1.3840 -0.2647  2.2558
 2977TIP3    H230423   0.998   1.365  15.165  0.8763  1.2418  0.6025
 2978TIP3   OH230424   5.453   2.978   1.451 -0.3619 -0.0527  0.7134
 2978TIP3    H130425   5.543   2.968   1.421 -0.4020  1.1917  0.1268
 2978TIP3    H230426   5.433   3.070   1.436 -0.9551  0.2464  2.9899
 2979TIP3   OH230427   2.198   1.521   2.197  0.2099  0.7639 -0.0595
 2979TIP3    H130428   2.211   1.426   2.202 -0.9586  0.6033  0.2142
 2979TIP3    H230429   2.212   1.543   2.105  0.3996  0.3141 -0.1390
 2980TIP3   OH230430   3.946   6.235  14.761  0.4583 -0.4703  0.1128
 2980TIP3    H130431   3.925   6.152  14.803 -0.1377 -0.2175  0.3311
 2980TIP3    H230432   3.894   6.300  14.808  1.4948  0.1466  0.4548
 2981TIP3   OH230433   5.598   2.596  11.174  0.6267  0.1236  0.1250
 2981TIP3    H130434   5.606   2.579  11.080  2.6799  1.1288  0.0616
 2981TIP3    H230435   5.580   2.690  11.180 -1.1711 -0.2060  0.7392
 2982TIP3   OH230436   0.744   4.900   0.433  0.1360  0.4499  0.2412
 2982TIP3    H130437   0.743   4.837   0.361  1.0808 -1.0659  1.4898
 2982TIP3    H230438   0.736   4.986   0.390 -0.9069 -0.4717 -1.5293
 2983TIP3   OH230439   4.965   3.851   1.935  0.1784  0.0963  0.1684
 2983TIP3    H130440   4.894   3.790   1.914 -2.1469  2.1070  1.6315
 2983TIP3    H230441   4.996   3.824   2.021  1.3998 -0.8911 -0.5460
 2984TIP3   OH230442   5.759   1.539   3.674 -0.2439 -0.0302  0.3521
 2984TIP3    H130443   5.816   1.461   3.677 -1.7906 -1.1972  1.0774
 2984TIP3    H230444   5.687   1.513   3.616 -0.0789  1.3991 -0.5165
 2985TIP3   OH230445   3.625   4.066  11.591  0.1546  0.4136 -0.5393
 2985TIP3    H130446   3.644   4.084  11.683 -1.5867  2.5619 -0.5228
 2985TIP3    H230447   3.557   4.000  11.593  1.0912 -0.5663 -0.3505
 2986TIP3   OH230448   0.120   3.247  12.624 -0.3858  0.2941  0.3452
 2986TIP3    H130449   0.182   3.189  12.668  0.0885  1.0539  0.7067
 2986TIP3    H230450   0.044   3.249  12.682 -0.2065  0.4138  0.5795
 2987TIP3   OH230451   6.379   2.189   4.439  0.3711 -0.5338 -0.1761
 2987TIP3    H130452   6.391   2.200   4.344  1.1286  1.4476  0.0935
 2987TIP3    H230453   6.297   2.236   4.457  0.6756 -0.1626  0.2523
 2988TIP3   OH230454   1.089   0.700   1.911  0.2620  0.1273  0.7476
 2988TIP3    H130455   1.015   0.645   1.887 -0.0955  0.7456  0.3865
 2988TIP3    H230456   1.128   0.657   1.987 -0.5042 -0.1731  0.9811
 2989TIP3   OH230457   0.620   2.676  14.918  0.2781  0.4071  0.2489
 2989TIP3    H130458   0.568   2.702  14.842  0.1719 -1.4955 -0.3780
 2989TIP3    H230459   0.711   2.682  14.887  0.2733  0.5212  0.2589
 2990TIP3   OH230460   5.147   4.497  14.285 -0.2713 -0.0386 -0.2679
 2990TIP3    H130461   5.082   4.557  14.323  0.2333 -0.6535  1.6942
 2990TIP3    H230462   5.183   4.451  14.361  0.7448 -1.4269 -1.5539
 2991TIP3   OH230463   5.705   1.047  12.916  0.0749  0.2990  0.0477
 2991TIP3    H130464   5.720   1.048  13.011 -0.1436  0.6417  0.0810
 2991TIP3    H230465   5.657   1.128  12.899  0.8793  0.6671 -0.4864
 2992TIP3   OH230466   3.797   3.696  14.737 -1.1059  0.4239 -0.4994
 2992TIP3    H130467   3.727   3.692  14.672  0.2314 -1.3966 -1.9175
 2992TIP3    H230468   3.829   3.606  14.744  0.0719  0.9236  1.2902
 2993TIP3   OH230469   4.874   0.867   1.096  0.3133  0.1592  1.2205
 2993TIP3    H130470   4.790   0.837   1.060 -0.0332  0.7174  1.5394
 2993TIP3    H230471   4.936   0.859   1.024  0.1834 -1.0832  1.2238
 2994TIP3   OH230472   6.720   4.895  11.338 -0.7212 -0.0291 -0.1997
 2994TIP3    H130473   6.652   4.960  11.355 -0.3687  0.6824 -1.3930
 2994TIP3    H230474   6.799   4.947  11.319 -0.6429 -0.7461 -2.0943
 2995TIP3   OH230475   1.565   5.710  11.288  0.4351  0.2685 -0.4074
 2995TIP3    H130476   1.611   5.679  11.367  1.0441  1.4320 -0.2866
 2995TIP3    H230477   1.532   5.630  11.247  0.4949 -0.3915  0.7895
 2996TIP3   OH230478   2.408   5.614   5.477 -0.0985  0.2436 -0.0978
 2996TIP3    H130479   2.499   5.629   5.448  0.3409  0.9568  1.5440
 2996TIP3    H230480   2.355   5.653   5.407  0.7943 -0.9934 -1.5404
 2997TIP3   OH230481   4.353   0.510   3.316 -0.3076  0.2292 -0.2724
 2997TIP3    H130482   4.265   0.547   3.306 -0.3370  0.1436 -0.3299
 2997TIP3    H230483   4.370   0.516   3.410  0.0747  1.2738 -0.3971
 2998TIP3   OH230484   4.221   1.823   6.182  0.1445  0.6111  0.4616
 2998TIP3    H130485   4.304   1.865   6.207  0.8585  0.1801 -1.0576
 2998TIP3    H230486   4.160   1.850   6.250  1.4811  1.1062  1.5288
 2999TIP3   OH230487   1.700   6.248  12.632  0.4611 -0.0274  0.2773
 2999TIP3    H130488   1.651   6.319  12.673 -0.7623  0.4151 -1.8076
 2999TIP3    H230489   1.792   6.270  12.648  0.0876  1.5746  0.4071
 3000TIP3   OH230490   5.893   0.990  15.135 -0.2690 -0.2830 -0.9020
 3000TIP3    H130491   5.944   0.994  15.216  1.5307  0.3570 -2.0134
 3000TIP3    H230492   5.877   0.896  15.122  1.2793 -0.5862 -0.8699
 3001TIP3   OH230493   6.428   1.731   0.519 -0.0684 -0.1604 -0.1557
 3001TIP3    H130494   6.393   1.677   0.591 -2.1139 -0.8665 -1.6158
 3001TIP3    H230495   6.352   1.775   0.483  0.8256 -0.2349 -2.2310
 3002TIP3   OH230496   0.394   1.793   4.519  0.9931  0.0976  0.0955
 3002TIP3    H130497   0.389   1.742   4.600 -0.2863 -0.0800 -0.0727
 3002TIP3    H230498   0.438   1.874   4.544  0.2300  0.2273  1.0792
 3003TIP3   OH230499   4.034   4.516  12.328  0.1320  0.1412  0.2953
 3003TIP3    H130500   4.047   4.425  12.302  1.3882  0.5680 -0.6558
 3003TIP3    H230501   4.120   4.545  12.358  0.0515  1.3816 -0.6155
 3004TIP3   OH230502   1.710   4.022   4.859  0.0312  0.3000  0.0618
 3004TIP3    H130503   1.784   4.003   4.801 -0.8364  0.3466 -1.0976
 3004TIP3    H230504   1.727   3.969   4.937  2.1243  1.5760  0.5478
 3005TIP3   OH230505   4.947   1.801   5.024  1.1528  0.2198  0.0253
 3005TIP3    H130506   4.937   1.823   5.117 -1.7525  2.3963 -0.6266
 3005TIP3    H230507   4.892   1.723   5.012  2.2102 -0.5797  0.2380
 3006TIP3   OH230508   5.203   4.875  15.658 -0.3636  0.2830 -0.3411
 3006TIP3    H130509   5.185   4.822  15.736  0.3960  0.6372  0.0961
 3006TIP3    H230510   5.144   4.950  15.666 -1.8968 -0.7862 -1.2946
 3007TIP3   OH230511   6.050   3.415  12.338 -0.5835  0.1119 -0.4222
 3007TIP3    H130512   6.145   3.411  12.332 -0.6835 -1.0092 -1.9536
 3007TIP3    H230513   6.020   3.395  12.249 -2.2481  0.6534 -0.0170
 3008TIP3   OH230514   3.872   0.902  12.374 -0.1308 -0.4343  0.4511
 3008TIP3    H130515   3.907   0.869  12.457  1.4348 -0.8345 -0.3359
 3008TIP3    H230516   3.863   0.997  12.389 -0.7623 -0.6237  1.3725
 3009TIP3   OH230517   4.909   5.906   2.001  0.0350 -0.1203  0.5240
 3009TIP3    H130518   5.002   5.927   1.994 -0.4059  1.3987 -2.1286
 3009TIP3    H230519   4.869   5.987   2.033 -0.8278  0.8620 -2.7359
 3010TIP3   OH230520   2.903   2.503   3.172 -0.3905 -0.0600  0.2577
 3010TIP3    H130521   2.990   2.482   3.138 -0.2135  0.1669  0.5644
 3010TIP3    H230522   2.846   2.438   3.133 -0.1321 -0.0241 -0.1922
 3011TIP3   OH230523   3.235   3.982  16.777  0.1203 -0.4014 -0.0996
 3011TIP3    H130524   3.309   3.930  16.746 -0.2744 -0.5451 -0.8483
 3011TIP3    H230525   3.170   3.918  16.805  0.3758 -0.2725  0.8217
 3012TIP3   OH230526   4.276   1.856   4.531 -0.1243  0.6021 -0.2476
 3012TIP3    H130527   4.238   1.897   4.453  0.9549  3.0513  0.4119
 3012TIP3    H230528   4.340   1.793   4.497 -1.8631 -0.6428 -1.3133
 3013TIP3   OH230529   4.581   6.602  13.662 -0.3925 -0.1840 -0.4005
 3013TIP3    H130530   4.496   6.628  13.626 -0.3195  0.5282 -0.0729
 3013TIP3    H230531   4.618   6.544  13.595 -1.3991 -1.0234 -0.2678
 3014TIP3   OH230532   6.121   3.357   1.064  0.2085 -0.2729 -0.0445
 3014TIP3    H130533   6.051   3.296   1.086  0.7831 -1.0580 -0.3548
 3014TIP3    H230534   6.183   3.352   1.137  0.3539 -0.2058 -0.1614
 3015TIP3   OH230535   6.253   6.683  13.597  0.2198 -1.1061  0.4387
 3015TIP3    H130536   6.215   6.660  13.512 -0.7723 -1.8984  1.0735
 3015TIP3    H230537   6.259   6.778  13.596 -1.2027 -1.0073  0.0566
 3016TIP3   OH230538   1.453   2.698   6.462  0.4697 -0.1364  0.0456
 3016TIP3    H130539   1.543   2.668   6.469  0.4608 -0.0946  0.3792
 3016TIP3    H230540   1.454   2.787   6.497  0.5521  0.3735 -1.2123
 3017TIP3   OH230541   5.763   2.312  12.937  0.1182  0.2740  0.6640
 3017TIP3    H130542   5.735   2.361  13.013 -0.4583  1.7914 -0.4830
 3017TIP3    H230543   5.806   2.234  12.973 -0.0428  0.9959  2.5095
 3018TIP3   OH230544   6.071   5.420  10.894 -0.0522 -0.0066 -0.1450
 3018TIP3    H130545   6.056   5.512  10.872  1.7567  0.3300 -0.1563
 3018TIP3    H230546   6.018   5.371  10.831 -1.7703  0.9937  0.4451
 3019TIP3   OH230547   1.620   2.859   2.058 -0.2276  0.1739 -0.3970
 3019TIP3    H130548   1.531   2.861   2.022 -0.2953 -0.3792 -0.2747
 3019TIP3    H230549   1.623   2.779   2.109  0.1236  0.5573  0.1883
 3020TIP3   OH230550   6.366   2.596   5.049  0.0453  0.0438 -0.1767
 3020TIP3    H130551   6.307   2.533   5.091  1.4958 -1.7209 -0.6353
 3020TIP3    H230552   6.310   2.644   4.988 -1.6035  0.9721  1.9200
 3021TIP3   OH230553   0.738   2.896   0.780  0.4625 -0.6878 -0.1782
 3021TIP3    H130554   0.832   2.877   0.777  0.4867 -0.7141  0.5759
 3021TIP3    H230555   0.710   2.867   0.867  0.0760  0.7497  0.2114
 3022TIP3   OH230556   5.769   1.186   5.182  0.0114 -0.0129 -0.2234
 3022TIP3    H130557   5.740   1.224   5.266 -1.9125  0.9644 -1.2569
 3022TIP3    H230558   5.743   1.251   5.117  1.5566 -0.7209 -1.5926
 3023TIP3   OH230559   3.629   2.226   1.531  0.0371  0.2709 -0.0034
 3023TIP3    H130560   3.564   2.213   1.600 -0.0816  1.2339  0.0744
 3023TIP3    H230561   3.696   2.159   1.549 -0.4865 -0.1475  0.4368
 3024TIP3   OH230562   5.846   6.823  13.291 -0.5160 -0.5372 -0.2341
 3024TIP3    H130563   5.775   6.886  13.294 -2.2373 -2.3474 -0.6960
 3024TIP3    H230564   5.846   6.792  13.200  0.5859 -0.8736 -0.1324
 3025TIP3   OH230565   3.391   6.108   2.977  0.3782  0.1754 -0.1167
 3025TIP3    H130566   3.354   6.195   2.967 -0.2704 -0.2842 -2.0258
 3025TIP3    H230567   3.468   6.107   2.920  0.4083 -0.4767 -0.0774
 3026TIP3   OH230568   4.038   4.477   2.739 -0.2061 -0.1812 -0.8412
 3026TIP3    H130569   4.052   4.382   2.737 -0.3438 -0.1927 -1.1704
 3026TIP3    H230570   3.960   4.489   2.793  1.0607 -0.1142  1.0831
 3027TIP3   OH230571   4.178   2.318  16.530  0.4178  0.2958  0.0772
 3027TIP3    H130572   4.166   2.358  16.444 -0.9996  0.8208  0.4840
 3027TIP3    H230573   4.138   2.380  16.591  2.6032  0.6079  1.3062
 3028TIP3   OH230574   2.512   0.612  13.625  0.0720 -0.0816 -0.7819
 3028TIP3    H130575   2.575   0.579  13.689 -2.0961 -0.2378  1.4336
 3028TIP3    H230576   2.538   0.702  13.610  1.0454 -0.2531 -0.2044
 3029TIP3   OH230577   3.118   2.085   2.833 -0.4615 -0.0939  0.2017
 3029TIP3    H130578   3.147   2.136   2.757 -0.0923  1.0095  1.0596
 3029TIP3    H230579   3.047   2.136   2.871  0.0637 -0.0860  1.2117
 3030TIP3   OH230580   5.666   1.563   0.450  0.8843  0.0746 -0.3343
 3030TIP3    H130581   5.656   1.586   0.543 -2.0581 -0.7266 -0.3809
 3030TIP3    H230582   5.674   1.468   0.450  2.4375  0.1791 -0.8568
 3031TIP3   OH230583   0.746   6.747  14.572 -0.1271  0.6395 -0.2417
 3031TIP3    H130584   0.780   6.659  14.589 -0.0683  0.5334 -0.8792
 3031TIP3    H230585   0.653   6.740  14.590  0.0594  0.7514  0.8357
 3032TIP3   OH230586   5.541   5.037   5.041 -0.4009 -0.1816 -0.2261
 3032TIP3    H130587   5.497   5.099   4.982  0.0638 -1.1019 -1.5990
 3032TIP3    H230588   5.497   5.049   5.125 -0.3527  1.9625 -0.4513
 3033TIP3   OH230589   2.233   4.558  15.566 -0.2518 -0.3229 -0.1795
 3033TIP3    H130590   2.246   4.619  15.494  1.3513 -0.9202 -0.4200
 3033TIP3    H230591   2.205   4.477  15.525 -0.8934 -0.2187  0.0263
 3034TIP3   OH230592   1.344   6.427   0.775  0.0551 -0.2201 -0.3093
 3034TIP3    H130593   1.333   6.459   0.864  0.2876 -1.1512  0.0741
 3034TIP3    H230594   1.354   6.332   0.785  0.9666 -0.2462 -1.2456
 3035TIP3   OH230595   2.621   5.939  13.477 -0.3827  0.4508  0.2000
 3035TIP3    H130596   2.689   5.959  13.413  0.1030 -0.4650  0.4017
 3035TIP3    H230597   2.568   6.018  13.483  1.3143  1.5940  0.8330
 3036TIP3   OH230598   2.779   1.686   3.449 -0.4628 -0.1571 -0.0957
 3036TIP3    H130599   2.744   1.679   3.360  0.4178  1.2480 -0.5886
 3036TIP3    H230600   2.817   1.774   3.453  3.1487 -1.5545  0.3103
 3037TIP3   OH230601   2.757   0.641   5.336 -0.2650 -0.8864 -0.5934
 3037TIP3    H130602   2.764   0.715   5.276 -0.4875 -0.1720  0.2434
 3037TIP3    H230603   2.822   0.578   5.304  0.3325 -0.0927 -0.9810
 3038TIP3   OH230604   6.359   5.749  16.777  0.5932  0.4274  0.1623
 3038TIP3    H130605   6.365   5.680  16.711 -0.1512  1.5057 -1.0543
 3038TIP3    H230606   6.397   5.709  16.856 -1.2163 -1.9299 -0.0349
 3039TIP3   OH230607   2.562   2.753   4.663  0.0028 -0.4727 -0.0416
 3039TIP3    H130608   2.521   2.735   4.578 -0.6858  0.5255  0.0654
 3039TIP3    H230609   2.520   2.834   4.693  1.3761  0.0464  0.5301
 3040TIP3   OH230610   0.795   0.195   3.407  0.3298  0.2020  0.1901
 3040TIP3    H130611   0.723   0.156   3.457  0.8294 -1.4232 -0.2999
 3040TIP3    H230612   0.857   0.224   3.474  0.4870 -0.9316  0.5440
 3041TIP3   OH230613   1.694   6.662   5.334 -0.7834 -0.0226 -0.2177
 3041TIP3    H130614   1.782   6.638   5.363 -0.0607 -0.7662 -2.8038
 3041TIP3    H230615   1.680   6.749   5.372  0.7750 -0.1702  0.7975
 3042TIP3   OH230616   0.495   1.853   0.801 -0.0143  0.2831 -0.4519
 3042TIP3    H130617   0.564   1.877   0.740  0.2018  0.5326 -0.1103
 3042TIP3    H230618   0.538   1.848   0.886 -0.2683 -0.2859 -0.3538
 3043TIP3   OH230619   3.834   0.605  11.213  0.0266 -0.1078 -0.1304
 3043TIP3    H130620   3.873   0.520  11.196  0.0968 -0.3034  0.9211
 3043TIP3    H230621   3.771   0.618  11.143 -0.0481 -1.0676 -0.2440
 3044TIP3   OH230622   6.063   6.081  11.493  0.8746 -0.1026  0.2925
 3044TIP3    H130623   6.010   6.109  11.418 -0.7526 -0.5125  1.2305
 3044TIP3    H230624   6.056   6.154  11.555  2.8325  0.5628 -0.2047
 3045TIP3   OH230625   6.124   5.098   5.553 -0.1273  0.5942  0.2401
 3045TIP3    H130626   6.128   5.193   5.541 -0.1710  0.5640 -0.0370
 3045TIP3    H230627   6.088   5.086   5.640  0.3166  0.8372  0.4585
 3046TIP3   OH230628   4.944   0.081   3.281 -0.0844 -0.0593  0.2070
 3046TIP3    H130629   4.935   0.045   3.193 -2.6079 -0.2628  0.4954
 3046TIP3    H230630   4.855   0.092   3.313  0.7187  1.3406  2.2274
 3047TIP3   OH230631   3.579   4.271   1.014  0.4380 -0.4472 -0.0919
 3047TIP3    H130632   3.620   4.185   1.007 -0.5619 -1.1009  1.5495
 3047TIP3    H230633   3.487   4.256   0.992  0.0753  0.0089  1.0251
 3048TIP3   OH230634   6.637   2.867  15.474  0.5189 -0.8329 -0.4896
 3048TIP3    H130635   6.615   2.883  15.383  1.0651  1.7722 -0.2552
 3048TIP3    H230636   6.562   2.901  15.523  1.6053  0.9141  0.0719
 3049TIP3   OH230637   0.655   5.844   1.667  0.3101  0.1911  0.3432
 3049TIP3    H130638   0.582   5.825   1.608 -0.7906  3.5195  0.4591
 3049TIP3    H230639   0.733   5.814   1.619 -0.8034 -0.0076 -1.4340
 3050TIP3   OH230640   5.639   0.308   0.417  0.3819  0.0335 -0.1304
 3050TIP3    H130641   5.578   0.288   0.488 -0.6005  1.9928 -0.3384
 3050TIP3    H230642   5.721   0.266   0.442 -0.7520 -1.8463  0.6527
 3051TIP3   OH230643   0.376   1.170  12.537  0.0822  0.5351  0.5660
 3051TIP3    H130644   0.402   1.078  12.539 -2.4231 -0.2410  0.2057
 3051TIP3    H230645   0.318   1.181  12.612 -2.1315  0.9627 -1.1067
 3052TIP3   OH230646   2.832   6.051   0.561  0.2411 -0.7291 -0.4111
 3052TIP3    H130647   2.778   6.061   0.640  0.2402 -2.5823 -0.1340
 3052TIP3    H230648   2.903   6.114   0.572 -1.1736  0.8668 -0.1863
 3053TIP3   OH230649   3.474   3.333   3.186  0.7756 -1.0461  0.3823
 3053TIP3    H130650   3.494   3.266   3.252 -0.7543 -0.4303  1.5207
 3053TIP3    H230651   3.395   3.301   3.143  1.7077 -1.3987 -1.1485
 3054TIP3   OH230652   0.705   6.048   3.419  0.0253 -0.8485 -0.3082
 3054TIP3    H130653   0.691   6.139   3.446 -3.8497 -1.3825  0.0756
 3054TIP3    H230654   0.724   6.002   3.501 -2.3382 -0.9693  0.2470
 3055TIP3   OH230655   1.163   2.534  14.712 -0.3362  0.3899  0.2610
 3055TIP3    H130656   1.087   2.571  14.666  0.4086 -0.6350 -1.9450
 3055TIP3    H230657   1.148   2.439  14.710 -0.5350  0.3022  2.7317
 3056TIP3   OH230658   2.797   1.413  14.642 -0.3144 -0.1671 -0.1267
 3056TIP3    H130659   2.762   1.490  14.686 -1.3592  0.7493 -2.3818
 3056TIP3    H230660   2.739   1.342  14.669  0.5013 -0.1722  1.7689
 3057TIP3   OH230661   2.331   5.387  16.393 -0.2687  0.0119  0.0316
 3057TIP3    H130662   2.273   5.346  16.328 -0.3655 -1.4872  1.0135
 3057TIP3    H230663   2.336   5.322  16.464  0.1347  1.4484  1.3539
 3058TIP3   OH230664   2.317   4.206  12.406  0.0609 -0.2402 -0.1565
 3058TIP3    H130665   2.355   4.286  12.443  1.8607 -0.6404 -1.0059
 3058TIP3    H230666   2.232   4.233  12.373  0.6938  1.3861 -0.5890
 3059TIP3   OH230667   2.952   4.772  16.043 -0.0034  0.4205 -0.5200
 3059TIP3    H130668   2.879   4.830  16.063 -0.0618  0.4072 -0.6914
 3059TIP3    H230669   2.975   4.792  15.953  0.6528  0.9064 -0.2524
 3060TIP3   OH230670   1.145   2.718   5.386  0.5048  0.0708 -0.3242
 3060TIP3    H130671   1.186   2.649   5.438 -3.3168 -0.2863  2.6891
 3060TIP3    H230672   1.122   2.675   5.303  2.6329 -0.7158 -0.5706
 3061TIP3   OH230673   4.133   6.042   1.355  0.6673 -0.1840  0.2983
 3061TIP3    H130674   4.126   6.082   1.269 -0.0948 -0.2611  0.3136
 3061TIP3    H230675   4.145   6.115   1.416  0.7726 -0.0940  0.1671
 3062TIP3   OH230676   5.167   6.250   0.947 -0.3558 -0.6978  0.2136
 3062TIP3    H130677   5.259   6.229   0.965  0.5896  0.9494 -2.1949
 3062TIP3    H230678   5.130   6.168   0.914  0.0779 -1.4946  1.6220
 3063TIP3   OH230679   5.138   4.537  14.679  0.0952 -0.6138  0.1450
 3063TIP3    H130680   5.173   4.448  14.680 -1.5725 -1.3027  0.2564
 3063TIP3    H230681   5.065   4.535  14.741 -0.2091  0.7244 -0.1334
 3064TIP3   OH230682   0.247   4.259  10.961  0.1000  0.3131 -0.1968
 3064TIP3    H130683   0.307   4.203  11.010 -0.2937 -0.9850 -1.1446
 3064TIP3    H230684   0.160   4.236  10.995 -0.0208  0.7557 -0.2038
 3065TIP3   OH230685   5.762   6.413  12.408  0.3043  0.4074 -0.5398
 3065TIP3    H130686   5.667   6.427  12.414  0.2936  0.2598 -0.3268
 3065TIP3    H230687   5.772   6.318  12.405  0.4226  0.4333 -1.0332
 3066TIP3   OH230688   6.722   4.433   1.424  0.5481  0.2615  0.0310
 3066TIP3    H130689   6.757   4.486   1.353 -0.7627  0.9678 -0.1263
 3066TIP3    H230690   6.667   4.367   1.381  1.9413 -1.0881  0.2430
 3067TIP3   OH230691   2.362   1.043   2.561  0.3644 -0.0447 -0.3825
 3067TIP3    H130692   2.383   1.136   2.568  0.2015 -0.0260 -0.1380
 3067TIP3    H230693   2.356   1.027   2.467  1.9899 -0.1692 -0.4931
 3068TIP3   OH230694   0.134   3.731   5.420  0.0861 -0.0278 -0.2697
 3068TIP3    H130695   0.039   3.737   5.427  0.0747 -1.5966  1.6344
 3068TIP3    H230696   0.149   3.689   5.336 -0.9267 -0.0767 -0.4423
 3069TIP3   OH230697   1.341   1.694   0.189 -0.0838  1.1848  0.3486
 3069TIP3    H130698   1.279   1.627   0.162  0.4131  0.7915  0.1693
 3069TIP3    H230699   1.398   1.651   0.253  1.1390  0.9909 -0.8197
 3070TIP3   OH230700   2.907   6.530  15.128 -0.3763  0.2053  0.2784
 3070TIP3    H130701   2.922   6.614  15.172  2.4054 -0.6908  1.2217
 3070TIP3    H230702   2.926   6.464  15.195 -0.2812 -1.1840 -1.0708
 3071TIP3   OH230703   5.435   5.937   0.373  0.0643  0.1199  0.1081
 3071TIP3    H130704   5.514   5.975   0.335  0.4898  0.3502  1.1735
 3071TIP3    H230705   5.374   6.011   0.378  0.8571  0.7073  2.0848
 3072TIP3   OH230706   1.102   0.060   3.802  0.3007 -0.1876  0.1539
 3072TIP3    H130707   1.043  -0.009   3.770  0.3234  0.1412 -0.5991
 3072TIP3    H230708   1.044   0.130   3.829  0.2705 -0.5479  1.0576
 3073TIP3   OH230709   4.998   3.513   2.048 -0.2410 -0.9018 -0.2371
 3073TIP3    H130710   5.038   3.572   2.112  1.1445 -1.1421 -0.8474
 3073TIP3    H230711   4.980   3.433   2.097  0.0638 -0.8029  0.0384
 3074TIP3   OH230712   5.404   5.309  15.461 -0.2379 -0.2722  0.3104
 3074TIP3    H130713   5.361   5.347  15.537 -0.7193 -0.8806  0.3539
 3074TIP3    H230714   5.354   5.229  15.443 -1.0630  0.5831 -1.5100
 3075TIP3   OH230715   1.392   1.979   3.185 -0.0203  0.0210  0.0900
 3075TIP3    H130716   1.449   1.927   3.128  0.0515 -1.2819  1.3000
 3075TIP3    H230717   1.304   1.952   3.161 -0.2671  2.4209 -2.1535
 3076TIP3   OH230718   0.135   4.927  15.750 -0.4840 -0.1318  0.0674
 3076TIP3    H130719   0.068   4.995  15.749  0.2505  0.5957  0.0403
 3076TIP3    H230720   0.217   4.973  15.735  0.3071 -0.7066  2.3074
 3077TIP3   OH230721   6.401   0.778  11.872 -0.2056 -0.1262  0.3431
 3077TIP3    H130722   6.313   0.815  11.862 -1.1544 -1.8636  1.7751
 3077TIP3    H230723   6.455   0.830  11.813 -2.1615  1.0721 -0.4990
 3078TIP3   OH230724   5.118   2.023   1.841 -0.7295 -0.2427  0.2975
 3078TIP3    H130725   5.212   2.039   1.853 -0.9019  0.7612  0.3803
 3078TIP3    H230726   5.107   1.929   1.858  0.2457 -0.3540  0.3534
 3079TIP3   OH230727   2.826   4.421   2.939  0.3921  0.1188  0.8424
 3079TIP3    H130728   2.742   4.408   2.982 -1.8328 -0.4824 -3.2254
 3079TIP3    H230729   2.874   4.339   2.953  0.1157  0.2337  2.6639
 3080TIP3   OH230730   1.095   2.125  15.723 -0.6742 -0.5340 -0.4923
 3080TIP3    H130731   1.061   2.214  15.737  0.6110 -0.4367  2.8336
 3080TIP3    H230732   1.189   2.137  15.712 -0.5316 -1.4755 -0.3840
 3081TIP3   OH230733   2.307   3.907  14.253  0.3383  0.1542 -0.0073
 3081TIP3    H130734   2.273   3.826  14.291 -2.3677  2.0995  2.0821
 3081TIP3    H230735   2.262   3.916  14.169 -0.8673  0.4261  0.6528
 3082TIP3   OH230736   5.250   4.001  15.082 -0.0551  0.0618  0.0314
 3082TIP3    H130737   5.237   4.096  15.089 -0.5757 -0.0782  1.1798
 3082TIP3    H230738   5.257   3.985  14.988 -0.0876  1.2242 -0.1853
 3083TIP3   OH230739   1.286   2.652  14.956 -0.0254 -0.0359 -0.1247
 3083TIP3    H130740   1.210   2.597  14.975  0.2725 -0.0204  1.2217
 3083TIP3    H230741   1.307   2.634  14.865 -1.1762 -0.6180 -0.2910
 3084TIP3   OH230742   0.800   5.271  10.761  0.7171 -0.1106  0.1416
 3084TIP3    H130743   0.736   5.341  10.773  1.9226  0.6876  2.6670
 3084TIP3    H230744   0.814   5.267  10.666 -0.9396  1.6083 -0.2366
 3085TIP3   OH230745   1.192   1.252   5.890 -0.4021  0.7000 -0.4036
 3085TIP3    H130746   1.133   1.191   5.846 -0.2014  0.8174 -0.8358
 3085TIP3    H230747   1.250   1.196   5.942  0.1967  0.4704 -1.2905
 3086TIP3   OH230748   5.219   2.212  14.096 -0.1965 -0.1288  0.8709
 3086TIP3    H130749   5.218   2.266  14.017  1.5124 -0.7441  0.3891
 3086TIP3    H230750   5.142   2.155  14.087 -0.3777  0.2472 -0.0419
 3087TIP3   OH230751   0.347   3.613  10.883  0.1002  0.2886  0.0587
 3087TIP3    H130752   0.404   3.645  10.953  0.0298  0.4067  0.0622
 3087TIP3    H230753   0.261   3.607  10.922  0.3764 -1.3595  0.5001
 3088TIP3   OH230754   5.717   2.702  15.705  0.1496  0.0808  0.2981
 3088TIP3    H130755   5.769   2.624  15.684 -0.3393 -0.1902  0.0596
 3088TIP3    H230756   5.666   2.718  15.625  1.0987  1.3480 -0.0914
 3089TIP3   OH230757   3.015   3.982  16.288  0.3247  0.4017 -0.0020
 3089TIP3    H130758   2.978   3.929  16.217  1.1600  0.8524 -0.7901
 3089TIP3    H230759   2.974   3.947  16.367 -0.0226 -0.6476 -0.6172
 3090TIP3   OH230760   4.531   6.515  11.971 -0.1959 -0.1419  0.0439
 3090TIP3    H130761   4.437   6.520  11.954 -0.1807 -0.4865 -0.1351
 3090TIP3    H230762   4.572   6.524  11.885 -0.0161  1.2538  0.2406
 3091TIP3   OH230763   4.950   2.980  16.838 -0.4693  0.0074 -0.5695
 3091TIP3    H130764   4.876   3.041  16.832  0.7409  1.5093 -0.9273
 3091TIP3    H230765   5.010   3.021  16.900  0.7777 -0.3638 -1.4901
 3092TIP3   OH230766   4.450   5.332   3.311  0.3346  0.0921  0.9408
 3092TIP3    H130767   4.368   5.379   3.295 -0.0682 -0.9046 -0.0423
 3092TIP3    H230768   4.423   5.241   3.322  1.4649 -0.6369 -1.5724
 3093TIP3   OH230769   3.446   2.684  10.576  0.0172 -0.4212 -0.0351
 3093TIP3    H130770   3.498   2.634  10.639  2.6018  0.7298 -1.0948
 3093TIP3    H230771   3.396   2.745  10.629  2.7240  1.0697  1.0119
 3094TIP3   OH230772   4.870   2.978  16.221  0.1716  0.3494 -0.3388
 3094TIP3    H130773   4.831   2.904  16.174 -1.0417  0.6954  0.0954
 3094TIP3    H230774   4.943   2.939  16.269 -0.0426 -0.4413 -0.6404
 3095TIP3   OH230775   4.039   5.030  15.191  0.1299  0.0819 -0.2468
 3095TIP3    H130776   3.949   5.011  15.218  0.5216 -0.7620  0.5354
 3095TIP3    H230777   4.030   5.088  15.115 -1.0204  2.2340  1.4259
 3096TIP3   OH230778   6.749   2.614   3.843 -0.0979 -0.5112  0.2983
 3096TIP3    H130779   6.792   2.556   3.781 -0.8197 -1.4049  0.6167
 3096TIP3    H230780   6.821   2.663   3.884  0.4161 -0.2361 -0.8868
 3097TIP3   OH230781   0.849   4.806   5.480 -0.4704 -0.2718  0.6057
 3097TIP3    H130782   0.920   4.866   5.505  0.1185 -0.8642  0.3886
 3097TIP3    H230783   0.813   4.775   5.563  1.3635 -2.1048  0.7824
 3098TIP3   OH230784   4.463   1.232  11.978  0.7821  0.6467  0.3807
 3098TIP3    H130785   4.424   1.211  12.064 -0.1150  0.9488  0.0655
 3098TIP3    H230786   4.556   1.215  11.989  0.4618 -0.8794  0.9384
 3099TIP3   OH230787   1.001   0.107  16.231 -0.5325 -0.5344 -0.3545
 3099TIP3    H130788   1.012   0.148  16.145 -0.9075  0.8242  0.2279
 3099TIP3    H230789   1.081   0.130  16.279 -1.2529  0.5606  0.3731
 3100TIP3   OH230790   4.337   6.387   3.459 -0.2168 -0.1465 -0.3358
 3100TIP3    H130791   4.309   6.463   3.511  0.1099 -0.1953 -0.0819
 3100TIP3    H230792   4.257   6.354   3.419 -0.1473  1.2484 -1.7010
 3101TIP3   OH230793   2.736   5.487   3.375 -0.5978 -0.3098  0.5707
 3101TIP3    H130794   2.726   5.405   3.327 -1.5340  0.6836 -1.0214
 3101TIP3    H230795   2.661   5.491   3.433  0.8226 -1.7762  2.6374
 3102TIP3   OH230796   3.429   4.995  14.073  0.3252  0.1247  0.1458
 3102TIP3    H130797   3.393   5.010  13.985  0.1997  1.8235  0.4418
 3102TIP3    H230798   3.488   5.069  14.087  0.4192 -0.1760  1.4528
 3103TIP3   OH230799   6.554   1.321   3.943  0.0426 -0.5335 -0.2341
 3103TIP3    H130800   6.512   1.397   3.983  0.3199 -0.9240  0.8311
 3103TIP3    H230801   6.539   1.250   4.005  2.0100 -0.7474  0.0660
 3104TIP3   OH230802   3.972   3.377   0.034  0.3030 -0.8416  0.0065
 3104TIP3    H130803   3.948   3.288   0.008  3.0049 -1.6540 -0.0573
 3104TIP3    H230804   3.955   3.380   0.128  1.0382 -1.7707  0.1815
 3105TIP3   OH230805   6.596   6.185   4.868 -0.4943  0.2671 -0.0357
 3105TIP3    H130806   6.530   6.119   4.848 -0.5475  0.2707  0.1254
 3105TIP3    H230807   6.636   6.155   4.950 -0.9311  0.7470  0.3622
 3106TIP3   OH230808   2.031   0.207   5.928  0.1710  0.1793  0.1543
 3106TIP3    H130809   2.066   0.279   5.875 -1.2232 -0.5395 -1.8811
 3106TIP3    H230810   1.937   0.211   5.914 -0.0083 -1.5539  0.6558
 3107TIP3   OH230811   0.767   6.092   2.089  0.1243 -0.1703  0.1182
 3107TIP3    H130812   0.808   6.009   2.114  1.9926  0.7334  0.1483
 3107TIP3    H230813   0.781   6.149   2.164 -2.6001 -0.2330  0.8070
 3108TIP3   OH230814   2.703   5.366   1.910  0.6443  0.3353 -0.1068
 3108TIP3    H130815   2.640   5.437   1.903  0.5720  0.2686 -0.1383
 3108TIP3    H230816   2.700   5.322   1.826 -0.6661 -0.8267  0.5100
 3109TIP3   OH230817   3.453   0.113  13.157  0.0534 -0.8809 -0.2085
 3109TIP3    H130818   3.378   0.092  13.100  0.1000 -0.0186 -0.6045
 3109TIP3    H230819   3.523   0.056  13.127  0.1125 -0.3511 -1.1216
 3110TIP3   OH230820   2.014   5.696  14.922 -0.1881 -0.0639  0.5967
 3110TIP3    H130821   1.979   5.609  14.941 -1.5809  0.1844 -0.6844
 3110TIP3    H230822   2.043   5.691  14.831 -0.0628  0.7413  0.5817
 3111TIP3   OH230823   1.217   1.015   2.633  0.4386  0.0630  0.7813
 3111TIP3    H130824   1.210   0.969   2.549 -0.6901 -1.1092  1.4734
 3111TIP3    H230825   1.149   0.976   2.687  0.5540  1.4210  1.9717
 3112TIP3   OH230826   3.860   4.451  13.771  0.5399 -0.0726 -0.1258
 3112TIP3    H130827   3.841   4.493  13.687 -0.9485  1.5016  0.9180
 3112TIP3    H230828   3.818   4.365  13.766 -0.8154  0.5894 -0.4786
 3113TIP3   OH230829   0.338   1.014   2.814  0.4723 -0.0410  0.4710
 3113TIP3    H130830   0.316   0.974   2.730 -0.7952 -1.2547  1.3374
 3113TIP3    H230831   0.280   1.090   2.820  0.6349  0.1039  0.2062
 3114TIP3   OH230832   3.130   3.143  16.914  0.2878  0.5852 -0.7145
 3114TIP3    H130833   3.129   3.193  16.996 -0.2079  0.1454 -0.4476
 3114TIP3    H230834   3.107   3.054  16.940 -0.5270  0.5768 -1.4099
 3115TIP3   OH230835   4.350   6.291   6.343  0.0560  0.0353 -0.7877
 3115TIP3    H130836   4.273   6.269   6.290 -0.3346  0.9110 -0.5996
 3115TIP3    H230837   4.313   6.328   6.423  0.6793  1.1193 -0.9891
 3116TIP3   OH230838   6.283   5.718   4.234  0.5523 -0.1604  0.0667
 3116TIP3    H130839   6.226   5.771   4.178 -0.0252 -0.3769  0.4365
 3116TIP3    H230840   6.224   5.680   4.299  1.1369 -0.3278  0.5095
 3117TIP3   OH230841   0.421   1.665  15.788 -0.1990  0.1344  0.1644
 3117TIP3    H130842   0.490   1.731  15.798 -0.4548  0.3439  0.5737
 3117TIP3    H230843   0.369   1.696  15.714  0.6122 -0.4466 -0.6731
 3118TIP3   OH230844   4.272   3.812   0.367 -0.1257 -0.2259  0.0944
 3118TIP3    H130845   4.297   3.855   0.285  0.6658 -1.3185 -0.2473
 3118TIP3    H230846   4.220   3.737   0.339 -1.2037  0.2775  0.6799
 3119TIP3   OH230847   3.255   2.212   0.010 -0.7864  0.3363  0.1252
 3119TIP3    H130848   3.337   2.259   0.027 -0.0990 -0.8825  0.2742
 3119TIP3    H230849   3.274   2.121   0.032 -1.8393 -0.1697 -0.9240
 3120TIP3   OH230850   0.705   6.763   3.226 -0.0593 -0.0485 -0.4316
 3120TIP3    H130851   0.637   6.831   3.225 -0.4726 -0.4079  0.9149
 3120TIP3    H230852   0.787   6.811   3.223 -0.3069  0.6362  1.8653
 3121TIP3   OH230853   3.531   3.960  15.964  0.2486  0.2007  0.3624
 3121TIP3    H130854   3.531   4.054  15.983 -1.2332  0.1140  0.9451
 3121TIP3    H230855   3.530   3.919  16.051 -0.6871 -0.3122  0.1187
 3122TIP3   OH230856   1.831   5.600   4.386 -0.6401 -0.7902 -0.1966
 3122TIP3    H130857   1.821   5.617   4.292  0.9543 -0.3292 -0.3059
 3122TIP3    H230858   1.925   5.596   4.400 -0.8032  0.4954  1.6376
 3123TIP3   OH230859   0.332   0.052  13.233  0.8270 -0.4894  0.1149
 3123TIP3    H130860   0.355   0.046  13.140  0.7229 -2.0308  0.1547
 3123TIP3    H230861   0.407   0.014  13.279  0.6192 -0.2975  0.6223
 3124TIP3   OH230862   3.929   2.774   6.234  0.0613 -0.7066 -0.1598
 3124TIP3    H130863   3.839   2.744   6.243 -0.6674  1.2975 -0.2001
 3124TIP3    H230864   3.941   2.836   6.306  1.6233 -1.3653  0.1941
 3125TIP3   OH230865   5.544   4.600   1.903  0.0024  0.5995  0.1403
 3125TIP3    H130866   5.461   4.616   1.947  0.3720 -0.3326  1.2561
 3125TIP3    H230867   5.601   4.566   1.972  0.1174 -2.6283 -1.3495
 3126TIP3   OH230868   2.024   2.533  12.984 -0.1069  0.0050 -0.0223
 3126TIP3    H130869   1.965   2.554  12.912  1.0169  1.3236 -0.6032
 3126TIP3    H230870   2.046   2.441  12.970  0.9114  0.4845 -2.0409
 3127TIP3   OH230871   5.696   2.936  10.499 -0.2343  0.2701 -0.4483
 3127TIP3    H130872   5.606   2.909  10.477 -0.8425  0.3500  1.6704
 3127TIP3    H230873   5.748   2.911  10.423 -1.7935 -1.3189 -1.0640
 3128TIP3   OH230874   3.998   6.592   2.540 -0.4297  0.2143 -0.3913
 3128TIP3    H130875   3.928   6.528   2.535 -0.5211  0.1471  1.2497
 3128TIP3    H230876   3.977   6.645   2.617  2.2159 -0.9352  1.2536
 3129TIP3   OH230877   0.074   0.679  15.254  0.4022 -0.0528 -0.1827
 3129TIP3    H130878   0.024   0.611  15.208 -0.3613  0.5364 -0.2480
 3129TIP3    H230879   0.057   0.662  15.347  0.9120 -0.4660 -0.1587
 3130TIP3   OH230880   2.912   0.699  11.771 -0.7294  0.0923  0.7741
 3130TIP3    H130881   2.902   0.622  11.715 -0.6750  0.8220 -0.2675
 3130TIP3    H230882   2.898   0.666  11.860  0.0839 -1.2687  0.4270
 3131TIP3   OH230883   6.286   4.493  13.408  0.1034 -0.2329 -0.6020
 3131TIP3    H130884   6.196   4.522  13.396  0.6503  1.8965 -0.0716
 3131TIP3    H230885   6.328   4.509  13.323  0.2327 -0.1385 -0.5213
 3132TIP3   OH230886   4.446   2.399   2.923  0.1916 -0.6082  0.4818
 3132TIP3    H130887   4.418   2.483   2.885 -1.1300 -0.7632  1.0493
 3132TIP3    H230888   4.364   2.354   2.944  0.8418 -2.6576 -1.0678
 3133TIP3   OH230889   2.915   0.629  12.301 -0.5378 -0.5049 -0.0106
 3133TIP3    H130890   2.820   0.620  12.297 -0.6818  0.2962  1.0322
 3133TIP3    H230891   2.944   0.555  12.355 -0.4070 -1.4862 -1.3694
 3134TIP3   OH230892   5.348   4.340   2.172 -0.2846 -0.0779  0.4073
 3134TIP3    H130893   5.355   4.372   2.262  1.9971  0.0010  0.2690
 3134TIP3    H230894   5.356   4.245   2.180 -1.0272 -0.1453  0.3566
 3135TIP3   OH230895   2.272   2.696  17.031  0.2119 -0.3131 -0.2118
 3135TIP3    H130896   2.194   2.653  17.068 -0.1518  0.4624 -0.0634
 3135TIP3    H230897   2.334   2.698  17.104  0.0644 -0.1873 -0.0872
 3136TIP3   OH230898   3.568   2.203  16.138 -0.3438 -0.2986 -0.2016
 3136TIP3    H130899   3.639   2.267  16.138 -0.8566  0.2857 -0.4873
 3136TIP3    H230900   3.543   2.195  16.230  0.8846 -1.4229  0.0571
 3137TIP3   OH230901   3.567   1.704   1.549 -0.0027  0.0492 -0.1997
 3137TIP3    H130902   3.614   1.762   1.488 -2.2746  2.7741  0.4186
 3137TIP3    H230903   3.536   1.632   1.495  0.3027  1.0178 -1.7264
 3138TIP3   OH230904   4.288   1.438  16.816  0.4135 -0.0518 -0.4050
 3138TIP3    H130905   4.375   1.472  16.796  0.2208  0.8155  0.1892
 3138TIP3    H230906   4.289   1.425  16.911  1.1706 -3.6903 -0.7582
 3139TIP3   OH230907   0.783   1.700  16.456  1.1596  0.5485  0.0278
 3139TIP3    H130908   0.694   1.726  16.433  1.3882  3.1320  1.6651
 3139TIP3    H230909   0.773   1.620  16.508 -0.0122 -0.1221 -1.1692
 3140TIP3   OH230910   2.689   1.891   5.392  0.4848  0.0383 -0.4270
 3140TIP3    H130911   2.663   1.968   5.341  0.0838 -0.0924 -0.4180
 3140TIP3    H230912   2.772   1.917   5.433  0.3647  0.4555 -0.4446
 3141TIP3   OH230913   3.241   2.069   2.490  0.2928  0.3818 -0.0899
 3141TIP3    H130914   3.324   2.080   2.444  0.4609  0.4477  0.2292
 3141TIP3    H230915   3.243   2.135   2.559  0.4087 -0.2671  0.5465
 3142TIP3   OH230916   1.788   5.946   4.640 -0.0465 -0.2151  0.0715
 3142TIP3    H130917   1.761   6.035   4.618  0.1657 -0.2292 -0.2537
 3142TIP3    H230918   1.741   5.891   4.577 -0.7027 -0.3939  0.6997
 3143TIP3   OH230919   1.220   2.464   1.564  0.5365  0.2695 -0.7950
 3143TIP3    H130920   1.263   2.382   1.590  0.6061  0.1954 -1.1457
 3143TIP3    H230921   1.235   2.522   1.638 -1.0784 -0.5921  0.2819
 3144TIP3   OH230922   1.694   4.817   3.122 -0.0076 -0.0170 -0.2933
 3144TIP3    H130923   1.661   4.832   3.211 -1.7821 -1.2208 -0.7089
 3144TIP3    H230924   1.654   4.886   3.069  1.9101  1.3830 -0.0433
 3145TIP3   OH230925   4.374   3.256   0.482 -0.4643 -0.2716  0.1576
 3145TIP3    H130926   4.405   3.271   0.571 -0.0993  0.1386 -0.0374
 3145TIP3    H230927   4.292   3.306   0.477 -0.8084 -0.8031  0.4582
 3146TIP3   OH230928   0.300   3.668  15.445  0.3810  0.1127  0.1383
 3146TIP3    H130929   0.341   3.749  15.413 -0.2704 -0.4229 -2.2761
 3146TIP3    H230930   0.206   3.690  15.450  0.2168 -0.4334 -0.4116
 3147TIP3   OH230931   0.573   5.600  11.996 -0.4004  0.2018  0.8830
 3147TIP3    H130932   0.513   5.642  11.935 -0.6962  0.3936  1.3042
 3147TIP3    H230933   0.537   5.512  12.008  0.2415 -0.2099 -0.0298
 3148TIP3   OH230934   3.366   4.937  10.560  0.0843 -0.4695 -0.5461
 3148TIP3    H130935   3.365   4.917  10.467  0.4691  0.3418 -0.7322
 3148TIP3    H230936   3.287   4.895  10.595 -0.4945 -0.1019 -1.3823
 3149TIP3   OH230937   0.729   6.123   5.691  0.0092  0.2552 -0.6842
 3149TIP3    H130938   0.724   6.218   5.681 -0.8430  0.9053  3.6538
 3149TIP3    H230939   0.821   6.105   5.710 -0.0856  0.5208  0.0848
 3150TIP3   OH230940   1.306   5.229  15.624 -0.2193 -0.1087  0.3463
 3150TIP3    H130941   1.289   5.235  15.718 -0.2166 -1.2968  0.4440
 3150TIP3    H230942   1.401   5.239  15.617 -0.1768 -0.3560  0.5171
 3151TIP3   OH230943   2.716   1.833  15.892  0.6356  0.1235  0.3422
 3151TIP3    H130944   2.700   1.916  15.937 -2.2323 -0.0928 -0.1013
 3151TIP3    H230945   2.650   1.774  15.928  1.2269 -1.3524 -0.9094
 3152TIP3   OH230946   4.817   1.415   5.117 -0.2073  0.3458  0.4705
 3152TIP3    H130947   4.742   1.359   5.100 -2.3922  3.1079  0.2873
 3152TIP3    H230948   4.816   1.480   5.046  1.5484  1.2620  1.2057
 3153TIP3   OH230949   4.723   4.647  13.283 -0.0427 -0.4623  0.4209
 3153TIP3    H130950   4.637   4.688  13.276 -0.3704 -1.2629 -0.2915
 3153TIP3    H230951   4.763   4.660  13.198  1.3077  1.5148  1.2866
 3154TIP3   OH230952   6.432   4.591   1.550 -0.6227  0.3534 -0.4242
 3154TIP3    H130953   6.430   4.565   1.642 -1.6752 -1.0484 -0.8016
 3154TIP3    H230954   6.413   4.685   1.551  1.4551  0.8129  0.8999
 3155TIP3   OH230955   0.120   0.316  12.848  0.3818  0.0319 -0.0336
 3155TIP3    H130956   0.118   0.404  12.810  0.2015  0.3408  0.6594
 3155TIP3    H230957   0.198   0.316  12.905  1.3354 -0.8177 -1.2852
 3156TIP3   OH230958   4.038   2.617   3.867 -0.0234  0.4271  0.3762
 3156TIP3    H130959   4.055   2.552   3.935 -0.4032 -0.1973 -0.1199
 3156TIP3    H230960   3.942   2.627   3.867 -0.2196 -0.9934 -1.3338
 3157TIP3   OH230961   6.431   5.176   0.081 -0.2862  0.7458 -0.2020
 3157TIP3    H130962   6.463   5.106   0.024 -0.0683  0.6491  0.0370
 3157TIP3    H230963   6.441   5.141   0.170 -1.4658  0.5517 -0.1401
 3158TIP3   OH230964   1.934   2.379  11.676 -0.2405  0.7020  0.8485
 3158TIP3    H130965   1.958   2.332  11.756 -0.8638 -0.4197  0.3977
 3158TIP3    H230966   1.949   2.472  11.698  2.3697  0.2699  1.3008
 3159TIP3   OH230967   6.672   3.132   0.730 -0.3285 -0.3655  0.1909
 3159TIP3    H130968   6.746   3.182   0.766 -1.0211  0.7628  0.1127
 3159TIP3    H230969   6.654   3.173   0.645 -2.5703  1.0525  1.2376
 3160TIP3   OH230970   4.565   0.813   4.491 -0.3447 -0.0797 -0.2543
 3160TIP3    H130971   4.597   0.878   4.428 -0.4923 -0.7239 -1.0113
 3160TIP3    H230972   4.482   0.782   4.454 -1.1356  0.5150  0.9502
 3161TIP3   OH230973   0.561   1.722  12.585 -0.2605 -0.0247 -1.0160
 3161TIP3    H130974   0.481   1.726  12.639 -0.8805 -0.4488 -1.8800
 3161TIP3    H230975   0.628   1.688  12.645 -0.9356 -0.4962 -0.5023
 3162TIP3   OH230976   0.420   2.640  12.391 -0.3063 -0.1279 -0.1021
 3162TIP3    H130977   0.332   2.605  12.373 -0.0126 -0.3141 -1.2043
 3162TIP3    H230978   0.404   2.710  12.455 -1.3224  0.1916 -0.6791
 3163TIP3   OH230979   3.949   5.995   3.772  0.0746 -0.2408 -0.0400
 3163TIP3    H130980   3.863   6.035   3.753  0.4187  0.9174  0.6888
 3163TIP3    H230981   3.928   5.917   3.822 -0.5464  0.3502  0.6472
 3164TIP3   OH230982   1.889   1.725  14.632  0.1143 -0.1324 -1.1807
 3164TIP3    H130983   1.879   1.636  14.664 -0.9894  0.9410  1.8985
 3164TIP3    H230984   1.800   1.757  14.619  0.4709  0.6663 -1.7569
 3165TIP3   OH230985   3.664   0.790  14.665 -0.6742  0.3635  0.1610
 3165TIP3    H130986   3.688   0.879  14.691 -1.4100  0.9780 -1.1435
 3165TIP3    H230987   3.652   0.742  14.747  1.7087  0.8947  0.8985
 3166TIP3   OH230988   0.514   4.862   0.211  0.0738  0.3282 -0.0314
 3166TIP3    H130989   0.487   4.810   0.287  1.8159  0.4941  0.7281
 3166TIP3    H230990   0.537   4.797   0.145 -1.8894  0.1775 -0.6610
 3167TIP3   OH230991   5.109   4.102   1.926  0.6315 -0.0305  0.2712
 3167TIP3    H130992   5.110   4.010   1.952  0.2726  0.3098  1.5818
 3167TIP3    H230993   5.040   4.108   1.860  0.7359 -0.7135  0.0957
 3168TIP3   OH230994   5.658   1.982   3.174 -0.1094 -0.5654 -0.6009
 3168TIP3    H130995   5.592   1.920   3.142 -2.1313  0.5109  1.2129
 3168TIP3    H230996   5.609   2.062   3.192  1.9203  0.6550 -0.1774
 3169TIP3   OH230997   0.093   1.615  12.787 -0.2627 -0.4549  0.2006
 3169TIP3    H130998   0.127   1.698  12.820 -0.4552 -0.3002  0.0089
 3169TIP3    H230999   0.020   1.594  12.844  0.3506 -0.9560  0.8227
 3170TIP3   OH231000   5.398   6.530  16.432  0.7467  0.7170  0.0601
 3170TIP3    H131001   5.443   6.490  16.507 -0.6512  2.2279  1.7802
 3170TIP3    H231002   5.423   6.622  16.435  0.2327  0.9120 -1.0334
 3171TIP3   OH231003   0.899   1.653   0.940 -0.7416 -0.6757  0.1767
 3171TIP3    H131004   0.983   1.694   0.962 -0.9016 -0.1439 -0.1859
 3171TIP3    H231005   0.921   1.561   0.924 -0.1067 -0.4066 -0.5879
 3172TIP3   OH231006   2.172   1.904  16.781 -0.3710  0.2407 -0.1749
 3172TIP3    H131007   2.166   1.953  16.699 -0.2258  0.5807  0.0136
 3172TIP3    H231008   2.112   1.949  16.840  0.3649  0.6852  0.2425
 3173TIP3   OH231009   1.873   3.498  11.435 -0.4560  0.3790 -0.4224
 3173TIP3    H131010   1.881   3.477  11.528 -0.6710 -1.2010 -0.7308
 3173TIP3    H231011   1.800   3.560  11.431 -0.6719  0.1911  0.4261
 3174TIP3   OH231012   4.820   0.895  13.213  0.3803  0.1184  0.1859
 3174TIP3    H131013   4.730   0.910  13.241  0.9679  1.5256  1.4232
 3174TIP3    H231014   4.842   0.973  13.162  1.0147 -0.0721  0.1670
 3175TIP3   OH231015   4.367   1.541  14.472 -0.0249 -0.1984 -0.3848
 3175TIP3    H131016   4.316   1.580  14.401  0.3227 -0.6670 -0.8986
 3175TIP3    H231017   4.456   1.533  14.437  0.5901  1.2200  0.7278
 3176TIP3   OH231018   6.213   5.668   0.498  0.6193  0.4756 -0.1879
 3176TIP3    H131019   6.288   5.650   0.441 -0.2024  0.6648 -1.3713
 3176TIP3    H231020   6.144   5.610   0.466 -0.6107  2.2955 -0.9815
 3177TIP3   OH231021   1.912   0.245  16.966 -0.0939  0.6239  0.2258
 3177TIP3    H131022   1.993   0.294  16.950  0.1497  0.2173  0.1831
 3177TIP3    H231023   1.859   0.303  17.021 -0.5342  1.6397 -1.2169
 3178TIP3   OH231024   5.662   3.570   5.134  0.2928 -0.5237  0.4425
 3178TIP3    H131025   5.612   3.629   5.078  1.3427  1.3101  1.3432
 3178TIP3    H231026   5.709   3.512   5.074  0.5664  0.6926 -0.5306
 3179TIP3   OH231027   0.564   0.705  14.788 -0.0152 -0.3481 -0.4421
 3179TIP3    H131028   0.571   0.634  14.724 -1.4794  0.2175 -1.2709
 3179TIP3    H231029   0.580   0.663  14.872 -0.8620 -1.6850 -0.9129
 3180TIP3   OH231030   0.967   1.479   3.997 -0.5709  0.4543  0.2422
 3180TIP3    H131031   1.011   1.395   4.006  0.5357  1.0167  0.2420
 3180TIP3    H231032   0.908   1.468   3.922 -0.5846 -0.3699  0.3703
 3181TIP3   OH231033   0.530   3.111  15.417  0.2637  0.3067 -0.5879
 3181TIP3    H131034   0.583   3.036  15.445 -0.9746 -0.4287 -0.1614
 3181TIP3    H231035   0.555   3.182  15.477 -3.4520 -1.6119  3.8244
 3182TIP3   OH231036   2.732   3.767   5.476 -0.6690  0.3370  0.2674
 3182TIP3    H131037   2.784   3.822   5.418  0.3128 -1.3027 -0.4933
 3182TIP3    H231038   2.792   3.741   5.545 -1.3029  0.7136  0.9782
 3183TIP3   OH231039   4.686   4.374   3.013 -0.3470  0.7656  0.1700
 3183TIP3    H131040   4.750   4.416   2.956  0.8334  0.8177  1.4951
 3183TIP3    H231041   4.647   4.446   3.063  0.1668  0.5333  0.9324
 3184TIP3   OH231042   4.769   6.707   0.019  0.3026 -0.1841  0.1782
 3184TIP3    H131043   4.691   6.662  -0.013 -1.6861  1.0733  2.8726
 3184TIP3    H231044   4.791   6.769  -0.050 -0.0909 -1.6380 -1.3085
 3185TIP3   OH231045   3.261   4.948  15.959 -0.2785  0.3025 -0.1073
 3185TIP3    H131046   3.202   4.977  16.028 -0.5164  1.7633 -0.8742
 3185TIP3    H231047   3.348   4.969  15.992 -0.3308  0.2011  0.0995
 3186TIP3   OH231048   2.780   0.505  11.381  0.6932 -0.0507  0.0872
 3186TIP3    H131049   2.824   0.515  11.296  0.8507 -1.4919 -0.0313
 3186TIP3    H231050   2.746   0.415  11.379 -1.6588  0.7903  0.4810
 3187TIP3   OH231051   1.581   6.478  12.733  0.4236 -0.0782 -0.4241
 3187TIP3    H131052   1.551   6.550  12.677 -0.2043  0.6286  0.7884
 3187TIP3    H231053   1.575   6.512  12.822  0.0658 -1.6479  0.1942
 3188TIP3   OH231054   5.606   3.523  16.883 -0.3865 -0.6582 -0.1732
 3188TIP3    H131055   5.663   3.554  16.953 -0.2023  0.5499 -0.8433
 3188TIP3    H231056   5.663   3.520  16.806 -0.5919 -1.9597 -0.2928
 3189TIP3   OH231057   0.435   3.394   5.343  0.2856  0.1203  0.7103
 3189TIP3    H131058   0.516   3.443   5.355 -0.2583  1.4435 -0.6765
 3189TIP3    H231059   0.384   3.412   5.422  1.3615 -0.8564  1.6698
 3190TIP3   OH231060   6.368   0.125  15.232  0.2674 -0.2314 -0.3905
 3190TIP3    H131061   6.275   0.119  15.209  0.6121 -0.6950 -1.7592
 3190TIP3    H231062   6.389   0.037  15.265  0.2711 -0.1854 -0.2699
 3191TIP3   OH231063   4.707   2.582   3.723 -0.9177 -0.0245  0.0843
 3191TIP3    H131064   4.766   2.540   3.661 -0.5246 -0.9427  1.0570
 3191TIP3    H231065   4.718   2.676   3.706 -1.0988 -0.2623 -1.4687
 3192TIP3   OH231066   6.709   5.522  11.599  0.4162 -0.3470 -0.0728
 3192TIP3    H131067   6.796   5.559  11.590  0.0423  0.2191 -1.6173
 3192TIP3    H231068   6.707   5.450  11.536 -0.1007 -0.6213  0.2513
 3193TIP3   OH231069   3.777   2.229   1.292  0.3292 -0.2039  0.5053
 3193TIP3    H131070   3.708   2.199   1.232  2.0850 -2.8810 -0.3776
 3193TIP3    H231071   3.734   2.232   1.377 -1.7641  1.8886 -0.5018
 3194TIP3   OH231072   5.252   2.343  15.935  1.0256  0.1807  0.6132
 3194TIP3    H131073   5.275   2.304  16.020 -0.8031  0.0389  1.0784
 3194TIP3    H231074   5.324   2.317  15.877 -0.0324 -4.0149  0.8403
 3195TIP3   OH231075   5.227   3.302   1.174 -0.3029  0.4341  0.7457
 3195TIP3    H131076   5.233   3.341   1.087 -0.5556 -2.0711 -0.4944
 3195TIP3    H231077   5.140   3.325   1.205 -0.2780  1.1999  0.2710
 3196TIP3   OH231078   6.072   3.164  12.946  0.2353 -0.4751  0.0391
 3196TIP3    H131079   6.109   3.219  13.015  0.9929  0.4395 -1.0486
 3196TIP3    H231080   6.088   3.074  12.976  3.3236 -0.1561 -0.2679
 3197TIP3   OH231081   5.575   6.246  11.387  0.0059  0.0120 -0.1676
 3197TIP3    H131082   5.644   6.273  11.327  1.2057 -0.0736  1.1135
 3197TIP3    H231083   5.621   6.199  11.457 -1.4883 -1.0526  0.1374
 3198TIP3   OH231084   0.851   1.831   2.793  0.8539 -0.2167 -0.5402
 3198TIP3    H131085   0.908   1.801   2.864  1.5457 -0.3917 -1.1510
 3198TIP3    H231086   0.762   1.817   2.826  1.1646 -0.6787  0.1300
 3199TIP3   OH231087   3.697   4.062  16.633 -0.5748 -0.6768  0.0438
 3199TIP3    H131088   3.637   4.038  16.703  1.5338  0.2776  2.3329
 3199TIP3    H231089   3.749   3.983  16.617 -1.0730 -0.9020 -0.4847
 3200TIP3   OH231090   4.592   0.469  14.934 -0.1615 -0.8995 -0.1912
 3200TIP3    H131091   4.599   0.373  14.937  1.5402 -0.8679 -1.6091
 3200TIP3    H231092   4.575   0.489  14.842 -0.6634  0.1634  0.1225
 3201TIP3   OH231093   0.178   1.756  13.153 -0.8407  0.7351 -0.3049
 3201TIP3    H131094   0.213   1.669  13.137  1.3692  1.6423 -0.8216
 3201TIP3    H231095   0.151   1.788  13.067 -1.4176  0.6651 -0.1538
 3202TIP3   OH231096   2.185   0.245  13.906 -0.4551  0.6066 -0.0560
 3202TIP3    H131097   2.187   0.340  13.921  1.7299  1.2560 -3.4168
 3202TIP3    H231098   2.108   0.230  13.852 -1.7892  0.0720  1.8661
 3203TIP3   OH231099   4.237   3.836  11.537 -0.3954 -0.0895  0.4251
 3203TIP3    H131100   4.175   3.908  11.526  0.7148  0.8170 -0.0782
 3203TIP3    H231101   4.262   3.812  11.447  0.5242  0.0528  0.6308
 3204TIP3   OH231102   3.737   4.624  11.837 -0.0048  0.0742  0.2068
 3204TIP3    H131103   3.787   4.696  11.798  0.0385  0.4337  0.9183
 3204TIP3    H231104   3.788   4.597  11.913 -0.4604 -0.1282  0.4487
 3205TIP3   OH231105   0.237   3.545  14.810  0.0429 -0.7608 -0.5298
 3205TIP3    H131106   0.301   3.505  14.870  0.1117 -0.3695 -0.3383
 3205TIP3    H231107   0.290   3.581  14.739  0.0827 -0.0196 -0.1336
 3206TIP3   OH231108   6.273   5.420  15.773  0.1657 -0.2257 -0.0229
 3206TIP3    H131109   6.277   5.469  15.691 -0.9241 -0.0305  0.0290
 3206TIP3    H231110   6.184   5.435  15.806  0.2137 -1.2401  0.6125
 3207TIP3   OH231111   4.736   4.926   0.767 -0.5524 -0.4360  0.0273
 3207TIP3    H131112   4.717   5.018   0.785 -0.3145 -0.8771  2.9759
 3207TIP3    H231113   4.815   4.928   0.712 -0.8152  1.1057 -0.3356
 3208TIP3   OH231114   4.170   4.062   4.663 -0.1198 -0.4575  0.0927
 3208TIP3    H131115   4.088   4.016   4.646  0.3948 -0.4611 -2.7935
 3208TIP3    H231116   4.206   4.019   4.741 -1.0213 -3.0551 -0.8268
 3209TIP3   OH231117   3.354   1.558   5.812  0.1415  0.1057 -0.1980
 3209TIP3    H131118   3.356   1.595   5.900 -1.5514 -0.8656  0.2918
 3209TIP3    H231119   3.309   1.624   5.759 -0.4204 -0.0625  0.0650
 3210TIP3   OH231120   3.235   3.423  17.014  0.3204  0.0380  0.5804
 3210TIP3    H131121   3.226   3.417  17.109  1.1670 -0.6434  0.6353
 3210TIP3    H231122   3.146   3.441  16.983 -0.1437 -0.6389  1.4433
 3211TIP3   OH231123   3.792   1.317  11.678  0.0975  0.5022 -0.0828
 3211TIP3    H131124   3.722   1.276  11.627  1.1455 -1.6033  0.0698
 3211TIP3    H231125   3.873   1.288  11.636  1.0153 -1.2932  2.6649
 3212TIP3   OH231126   1.238   1.826   6.552  0.0032 -0.0508  0.2045
 3212TIP3    H131127   1.277   1.914   6.547 -1.6222  0.7645  0.9002
 3212TIP3    H231128   1.295   1.778   6.612  0.5611  0.7307  0.3188
 3213TIP3   OH231129   4.846   1.850  15.526 -0.5410  0.1508  0.0695
 3213TIP3    H131130   4.854   1.860  15.621 -2.2908  1.5490  0.1133
 3213TIP3    H231131   4.794   1.925  15.498  1.5113  0.8134 -2.2972
 3214TIP3   OH231132   1.681   3.527   4.772 -0.2585  0.2377 -0.0674
 3214TIP3    H131133   1.648   3.502   4.686  0.8809 -1.1870 -0.1316
 3214TIP3    H231134   1.605   3.563   4.817 -1.2479 -0.4273 -1.1381
 3215TIP3   OH231135   2.377   6.250  12.757 -0.9058 -0.2087 -0.2966
 3215TIP3    H131136   2.395   6.341  12.731  2.9838 -0.3998  1.0799
 3215TIP3    H231137   2.370   6.203  12.674 -0.2538  0.9690 -1.0588
 3216TIP3   OH231138   4.002   1.877   3.178  0.1428 -0.1951  0.0664
 3216TIP3    H131139   4.027   1.795   3.134 -2.4919  0.0519 -2.1831
 3216TIP3    H231140   4.075   1.936   3.161  0.2803 -0.8727 -2.0460
 3217TIP3   OH231141   4.370   0.583  14.319  0.1315  0.4361  0.1276
 3217TIP3    H131142   4.362   0.520  14.247 -2.2423  1.5644 -0.6820
 3217TIP3    H231143   4.440   0.643  14.292  3.3848 -2.3599  1.4731
 3218TIP3   OH231144   6.453   1.194   3.436 -0.1274 -0.2813 -0.7824
 3218TIP3    H131145   6.468   1.149   3.352 -0.8179 -2.9564  0.4171
 3218TIP3    H231146   6.529   1.170   3.489 -0.8447 -0.6528  0.1105
 3219TIP3   OH231147   2.300   2.569   4.137 -0.2189 -0.0196 -0.1900
 3219TIP3    H131148   2.352   2.494   4.107 -2.3137 -0.7608 -2.3020
 3219TIP3    H231149   2.287   2.553   4.230  0.5751 -1.5291 -0.3005
 3220TIP3   OH231150   1.766   4.679  16.525 -0.1714 -0.6952  0.0624
 3220TIP3    H131151   1.758   4.602  16.580 -0.4781 -1.8214 -1.4898
 3220TIP3    H231152   1.839   4.659  16.466 -0.9670 -0.3096 -1.1069
 3221TIP3   OH231153   2.530   1.514   2.970 -0.3252 -0.1418  0.6220
 3221TIP3    H131154   2.479   1.443   3.009 -0.1600  0.0162  1.1440
 3221TIP3    H231155   2.479   1.593   2.990  0.0741  0.0093  1.0825
 3222TIP3   OH231156   2.736   2.677  15.638  0.0377 -0.7021  0.2676
 3222TIP3    H131157   2.659   2.707  15.589  1.1077 -0.5932 -1.3995
 3222TIP3    H231158   2.735   2.730  15.718 -0.2901  1.0164 -0.8257
 3223TIP3   OH231159   4.483   3.307   1.950 -0.0442 -0.0042  0.3956
 3223TIP3    H131160   4.462   3.400   1.951 -0.5465 -0.1121  0.0634
 3223TIP3    H231161   4.398   3.263   1.944  0.1067 -0.5182  1.7029
 3224TIP3   OH231162   1.195   6.532   3.688  0.0096 -0.0572  0.0200
 3224TIP3    H131163   1.201   6.438   3.703 -3.0793 -0.4643 -0.5518
 3224TIP3    H231164   1.109   6.556   3.723  0.2099  2.3251 -0.9284
 3225TIP3   OH231165   4.101   3.053  12.957  0.4651 -0.1788  0.0852
 3225TIP3    H131166   4.131   3.083  12.871  0.6243 -0.5532  0.0049
 3225TIP3    H231167   4.034   2.987  12.936  0.1397  0.0951  0.2550
 3226TIP3   OH231168   0.230   2.663  12.830  0.1408 -0.6438  0.5422
 3226TIP3    H131169   0.224   2.600  12.759 -0.8554 -0.4429  0.4316
 3226TIP3    H231170   0.323   2.667  12.851  0.4905 -0.5452 -0.8995
 3227TIP3   OH231171   5.557   5.214   0.688 -0.3239  0.7189 -0.5245
 3227TIP3    H131172   5.526   5.202   0.778 -0.4016  1.7312 -0.4124
 3227TIP3    H231173   5.644   5.175   0.687 -0.7743 -0.3302 -0.3205
 3228TIP3   OH231174   4.034   1.568   3.785 -0.0354 -0.6600  0.5825
 3228TIP3    H131175   4.105   1.554   3.848  1.7147 -0.6871 -1.2977
 3228TIP3    H231176   4.022   1.663   3.783 -0.8074 -0.7174  1.6578
 3229TIP3   OH231177   6.750   3.475   3.698 -0.0742  0.1926  0.0259
 3229TIP3    H131178   6.784   3.507   3.782 -1.8362 -0.0021  0.8568
 3229TIP3    H231179   6.745   3.554   3.643  0.4307  0.4429  0.3274
 3230TIP3   OH231180   3.247   3.444   4.166  0.0506 -0.3409 -0.2756
 3230TIP3    H131181   3.235   3.478   4.077 -2.4048 -1.0054 -0.2894
 3230TIP3    H231182   3.251   3.522   4.221  0.7402  0.0649 -0.8908
 3231TIP3   OH231183   4.851   0.871  10.743  0.5459 -0.1148 -0.0175
 3231TIP3    H131184   4.946   0.858  10.733  0.4253 -0.0661 -1.4252
 3231TIP3    H231185   4.812   0.806  10.686 -0.2658  0.0966  0.2921
 3232TIP3   OH231186   5.653   0.119   6.349  0.0303 -0.4442  0.0690
 3232TIP3    H131187   5.630   0.176   6.276  1.1120  0.5780  0.5010
 3232TIP3    H231188   5.576   0.121   6.406 -0.1752  0.0936 -0.2198
 3233TIP3   OH231189   1.844   5.041   1.844 -0.1074 -0.3968  0.0055
 3233TIP3    H131190   1.867   5.133   1.854 -0.2706 -0.2167 -1.1877
 3233TIP3    H231191   1.749   5.038   1.851 -0.0274 -0.6485  1.2244
 3234TIP3   OH231192   6.841   1.634   4.769 -0.0556  0.1194  0.0380
 3234TIP3    H131193   6.920   1.598   4.808 -0.0143  1.4534  1.2904
 3234TIP3    H231194   6.769   1.601   4.824 -0.2043  0.2826 -0.0557
 3235TIP3   OH231195   0.242   5.453   0.039 -0.1498 -0.2244 -0.3693
 3235TIP3    H131196   0.215   5.420   0.125  0.6889 -1.3243 -0.5053
 3235TIP3    H231197   0.169   5.431  -0.019 -0.5927  0.2612 -0.0065
 3236TIP3   OH231198   5.185   5.887   2.996 -0.0339  0.4370 -0.0665
 3236TIP3    H131199   5.196   5.934   2.913  0.8508 -0.0732 -0.2640
 3236TIP3    H231200   5.171   5.955   3.061 -0.7339  0.8478 -0.6372
 3237TIP3   OH231201   6.214   2.056  13.031 -0.0991 -0.3200  0.2637
 3237TIP3    H131202   6.219   1.974  12.981 -1.8690 -1.0842  1.2478
 3237TIP3    H231203   6.298   2.098  13.016 -0.7688 -0.1239 -3.9597
 3238TIP3   OH231204   1.039   4.857   0.443 -0.1613 -0.2889 -0.1183
 3238TIP3    H131205   0.949   4.848   0.474 -0.8778 -0.1104 -2.0003
 3238TIP3    H231206   1.032   4.916   0.367  1.8158  1.2588  0.8034
 3239TIP3   OH231207   3.983   3.731  16.560  0.4511  0.1483  0.8639
 3239TIP3    H131208   3.936   3.752  16.478 -0.7018 -1.8147  0.9645
 3239TIP3    H231209   3.932   3.774  16.628  1.3384  1.6778  0.6064
 3240TIP3   OH231210   1.566   6.563  13.001 -0.6298  0.1525 -0.0697
 3240TIP3    H131211   1.473   6.578  13.018 -0.2773 -0.1608  2.4615
 3240TIP3    H231212   1.611   6.634  13.046  0.4565 -1.2205  1.0946
 3241TIP3   OH231213   6.771   6.192   5.108  0.1990 -0.0179  0.0767
 3241TIP3    H131214   6.858   6.219   5.077 -0.6255  1.7278 -0.8739
 3241TIP3    H231215   6.775   6.202   5.203  0.5491  1.7408 -0.0902
 3242TIP3   OH231216   3.834   0.109  12.217  0.2841 -0.1883  0.5416
 3242TIP3    H131217   3.844   0.197  12.254 -1.9465 -0.3451  1.6722
 3242TIP3    H231218   3.761   0.117  12.157  1.9427 -0.6655 -1.6501
 3243TIP3   OH231219   5.081   5.119  11.532 -0.1446  0.2008  0.9933
 3243TIP3    H131220   5.173   5.099  11.521 -0.4188 -1.9065  1.9986
 3243TIP3    H231221   5.042   5.038  11.565 -2.1564  1.3463  1.6558
 3244TIP3   OH231222   1.536   6.364  11.637  0.2974  0.0877 -0.2935
 3244TIP3    H131223   1.470   6.342  11.703 -0.2056 -1.0124 -1.1273
 3244TIP3    H231224   1.560   6.455  11.656 -1.3257  0.4535  0.1408
 3245TIP3   OH231225   6.396   5.326   1.355 -0.2582  0.6489 -0.1294
 3245TIP3    H131226   6.481   5.361   1.331 -0.9358  1.7989 -0.9916
 3245TIP3    H231227   6.364   5.282   1.275 -0.0576 -0.6829  0.4922
 3246TIP3   OH231228   3.499   5.204  10.865 -0.0163 -0.2266 -0.5069
 3246TIP3    H131229   3.470   5.197  10.956 -1.2051 -0.4558 -0.8820
 3246TIP3    H231230   3.419   5.222  10.816  0.6949  0.4946 -1.4425
 3247TIP3   OH231231   6.635   5.873   0.283  0.3815 -0.9671  0.1390
 3247TIP3    H131232   6.625   5.904   0.193  1.4736  0.8695  0.6168
 3247TIP3    H231233   6.726   5.846   0.290  0.0488 -2.0791  0.4319
 3248TIP3   OH231234   5.404   3.943  14.029 -0.0227 -0.2152 -1.0712
 3248TIP3    H131235   5.448   4.021  13.997  0.3457 -0.6737 -1.7195
 3248TIP3    H231236   5.417   3.878  13.959 -2.2427 -0.1907 -1.5549
 3249TIP3   OH231237   6.721   2.978  13.269 -0.1844 -0.3149 -0.5837
 3249TIP3    H131238   6.772   2.918  13.214 -2.2167 -1.1479 -1.6873
 3249TIP3    H231239   6.682   2.922  13.336  0.6079  0.3714  0.4785
 3250TIP3   OH231240   4.289   6.541   3.923 -0.3571 -0.2001 -0.3444
 3250TIP3    H131241   4.264   6.620   3.971  0.2233 -0.2164 -0.0078
 3250TIP3    H231242   4.242   6.471   3.968  0.4926 -0.2715  0.4863
 3251TIP3   OH231243   6.060   0.465   3.409 -0.2244  0.0116  0.5299
 3251TIP3    H131244   6.063   0.554   3.375 -1.3588  1.1712  3.1898
 3251TIP3    H231245   6.001   0.419   3.350  0.7746  0.8361 -1.1811
 3252TIP3   OH231246   4.288   1.120   0.590  0.0179 -0.7101 -0.0020
 3252TIP3    H131247   4.340   1.093   0.665 -1.3152 -0.1150  1.1813
 3252TIP3    H231248   4.257   1.038   0.552  0.1828 -0.9954  0.4713
 3253TIP3   OH231249   4.908   4.661   1.668 -0.7015 -0.0792 -0.6352
 3253TIP3    H131250   4.852   4.587   1.644 -1.8986  1.6132 -3.7953
 3253TIP3    H231251   4.855   4.712   1.729  0.0732 -1.6255  1.4445
 3254TIP3   OH231252   6.556   5.074   4.580  0.7175  0.1422 -0.0198
 3254TIP3    H131253   6.631   5.122   4.546  1.7347 -1.6249 -0.3698
 3254TIP3    H231254   6.526   5.021   4.506  1.1165 -1.5297  0.9653
 3255TIP3   OH231255   1.745   5.891  11.423  0.2545  0.0044 -0.0361
 3255TIP3    H131256   1.837   5.908  11.403  0.0683  0.3639 -0.6172
 3255TIP3    H231257   1.702   5.886  11.337 -0.2773 -0.0946  0.2303
 3256TIP3   OH231258   0.633   1.430  10.149  0.2290 -0.3286  0.0074
 3256TIP3    H131259   0.628   1.523  10.128  0.7862 -0.4940 -0.8938
 3256TIP3    H231260   0.660   1.428  10.241  0.5507  0.3940 -0.0639
 3257TIP3   OH231261   6.752   3.155   5.652  0.1712 -0.0325  0.4324
 3257TIP3    H131262   6.784   3.115   5.733  1.6574  0.5528  0.1750
 3257TIP3    H231263   6.760   3.250   5.667 -1.1393  0.1338  0.2035
 3258TIP3   OH231264   2.804   0.404   4.497  0.5717  0.5823  0.8195
 3258TIP3    H131265   2.737   0.461   4.462 -0.2712 -0.5341  0.5700
 3258TIP3    H231266   2.861   0.385   4.423 -1.2132 -1.7843 -0.0775
 3259TIP3   OH231267   5.896   6.240  10.689  0.1542  0.0801 -0.2765
 3259TIP3    H131268   5.809   6.275  10.671  0.7027  1.1251 -1.0082
 3259TIP3    H231269   5.936   6.230  10.603  1.3978  1.3392  0.1197
 3260TIP3   OH231270   2.994   0.323  10.996 -0.5279  0.0910 -0.4825
 3260TIP3    H131271   3.083   0.357  11.009 -0.7914  0.0570  1.9410
 3260TIP3    H231272   2.999   0.271  10.916  2.2390 -1.7603  0.7449
 3261TIP3   OH231273   3.769   1.035  14.810  0.0459 -0.1745 -0.5821
 3261TIP3    H131274   3.844   1.092  14.827 -0.8940  0.8766  0.1320
 3261TIP3    H231275   3.703   1.092  14.770 -0.3820 -1.0898 -1.2288
 3262TIP3   OH231276   5.154   2.368   2.508 -0.3638 -0.1177  0.1711
 3262TIP3    H131277   5.152   2.418   2.590 -2.0831 -0.1410  0.1734
 3262TIP3    H231278   5.225   2.305   2.520  1.0661  1.4945  0.6433
 3263TIP3   OH231279   5.597   5.381   5.086  0.0637 -0.4749  0.2152
 3263TIP3    H131280   5.599   5.474   5.063 -0.8527 -0.6419 -0.6207
 3263TIP3    H231281   5.509   5.352   5.060  0.7891 -1.8781 -0.7701
 3264TIP3   OH231282   2.432   5.038  13.056 -0.0179 -0.1227  0.3010
 3264TIP3    H131283   2.521   5.028  13.021  1.2123 -1.2494  3.3412
 3264TIP3    H231284   2.375   4.998  12.990  1.6135  1.0492 -1.9572
 3265TIP3   OH231285   4.080   6.492   1.562  0.1645 -0.5672  0.5279
 3265TIP3    H131286   4.149   6.535   1.512  0.1314 -0.1347  0.8493
 3265TIP3    H231287   4.020   6.563   1.585 -0.3767 -0.9347  0.2655
 3266TIP3   OH231288   6.279   6.814  12.379  0.3794 -0.0963 -0.7673
 3266TIP3    H131289   6.355   6.856  12.339 -0.4717  1.5697 -0.7021
 3266TIP3    H231290   6.306   6.796  12.469  0.3713  1.4698 -0.4199
 3267TIP3   OH231291   3.187   5.825  14.768 -0.5104 -0.1987 -0.0873
 3267TIP3    H131292   3.241   5.769  14.712  2.1390  1.0843  0.9835
 3267TIP3    H231293   3.150   5.766  14.833  0.7674 -0.9781 -0.0328
 3268TIP3   OH231294   0.737   6.032   4.606  0.1016 -0.5349  0.3782
 3268TIP3    H131295   0.744   5.956   4.548 -2.2918 -0.1805 -0.4925
 3268TIP3    H231296   0.790   6.100   4.564 -0.7700 -0.6062 -0.8865
 3269TIP3   OH231297   4.755   4.394  15.480  0.0382 -0.4573  0.2450
 3269TIP3    H131298   4.804   4.346  15.547  1.4112 -1.4880 -1.4107
 3269TIP3    H231299   4.680   4.338  15.461 -0.3394 -0.1740  0.9090
 3270TIP3   OH231300   4.296   6.702  12.685 -0.4464  0.2326  0.0831
 3270TIP3    H131301   4.225   6.698  12.621 -3.6401  1.8605  3.1779
 3270TIP3    H231302   4.336   6.787  12.671 -0.4448  0.1578 -0.3903
 3271TIP3   OH231303   4.635   6.705  12.457  0.0977 -0.1869  0.4663
 3271TIP3    H131304   4.632   6.737  12.367 -0.6787 -0.3416  0.4380
 3271TIP3    H231305   4.565   6.641  12.463 -0.7339  0.7709  1.5485
 3272TIP3   OH231306   4.810   3.347   5.829  0.2792 -0.0319 -0.0746
 3272TIP3    H131307   4.879   3.341   5.764 -0.8502  0.7316 -1.3992
 3272TIP3    H231308   4.856   3.355   5.912  1.7660  0.2606 -0.8902
 3273TIP3   OH231309   1.223   2.697  16.712  0.2998  0.6539  0.0699
 3273TIP3    H131310   1.272   2.767  16.755 -0.4613  1.1705  0.1120
 3273TIP3    H231311   1.142   2.739  16.682 -0.8145 -0.5046  1.3278
 3274TIP3   OH231312   5.185   3.072   2.586 -0.0305 -0.2404  0.0625
 3274TIP3    H131313   5.202   3.166   2.585 -0.5297 -0.0095  3.5630
 3274TIP3    H231314   5.270   3.032   2.569  1.1120  0.9071  2.5921
 3275TIP3   OH231315   2.469   5.307   5.225  0.4092 -0.2281 -0.0382
 3275TIP3    H131316   2.557   5.329   5.195 -0.0213 -0.3361 -1.4904
 3275TIP3    H231317   2.480   5.280   5.316  2.0535 -1.2956 -0.4983
 3276TIP3   OH231318   3.020   4.064   2.135 -0.1998  0.4161 -0.2047
 3276TIP3    H131319   2.972   4.115   2.200 -0.7066  0.6595 -0.7539
 3276TIP3    H231320   3.089   4.123   2.105  1.5195 -0.4911  1.7562
 3277TIP3   OH231321   1.163   4.831   2.004 -0.5884  0.0196 -0.2549
 3277TIP3    H131322   1.163   4.748   2.052 -0.8349  0.1718  0.0126
 3277TIP3    H231323   1.136   4.808   1.915  1.1954 -0.4719 -0.6942
 3278TIP3   OH231324   5.387   0.558   0.628 -0.0878 -0.1691  0.1300
 3278TIP3    H131325   5.413   0.466   0.633  0.9247  0.0277 -1.0871
 3278TIP3    H231326   5.310   0.564   0.685  0.7844 -1.4110  1.5158
 3279TIP3   OH231327   1.096   1.461  16.369  0.0568 -0.3031 -0.1871
 3279TIP3    H131328   1.073   1.489  16.281 -0.4825 -2.2479 -0.7063
 3279TIP3    H231329   1.159   1.390  16.357  0.2271 -0.3890  1.0111
 3280TIP3   OH231330   6.082   0.604   0.020  0.0273 -0.0242 -0.1636
 3280TIP3    H131331   6.106   0.515  -0.007  0.5967 -0.3604  1.3640
 3280TIP3    H231332   6.003   0.592   0.073  0.7496  0.2198  1.0025
 3281TIP3   OH231333   6.184   6.753  14.021 -0.2653 -0.2049  0.3970
 3281TIP3    H131334   6.202   6.663  14.050  1.1129  0.8729  3.4002
 3281TIP3    H231335   6.255   6.773  13.959 -0.6320 -1.1768 -0.3561
 3282TIP3   OH231336   3.336   5.156   0.262  0.3541 -0.2405  0.0661
 3282TIP3    H131337   3.251   5.126   0.230  0.3843  0.3645 -0.5891
 3282TIP3    H231338   3.319   5.245   0.295  0.9432  0.3181 -1.0780
 3283TIP3   OH231339   0.226   0.800  12.466 -0.2629  0.3864 -0.2399
 3283TIP3    H131340   0.236   0.868  12.400  0.1907 -1.0766 -1.7565
 3283TIP3    H231341   0.198   0.846  12.545 -2.3908  2.0292 -1.8434
 3284TIP3   OH231342   6.154   1.080   0.343  0.1792  0.3305  0.1966
 3284TIP3    H131343   6.112   1.132   0.412  0.4759 -1.1110  1.5029
 3284TIP3    H231344   6.246   1.102   0.349  0.1911  0.2865  0.1752
 3285TIP3   OH231345   5.160   6.243   4.374 -0.6429 -0.0834 -0.0619
 3285TIP3    H131346   5.140   6.277   4.286 -0.8953  0.5442  0.2338
 3285TIP3    H231347   5.173   6.321   4.428 -1.1892 -0.4491  0.6178
 3286TIP3   OH231348   5.129   6.210  11.364 -0.7939 -0.2006  0.5211
 3286TIP3    H131349   5.079   6.286  11.394  0.5787  0.9385  0.0046
 3286TIP3    H231350   5.146   6.228  11.272 -0.6423 -1.2618  0.3338
 3287TIP3   OH231351   5.286   4.529   5.331  0.4061  0.3911 -0.0058
 3287TIP3    H131352   5.301   4.456   5.271  0.8748  0.6865 -0.2559
 3287TIP3    H231353   5.356   4.592   5.310 -0.2035  1.0677 -0.0452
 3288TIP3   OH231354   2.151   3.011   5.991 -0.0267 -0.1136  0.0394
 3288TIP3    H131355   2.069   3.002   6.040  0.3879 -1.7180  0.5120
 3288TIP3    H231356   2.153   3.102   5.963 -3.6094 -0.6766 -2.7932
 3289TIP3   OH231357   1.980   2.740   1.199  0.2482 -0.2987 -0.1904
 3289TIP3    H131358   2.025   2.700   1.125  2.5999  0.6760  0.6056
 3289TIP3    H231359   1.961   2.667   1.258  0.9370 -0.7454 -0.5047
 3290TIP3   OH231360   5.315   6.244   3.421  0.5016 -0.0131 -0.8458
 3290TIP3    H131361   5.276   6.331   3.436  0.3064 -0.4140  1.1640
 3290TIP3    H231362   5.403   6.250   3.457  0.5432 -0.6110 -0.8428
 3291TIP3   OH231363   5.710   2.199  12.111  0.6274 -0.4256 -0.3920
 3291TIP3    H131364   5.750   2.274  12.067  1.3280 -1.4086 -1.5055
 3291TIP3    H231365   5.623   2.191  12.073  0.4178  0.0396 -0.0080
 3292TIP3   OH231366   5.448   1.049   4.190  0.0827  0.1239  0.2388
 3292TIP3    H131367   5.380   1.116   4.188  0.5406  0.5897 -0.1744
 3292TIP3    H231368   5.405   0.970   4.157 -0.2768  0.3963  0.0447
 3293TIP3   OH231369   0.993   3.208   0.157 -0.1589  0.2193  0.3300
 3293TIP3    H131370   0.956   3.290   0.125  0.1367 -0.5704 -2.2984
 3293TIP3    H231371   1.060   3.235   0.219  0.2051  2.0006 -0.7541
 3294TIP3   OH231372   6.000   4.579  10.804  0.1307 -1.0167 -0.0539
 3294TIP3    H131373   5.934   4.640  10.838 -1.0961 -4.0819  3.8494
 3294TIP3    H231374   6.080   4.600  10.852 -0.1857 -2.1494  0.9958
 3295TIP3   OH231375   0.541   0.077   3.515  0.3426  0.0979 -0.1965
 3295TIP3    H131376   0.487   0.098   3.591  0.2964 -1.1278  0.1311
 3295TIP3    H231377   0.477   0.054   3.447  0.3837  1.1705 -0.6252
 3296TIP3   OH231378   4.733   0.713  10.554  0.1223  0.5182 -0.0102
 3296TIP3    H131379   4.643   0.732  10.581  0.4101  2.0195 -0.0042
 3296TIP3    H231380   4.733   0.620  10.531 -1.3331  0.4160  0.3439
 3297TIP3   OH231381   4.878   3.775  16.514 -0.3118  0.7244 -0.3945
 3297TIP3    H131382   4.896   3.830  16.590 -0.5903  0.8717 -0.4339
 3297TIP3    H231383   4.964   3.748  16.483 -0.1999  0.6201  0.0043
 3298TIP3   OH231384   5.218   1.170  10.568 -0.0573 -0.0579  0.0690
 3298TIP3    H131385   5.142   1.228  10.572  0.4155  0.4998  1.4536
 3298TIP3    H231386   5.184   1.089  10.531 -1.2937  0.2228  0.5390
 3299TIP3   OH231387   4.797   5.886  15.401 -0.0448  0.0699  0.4435
 3299TIP3    H131388   4.709   5.893  15.364 -0.2484 -0.1642  0.8846
 3299TIP3    H231389   4.831   5.975  15.400 -0.6544  0.3131  1.1821
 3300TIP3   OH231390   4.071   4.432   2.369 -0.6470 -0.0965  0.3344
 3300TIP3    H131391   4.165   4.416   2.366 -0.3380  1.1506  1.7850
 3300TIP3    H231392   4.031   4.349   2.344  0.8222 -0.5025 -0.8204
 3301TIP3   OH231393   6.727   6.671  13.759  0.3885 -0.1404  0.1298
 3301TIP3    H131394   6.736   6.734  13.688 -0.0697 -1.9347 -1.6270
 3301TIP3    H231395   6.721   6.586  13.715  0.6324 -1.4011  2.3586
 3302TIP3   OH231396   5.478   1.903   1.099 -0.0271 -0.1907 -0.3070
 3302TIP3    H131397   5.393   1.915   1.057  0.1225  0.0808 -0.5320
 3302TIP3    H231398   5.478   1.967   1.171 -0.6995 -1.3473  0.7664
 3303TIP3   OH231399   0.706   5.529   5.705 -0.1958 -0.2194 -0.5584
 3303TIP3    H131400   0.643   5.508   5.774 -1.6163  1.8708 -1.1283
 3303TIP3    H231401   0.757   5.448   5.693 -3.0196 -2.1699 -0.3606
 3304TIP3   OH231402   5.589   2.603  16.003  0.9969 -0.6034 -0.6084
 3304TIP3    H131403   5.567   2.555  16.082 -1.0528 -1.7600 -1.8154
 3304TIP3    H231404   5.635   2.539  15.948  3.6626  0.5623  0.0869
 3305TIP3   OH231405   5.001   6.387  13.768 -0.2470  0.4244 -0.2671
 3305TIP3    H131406   5.086   6.425  13.789 -0.6908  1.9774 -1.0597
 3305TIP3    H231407   4.966   6.444  13.699 -1.5485 -0.6950 -0.5826
 3306TIP3   OH231408   0.443   2.683  12.035  0.1187  0.4709 -0.1525
 3306TIP3    H131409   0.481   2.612  11.983  0.5134  1.2346 -0.9288
 3306TIP3    H231410   0.515   2.711  12.093 -0.2421 -0.2020  0.6561
 3307TIP3   OH231411   2.701   5.555   3.913 -0.1106 -0.6930 -0.1348
 3307TIP3    H131412   2.723   5.468   3.947 -0.8897 -1.4818 -1.5345
 3307TIP3    H231413   2.764   5.614   3.954  0.3757 -1.8954  0.9219
 3308TIP3   OH231414   5.461   0.311  16.412  0.0706 -0.3659  0.3226
 3308TIP3    H131415   5.392   0.340  16.353 -0.4301 -1.3617  0.3888
 3308TIP3    H231416   5.426   0.327  16.499 -0.6930 -2.1199  0.3870
 3309TIP3   OH231417   6.000   0.630  11.084 -0.0195 -0.2470 -0.1438
 3309TIP3    H131418   6.080   0.598  11.126  0.6545  1.4180 -0.0740
 3309TIP3    H231419   5.990   0.574  11.007  1.4579 -0.2296 -0.3863
 3310TIP3   OH231420   0.939   6.655  14.749 -0.0048 -0.0834 -0.0087
 3310TIP3    H131421   0.864   6.604  14.779  0.6264 -1.3491 -0.5167
 3310TIP3    H231422   0.947   6.633  14.656 -1.1467  2.7830 -0.8895
 3311TIP3   OH231423   4.403   3.380  12.796 -0.2633 -0.0159 -0.0170
 3311TIP3    H131424   4.464   3.442  12.837 -1.3846  1.1081  0.0114
 3311TIP3    H231425   4.329   3.375  12.857 -1.1071  0.2269 -0.9931
 3312TIP3   OH231426   1.066   3.339  11.771 -0.2681 -0.1176  0.9524
 3312TIP3    H131427   1.079   3.360  11.679  0.7668  2.1964  1.5680
 3312TIP3    H231428   0.972   3.326  11.780 -0.4809  0.5095 -0.2528
 3313TIP3   OH231429   3.464   1.040   1.580 -0.4856  0.5411  0.0887
 3313TIP3    H131430   3.381   1.088   1.573 -0.1183  1.3624  1.1725
 3313TIP3    H231431   3.501   1.043   1.492 -1.7375 -0.0934 -0.4856
 3314TIP3   OH231432   1.984   4.147   4.912 -0.3437 -0.1669  0.0203
 3314TIP3    H131433   1.988   4.238   4.941  1.7425 -0.1510 -0.1949
 3314TIP3    H231434   1.943   4.151   4.826 -0.1168  0.5724 -0.0545
 3315TIP3   OH231435   3.056   2.533   5.568  0.4418 -0.0640  0.2364
 3315TIP3    H131436   3.060   2.623   5.536 -0.0357  0.2905  1.1443
 3315TIP3    H231437   3.128   2.527   5.631 -1.2300  0.5920  2.3461
 3316TIP3   OH231438   3.810   1.338   0.450  0.1250 -0.0415 -0.4721
 3316TIP3    H131439   3.785   1.252   0.415  2.0056 -1.0962  0.6511
 3316TIP3    H231440   3.857   1.380   0.378  0.4747 -0.5525 -0.5442
 3317TIP3   OH231441   0.542   5.226  14.598 -0.3065  0.1751  0.3330
 3317TIP3    H131442   0.589   5.283  14.659 -0.2168 -0.4761  0.8842
 3317TIP3    H231443   0.453   5.222  14.631 -0.7766  1.3976 -0.7059
 3318TIP3   OH231444   0.919   2.899   3.695 -0.1025  0.5109  0.0242
 3318TIP3    H131445   0.927   2.851   3.612 -2.9767  0.8898 -0.5635
 3318TIP3    H231446   0.991   2.865   3.748 -0.2378 -2.3475 -1.3763
 3319TIP3   OH231447   3.676   3.014   1.390 -0.1830  0.0296 -0.5199
 3319TIP3    H131448   3.608   3.037   1.327 -0.4979 -0.7863 -0.4786
 3319TIP3    H231449   3.755   3.004   1.338 -0.9460 -3.2126 -1.2128
 3320TIP3   OH231450   1.953   3.562  11.098 -0.1976  0.4307 -0.5789
 3320TIP3    H131451   1.903   3.487  11.132  0.7085  0.0223 -0.1089
 3320TIP3    H231452   2.000   3.596  11.174  1.4015 -0.1358 -1.2531
 3321TIP3   OH231453   4.821   2.770  11.643  0.3669  0.6643 -0.1851
 3321TIP3    H131454   4.892   2.715  11.611 -0.1403 -1.3113  1.8705
 3321TIP3    H231455   4.865   2.836  11.697  0.6970 -0.7418  1.3507
 3322TIP3   OH231456   0.225   4.738  10.963  0.0334 -0.1441 -0.5650
 3322TIP3    H131457   0.289   4.668  10.976  0.4093  0.4250  0.8639
 3322TIP3    H231458   0.160   4.700  10.904  1.1322 -1.0911 -1.2047
 3323TIP3   OH231459   1.535   4.874  13.339  0.1770  0.0964 -0.0646
 3323TIP3    H131460   1.585   4.802  13.301  2.9499  2.8474 -2.1316
 3323TIP3    H231461   1.452   4.873  13.292  0.9196 -0.6164 -1.4385
 3324TIP3   OH231462   3.317   5.057   4.775 -0.4146 -0.2665  0.1671
 3324TIP3    H131463   3.239   5.012   4.808  0.2779 -1.3813  0.3652
 3324TIP3    H231464   3.383   5.042   4.843  0.8451 -1.9999 -1.3270
 3325TIP3   OH231465   3.163   3.564   6.285 -0.0353  0.0592 -0.0999
 3325TIP3    H131466   3.195   3.648   6.317  0.5148 -0.1951  0.0423
 3325TIP3    H231467   3.170   3.570   6.190 -1.2872  0.6661 -0.1825
 3326TIP3   OH231468   1.130   4.142  13.956 -0.1803  0.5227  0.9409
 3326TIP3    H131469   1.102   4.058  13.919 -4.1858  0.6000  3.2230
 3326TIP3    H231470   1.125   4.204  13.883 -0.2362 -0.6400 -0.0649
 3327TIP3   OH231471   0.146   2.588  15.574  0.2817  0.0266 -0.0900
 3327TIP3    H131472   0.239   2.597  15.595  0.2906 -0.8337  0.3049
 3327TIP3    H231473   0.141   2.508  15.522 -0.3365 -0.4401  0.6611
 3328TIP3   OH231474   0.529   0.788  11.593 -0.3368  0.5597 -0.1168
 3328TIP3    H131475   0.613   0.745  11.577  0.8098  1.9392  1.8101
 3328TIP3    H231476   0.479   0.725  11.645 -0.3399 -0.0596 -0.8383
 3329TIP3   OH231477   5.352   5.871   0.848  0.0199  0.4752 -0.0745
 3329TIP3    H131478   5.338   5.961   0.880  2.6638  1.2930 -0.8736
 3329TIP3    H231479   5.279   5.855   0.789 -0.5783  2.0707  0.1580
 3330TIP3   OH231480   1.224   6.496   1.298  0.2392 -0.0643 -0.4557
 3330TIP3    H131481   1.239   6.573   1.352  1.1514 -0.0554 -0.7028
 3330TIP3    H231482   1.201   6.427   1.360  0.9454  0.0296 -0.0710
 3331TIP3   OH231483   5.092   1.716  15.469 -0.4596 -0.4209 -0.1973
 3331TIP3    H131484   5.020   1.777  15.483 -0.2614  0.9613 -4.0088
 3331TIP3    H231485   5.049   1.634  15.444 -0.7557 -0.0193 -1.0472
 3332TIP3   OH231486   6.508   0.929   0.844 -0.0084 -0.7373 -0.0281
 3332TIP3    H131487   6.461   0.960   0.766 -2.6514  1.1681  2.1412
 3332TIP3    H231488   6.599   0.958   0.831 -0.8904  1.6513 -1.3650
 3333TIP3   OH231489   5.682   3.234   3.068 -0.2723  0.1031  0.9884
 3333TIP3    H131490   5.744   3.161   3.068 -1.9293 -1.4171 -1.0519
 3333TIP3    H231491   5.735   3.311   3.045  0.8568 -1.2128 -1.1154
 3334TIP3   OH231492   4.857   4.960   4.032 -0.5453 -0.0164 -0.0885
 3334TIP3    H131493   4.804   5.017   3.976 -1.7705 -1.0937 -0.0581
 3334TIP3    H231494   4.830   4.984   4.121 -0.6381 -0.2448 -0.0560
 3335TIP3   OH231495   1.542   6.504   6.452  0.0101  0.6143  0.6000
 3335TIP3    H131496   1.471   6.503   6.517  1.8777  1.9977  2.8340
 3335TIP3    H231497   1.542   6.594   6.419  1.6405  1.1264  1.8402
 3336TIP3   OH231498   3.408   4.501  15.035  0.1176 -0.1917  0.2596
 3336TIP3    H131499   3.411   4.571  14.970  1.3105 -0.2209  0.2563
 3336TIP3    H231500   3.442   4.542  15.115  0.7226 -0.7278  0.2828
 3337TIP3   OH231501   5.741   3.563   3.241 -0.4294  0.1148 -0.0380
 3337TIP3    H131502   5.695   3.646   3.235 -0.6771 -0.0101  0.1269
 3337TIP3    H231503   5.673   3.498   3.260  0.0963  0.2728  2.7334
 3338TIP3   OH231504   4.931   5.079   3.376 -0.4562 -0.6270  0.3672
 3338TIP3    H131505   4.908   5.070   3.283 -0.1131  1.7115 -0.0145
 3338TIP3    H231506   4.850   5.057   3.423 -0.7440 -1.4603 -0.4785
 3339TIP3   OH231507   4.260   6.521  13.763  0.3410  0.2308  0.6387
 3339TIP3    H131508   4.167   6.538  13.749  0.5319  2.0472  1.3282
 3339TIP3    H231509   4.289   6.479  13.682 -1.5446 -2.6639  1.3012
 3340TIP3   OH231510   1.412   2.773   3.023 -0.1327 -0.8787  0.2363
 3340TIP3    H131511   1.490   2.765   3.079 -1.0837 -0.4986  1.6773
 3340TIP3    H231512   1.385   2.864   3.032  0.6512 -0.3100 -2.2804
 3341TIP3   OH231513   1.209   5.659   4.230  0.0847  0.0990  0.2421
 3341TIP3    H131514   1.205   5.647   4.135  0.1504 -1.0455  0.3685
 3341TIP3    H231515   1.302   5.652   4.250 -0.1643 -3.0206  0.7485
 3342TIP3   OH231516   1.910   6.065  11.185 -0.3860 -0.3843  0.6996
 3342TIP3    H131517   1.857   6.139  11.158 -1.0724 -0.2805  2.2288
 3342TIP3    H231518   1.856   5.988  11.166 -0.7049 -0.3330  1.3554
 3343TIP3   OH231519   2.705   3.793  13.443 -0.2930  0.3693 -0.3503
 3343TIP3    H131520   2.686   3.883  13.471  0.8586  1.4050 -2.6231
 3343TIP3    H231521   2.799   3.791  13.428 -0.6224 -0.4186 -2.7692
 3344TIP3   OH231522   1.236   1.868   4.274  0.2734  0.3679  0.2194
 3344TIP3    H131523   1.179   1.881   4.350 -1.2922 -0.2256 -0.7892
 3344TIP3    H231524   1.196   1.795   4.226  0.9575  0.9972 -1.4011
 3345TIP3   OH231525   6.681   6.334  13.173  0.3756 -0.1308 -0.2636
 3345TIP3    H131526   6.737   6.356  13.099  0.0667 -0.4843 -0.6079
 3345TIP3    H231527   6.705   6.244  13.194  0.4193 -0.0506  0.0278
 3346TIP3   OH231528   3.267   4.769   2.637  0.6733  0.7297  0.5420
 3346TIP3    H131529   3.355   4.778   2.600  1.2327 -0.7545  1.4737
 3346TIP3    H231530   3.253   4.851   2.684  1.5405  0.9822  0.3818
 3347TIP3   OH231531   3.036   0.948   0.787  0.4109  0.4025 -0.3812
 3347TIP3    H131532   2.942   0.940   0.769  0.0737 -1.3724  1.7615
 3347TIP3    H231533   3.078   0.901   0.714 -0.4221  0.3060 -0.8112
 3348TIP3   OH231534   4.522   3.459  16.509 -0.1701  0.0938  0.9287
 3348TIP3    H131535   4.569   3.469  16.592  0.9181 -1.6200  0.5505
 3348TIP3    H231536   4.532   3.367  16.486  0.6228  0.7830 -1.7479
 3349TIP3   OH231537   6.243   1.341  12.334  0.1295 -0.0235 -0.4067
 3349TIP3    H131538   6.243   1.245  12.340  1.5144  0.0308  1.1168
 3349TIP3    H231539   6.155   1.367  12.362  0.0711 -0.8247  0.1869
 3350TIP3   OH231540   1.063   0.340   0.162 -0.1096  0.3473 -0.3743
 3350TIP3    H131541   1.075   0.250   0.193 -0.6566  1.0933  2.2179
 3350TIP3    H231542   1.018   0.330   0.078 -0.1640 -1.7880 -0.1493
 3351TIP3   OH231543   6.095   0.129  13.272 -0.0031 -0.1692  0.0376
 3351TIP3    H131544   6.092   0.213  13.318  0.8004  0.2568 -0.6638
 3351TIP3    H231545   6.011   0.124  13.226  0.1414  0.4894 -0.3127
 3352TIP3   OH231546   4.095   0.072  16.220  0.6432 -0.1112  0.3235
 3352TIP3    H131547   4.030   0.003  16.231  1.3961 -0.8579  0.2137
 3352TIP3    H231548   4.083   0.129  16.296 -1.1841  0.6703 -0.5042
 3353TIP3   OH231549   0.169   6.693  16.280  0.0497  0.1205 -0.1268
 3353TIP3    H131550   0.151   6.704  16.187 -3.1348 -0.0081  0.3376
 3353TIP3    H231551   0.207   6.605  16.287  0.7191  0.2956 -1.3135
 3354TIP3   OH231552   1.576   3.658   3.537  0.1482 -0.4154  0.0144
 3354TIP3    H131553   1.579   3.736   3.481  0.0596 -1.2596 -1.2011
 3354TIP3    H231554   1.602   3.587   3.479 -1.2378 -1.5191  0.7054
 3355TIP3   OH231555   0.142   2.158   5.605  0.2048 -0.0494 -0.8309
 3355TIP3    H131556   0.075   2.193   5.663  0.8284  0.0573 -0.1637
 3355TIP3    H231557   0.122   2.064   5.598  0.2164 -0.0925 -0.3188
 3356TIP3   OH231558   0.741   3.110   2.146  0.1343 -0.5302  0.2754
 3356TIP3    H131559   0.694   3.052   2.085 -0.7559 -1.6165  1.9235
 3356TIP3    H231560   0.820   3.062   2.169 -0.4196 -0.9411  1.3551
 3357TIP3   OH231561   0.770   5.469  15.430  0.4566  0.7115 -0.4407
 3357TIP3    H131562   0.737   5.393  15.382 -0.6711  1.0867 -0.2833
 3357TIP3    H231563   0.862   5.448  15.448  0.6099  0.1159 -1.8391
 3358TIP3   OH231564   4.035   2.454   2.281 -0.0979  0.0444  0.0210
 3358TIP3    H131565   3.975   2.484   2.349  1.1779 -1.2242  1.7630
 3358TIP3    H231566   3.991   2.378   2.243  0.4095 -0.9326  1.3461
 3359TIP3   OH231567   1.605   6.186  15.087  0.6502  0.3834  0.0071
 3359TIP3    H131568   1.534   6.125  15.107 -1.0257  1.8562 -1.1455
 3359TIP3    H231569   1.658   6.187  15.166 -0.1790 -1.3214  0.6444
 3360TIP3   OH231570   2.410   0.046  10.473  0.0938  0.3570  0.1523
 3360TIP3    H131571   2.477   0.089  10.525  0.3886  0.5321 -0.3618
 3360TIP3    H231572   2.355   0.000  10.537  0.5209  0.4632  0.6006
 3361TIP3   OH231573   2.506   4.875   0.643  0.1143 -0.2420 -0.0877
 3361TIP3    H131574   2.452   4.849   0.717  1.7167 -2.5197  0.3792
 3361TIP3    H231575   2.445   4.878   0.569 -1.0007 -0.7538  0.7705
 3362TIP3   OH231576   1.033   2.661  11.234 -0.8277  0.6634  0.2797
 3362TIP3    H131577   1.100   2.623  11.291 -1.8289 -0.6863  0.5894
 3362TIP3    H231578   1.074   2.742  11.201  0.4176  0.6006  1.5434
 3363TIP3   OH231579   6.145   1.776   3.337  0.2975  0.6902 -0.4133
 3363TIP3    H131580   6.148   1.728   3.254  0.0687  1.3649 -0.8223
 3363TIP3    H231581   6.219   1.835   3.333  1.4305 -0.5747  0.7074
 3364TIP3   OH231582   1.919   3.248   5.236 -0.1958 -0.1570  0.2816
 3364TIP3    H131583   1.984   3.315   5.256 -0.9647  0.7764 -0.2395
 3364TIP3    H231584   1.897   3.263   5.144 -1.0333 -0.5485  0.4090
 3365TIP3   OH231585   4.118   3.880  12.786 -0.0660 -0.7025 -0.1873
 3365TIP3    H131586   4.089   3.827  12.713 -1.0654 -2.0872  1.1508
 3365TIP3    H231587   4.190   3.830  12.826 -1.2669 -1.3327  1.3132
 3366TIP3   OH231588   2.826   1.887  16.532  0.1442 -0.0581  0.0199
 3366TIP3    H131589   2.770   1.849  16.464  0.8660 -3.7861  1.2776
 3366TIP3    H231590   2.767   1.901  16.606 -0.2082  1.8675 -0.5836
 3367TIP3   OH231591   0.364   1.970  15.508 -0.4366 -0.0420 -0.1345
 3367TIP3    H131592   0.411   1.966  15.424 -0.2260 -0.8467  0.0172
 3367TIP3    H231593   0.314   2.052  15.503  0.3055  0.3959 -0.6520
 3368TIP3   OH231594   1.122   0.839  14.424  0.1713  0.3687 -0.3827
 3368TIP3    H131595   1.075   0.866  14.503 -0.3522 -1.2801 -0.0781
 3368TIP3    H231596   1.095   0.901  14.357  1.6543  2.6558  0.9753
 3369TIP3   OH231597   4.979   3.322   0.889  0.2298  0.2534  0.1069
 3369TIP3    H131598   4.963   3.356   0.801 -2.6738  2.4247  1.2949
 3369TIP3    H231599   5.026   3.392   0.934 -0.8819  0.4314  1.0453
 3370TIP3   OH231600   0.826   4.758  16.170 -0.2620  0.3643  0.3570
 3370TIP3    H131601   0.775   4.750  16.251 -1.7552  0.1419 -0.5634
 3370TIP3    H231602   0.904   4.706  16.186 -1.0037 -0.5218  1.2955
 3371TIP3   OH231603   2.248   3.470   3.943  0.0249 -0.1343 -0.0081
 3371TIP3    H131604   2.318   3.529   3.916 -1.7082  1.2848 -1.6891
 3371TIP3    H231605   2.281   3.382   3.924  2.2215  0.2942  1.4731
 3372TIP3   OH231606   2.640   6.006  16.610 -0.3928  0.0379 -0.2014
 3372TIP3    H131607   2.610   5.985  16.698  0.8244  0.3753  0.3143
 3372TIP3    H231608   2.598   5.940  16.554 -0.6452 -0.5957  0.7074
 3373TIP3   OH231609   2.628   3.453  13.986  0.2335  0.2442 -0.1989
 3373TIP3    H131610   2.715   3.415  13.999 -0.7074 -2.5402 -1.2967
 3373TIP3    H231611   2.588   3.452  14.073  0.7685  0.1511  0.0502
 3374TIP3   OH231612   4.217   4.594   0.996 -0.8851  0.0276  0.1415
 3374TIP3    H131613   4.123   4.605   0.980 -0.8322 -0.0071 -0.2083
 3374TIP3    H231614   4.250   4.682   1.012 -1.0627 -0.0128  0.7671
 3375TIP3   OH231615   2.019   0.909   0.694  0.7839 -0.2858 -0.2260
 3375TIP3    H131616   2.034   0.975   0.761  1.4027 -0.9292  0.2876
 3375TIP3    H231617   1.988   0.832   0.742  2.1219 -1.0582 -0.5396
 3376TIP3   OH231618   2.974   0.632   3.294  0.3806  0.0515  0.4108
 3376TIP3    H131619   3.050   0.687   3.314  0.5524  0.4523 -1.1593
 3376TIP3    H231620   2.906   0.662   3.354  0.7285  1.4172  0.1655
 3377TIP3   OH231621   3.158   3.251  12.318 -0.4466  0.4380  0.6967
 3377TIP3    H131622   3.077   3.224  12.275 -0.8817  1.6565  0.7032
 3377TIP3    H231623   3.228   3.225  12.257 -0.7838 -0.9978  0.8815
 3378TIP3   OH231624   6.581   2.514   3.245 -0.7989 -0.6335 -0.2458
 3378TIP3    H131625   6.542   2.428   3.226 -2.4062 -0.2732  1.1861
 3378TIP3    H231626   6.670   2.494   3.272 -1.2914 -1.9140  0.5066
 3379TIP3   OH231627   2.120   2.403   5.011  0.5953  0.9743  0.2077
 3379TIP3    H131628   2.093   2.314   5.037  1.3951  0.4740 -0.6005
 3379TIP3    H231629   2.214   2.404   5.025  0.5887  1.6961  0.1900
 3380TIP3   OH231630   2.755   5.342  16.270  0.5067  0.4054  0.2876
 3380TIP3    H131631   2.730   5.433  16.261  2.4675  0.8529 -1.6242
 3380TIP3    H231632   2.827   5.331  16.208 -0.2212 -2.6674 -0.1686
 3381TIP3   OH231633   0.775   6.732  15.760 -0.0565  0.4971 -0.0284
 3381TIP3    H131634   0.772   6.763  15.670 -0.5287 -0.9918 -0.5558
 3381TIP3    H231635   0.726   6.650  15.759  2.3161 -1.0373  0.9862
 3382TIP3   OH231636   0.612   0.168  14.652  0.0474  0.1211 -0.0299
 3382TIP3    H131637   0.586   0.256  14.626  1.2110  0.3249 -0.5908
 3382TIP3    H231638   0.538   0.134  14.702 -1.0103  0.8583 -1.0526
 3383TIP3   OH231639   0.050   1.601   2.697 -0.4623 -0.0088 -0.4095
 3383TIP3    H131640  -0.022   1.593   2.634 -0.4904 -1.6827 -0.1975
 3383TIP3    H231641   0.126   1.565   2.652 -0.3669 -0.7510  0.3213
 3384TIP3   OH231642   1.380   1.534   0.715 -0.0020  0.4332 -0.2444
 3384TIP3    H131643   1.391   1.491   0.800 -0.4610  0.6020 -0.0933
 3384TIP3    H231644   1.464   1.523   0.672  0.0498 -0.1845 -0.0095
 3385TIP3   OH231645   1.987   5.282  15.612 -0.1246 -0.0418 -0.9786
 3385TIP3    H131646   2.004   5.270  15.519  0.4902  0.7098 -0.9705
 3385TIP3    H231647   2.073   5.295  15.651 -0.2770 -1.3696 -0.1304
 3386TIP3   OH231648   2.440   3.005   6.103  0.0224 -0.3034 -0.1656
 3386TIP3    H131649   2.455   3.055   6.183  0.2971  1.0278 -1.0186
 3386TIP3    H231650   2.350   3.026   6.077  0.3276  0.2224 -0.8324
 3387TIP3   OH231651   2.739   1.586   3.699 -0.3007  0.4390  0.5961
 3387TIP3    H131652   2.740   1.596   3.604 -0.5455 -1.2350  0.3796
 3387TIP3    H231653   2.767   1.671   3.733 -0.4809  1.1499 -0.9570
 3388TIP3   OH231654   0.763   6.180   0.543  0.0534  0.3393 -0.5692
 3388TIP3    H131655   0.751   6.220   0.629 -1.7101  0.1277 -0.6798
 3388TIP3    H231656   0.683   6.202   0.495  0.5732 -0.3891 -1.8164
 3389TIP3   OH231657   3.879   6.763  16.307 -1.1676 -0.8067 -0.5095
 3389TIP3    H131658   3.795   6.808  16.299 -1.7764 -1.3545  2.0411
 3389TIP3    H231659   3.892   6.751  16.401  1.3900 -1.4886 -0.8553
 3390TIP3   OH231660   2.605   5.631  15.356  0.0357  0.2685  0.2184
 3390TIP3    H131661   2.549   5.669  15.288  1.1539 -0.3219 -1.0751
 3390TIP3    H231662   2.593   5.536  15.346 -1.1462  0.1785  2.0489
 3391TIP3   OH231663   5.667   4.976  14.415 -0.0516 -0.2636 -0.4847
 3391TIP3    H131664   5.750   4.930  14.417 -0.0600 -0.3757  2.6560
 3391TIP3    H231665   5.690   5.068  14.428 -0.3776 -0.4199  1.5787
 3392TIP3   OH231666   5.246   0.605   2.699  0.3217 -0.5979  0.1675
 3392TIP3    H131667   5.223   0.662   2.625  0.4222 -1.0311 -0.2005
 3392TIP3    H231668   5.336   0.578   2.682  0.6790  0.0736  0.9540
 3393TIP3   OH231669   6.617   3.382  11.857 -0.2413 -0.4818 -0.4970
 3393TIP3    H131670   6.678   3.349  11.791  1.5407  0.5944  0.5113
 3393TIP3    H231671   6.663   3.369  11.940 -1.2465  0.6576  0.2759
 3394TIP3   OH231672   6.237   4.839  11.114  0.0503 -0.0078  0.2606
 3394TIP3    H131673   6.258   4.902  11.183 -1.0810 -0.0503  0.6706
 3394TIP3    H231674   6.322   4.813  11.078  0.5651  3.3291 -1.3729
 3395TIP3   OH231675   6.645   6.334   4.621  0.2579  0.3534  0.1290
 3395TIP3    H131676   6.638   6.424   4.592  3.7995  1.0544  0.9628
 3395TIP3    H231677   6.586   6.328   4.697 -0.8651  1.5774 -0.6095
 3396TIP3   OH231678   0.753   1.835   6.543 -0.1035 -0.1998 -0.1129
 3396TIP3    H131679   0.836   1.806   6.505 -0.2262  0.1664 -0.6664
 3396TIP3    H231680   0.734   1.769   6.610  1.5464  0.6816  1.3269
 3397TIP3   OH231681   5.730   1.741   1.894  0.0926 -0.3565  0.0506
 3397TIP3    H131682   5.823   1.763   1.903  0.1625 -0.3989 -0.5591
 3397TIP3    H231683   5.729   1.649   1.867 -0.0594  0.1589 -1.7777
 3398TIP3   OH231684   2.010   2.804  16.856 -0.1814 -0.3837 -0.4931
 3398TIP3    H131685   1.957   2.725  16.847 -0.2362 -0.2285 -1.6332
 3398TIP3    H231686   2.099   2.776  16.833  0.0611 -0.4248  0.4712
 3399TIP3   OH231687   2.646   2.443   0.079  0.0423  0.0384  0.0347
 3399TIP3    H131688   2.722   2.400   0.038 -0.4104  0.4533 -1.2711
 3399TIP3    H231689   2.640   2.401   0.165  0.5319 -1.4592 -0.6101
 3400TIP3   OH231690   5.337   3.327   3.840 -0.0557 -0.0303 -0.3922
 3400TIP3    H131691   5.307   3.295   3.925 -1.2899 -0.3129 -0.9148
 3400TIP3    H231692   5.334   3.251   3.782 -0.2976  0.3988 -0.9562
 3401TIP3   OH231693   5.543   2.155  11.344  0.4846 -0.1929  0.1842
 3401TIP3    H131694   5.498   2.071  11.351 -2.2524  1.1910  0.6408
 3401TIP3    H231695   5.474   2.218  11.322  2.3069  2.0473  0.4212
 3402TIP3   OH231696   0.141   5.461  11.597  0.5857  0.1757  0.3375
 3402TIP3    H131697   0.207   5.530  11.604  1.8439 -0.7264 -1.4772
 3402TIP3    H231698   0.125   5.454  11.502 -0.8565 -0.8002  0.6261
 3403TIP3   OH231699   4.375   2.696  16.332  0.3320  0.3946 -0.0410
 3403TIP3    H131700   4.394   2.608  16.365 -0.8368  0.1949  0.1606
 3403TIP3    H231701   4.381   2.689  16.237 -0.1024 -0.0015 -0.0438
 3404TIP3   OH231702   3.343   3.405  14.869 -0.0987  0.0525 -0.5743
 3404TIP3    H131703   3.283   3.421  14.796  0.0071  0.1647 -0.6365
 3404TIP3    H231704   3.356   3.491  14.909 -0.6712 -0.1091 -0.0213
 3405TIP3   OH231705   3.994   2.786  11.629  0.5630  0.6509  0.2576
 3405TIP3    H131706   4.033   2.822  11.549 -0.3850 -0.5345 -0.7696
 3405TIP3    H231707   3.926   2.849  11.652 -0.6095 -0.0609 -1.1281
 3406TIP3   OH231708   5.334   0.048   3.531 -0.1635  0.0694 -0.0391
 3406TIP3    H131709   5.281   0.020   3.605 -0.8485 -0.0768 -0.5731
 3406TIP3    H231710   5.281   0.115   3.487  0.3279  0.3114 -0.2670
 3407TIP3   OH231711   2.000   6.062  11.984 -0.4817 -0.1096  0.2892
 3407TIP3    H131712   1.979   5.988  12.040 -0.3430 -0.3967 -0.0356
 3407TIP3    H231713   2.084   6.094  12.018 -0.1004 -0.6533 -0.1240
 3408TIP3   OH231714   3.518   6.544  14.958 -0.8279  0.4771  0.6237
 3408TIP3    H131715   3.423   6.537  14.961 -0.7549 -0.7558  0.5898
 3408TIP3    H231716   3.536   6.610  14.892 -1.6658  1.0220  0.9287
 3409TIP3   OH231717   0.526   0.720  12.129  0.2678  0.2237 -0.3212
 3409TIP3    H131718   0.448   0.702  12.181  0.3809 -2.5992 -0.9871
 3409TIP3    H231719   0.591   0.749  12.193 -0.1901 -1.2185  0.8645
 3410TIP3   OH231720   6.678   0.878  17.000 -0.0050  0.0739  0.9030
 3410TIP3    H131721   6.633   0.793  17.002 -0.2578  0.2047  0.7772
 3410TIP3    H231722   6.696   0.894  16.908 -0.2860  0.3297  0.8924
 3411TIP3   OH231723   1.145   4.554   3.669 -0.6400 -0.4339  0.4222
 3411TIP3    H131724   1.223   4.505   3.695 -0.5478 -0.7239 -0.3968
 3411TIP3    H231725   1.094   4.562   3.750 -1.4998 -3.3707  0.2949
 3412TIP3   OH231726   5.668   3.365  16.466  0.0308 -0.0967  0.1381
 3412TIP3    H131727   5.662   3.284  16.517  0.2300 -0.3883 -0.2942
 3412TIP3    H231728   5.762   3.381  16.457 -0.0069  0.1277  0.1390
 3413TIP3   OH231729   4.296   1.285   4.865  0.1807  0.1931 -0.1056
 3413TIP3    H131730   4.201   1.290   4.869  0.2673  1.6096  1.1451
 3413TIP3    H231731   4.326   1.339   4.939  1.9203 -2.1120  0.9924
 3414TIP3   OH231732   3.361   5.360   2.825 -0.2155 -0.0694  0.4627
 3414TIP3    H131733   3.336   5.351   2.733  0.7305  0.2434  0.1643
 3414TIP3    H231734   3.297   5.421   2.861  0.2657  0.9535 -0.3553
 3415TIP3   OH231735   6.764   5.019  16.462 -0.1543  0.4440 -0.7662
 3415TIP3    H131736   6.785   5.063  16.544  0.3312 -1.6540  0.3057
 3415TIP3    H231737   6.820   5.060  16.397  1.9583 -0.0755  0.6310
 3416TIP3   OH231738   1.045   1.709  12.308 -0.0627 -0.3433 -0.0013
 3416TIP3    H131739   1.128   1.740  12.273  0.3939 -1.7210 -0.1751
 3416TIP3    H231740   1.043   1.741  12.398  0.8994 -0.7513  0.1729
 3417TIP3   OH231741   2.893   0.639   1.895  0.3994  0.1768  0.2127
 3417TIP3    H131742   2.868   0.548   1.907 -0.0390  0.4178  1.3053
 3417TIP3    H231743   2.871   0.659   1.804  1.6299 -1.1336 -0.4096
 3418TIP3   OH231744   3.756   3.249  11.328  0.0246 -0.3548 -0.3435
 3418TIP3    H131745   3.704   3.317  11.284  0.4056  0.2286  0.1005
 3418TIP3    H231746   3.788   3.194  11.256  0.1304  0.2264 -0.7498
 3419TIP3   OH231747   5.183   0.459   4.202  0.1267  0.1424  0.1252
 3419TIP3    H131748   5.197   0.412   4.284 -0.9788 -0.1196  0.1782
 3419TIP3    H231749   5.269   0.462   4.161  0.9985  1.5054  1.9149
 3420TIP3   OH231750   1.920   2.571   4.850 -0.5327  0.6540 -0.0162
 3420TIP3    H131751   1.832   2.533   4.856 -0.4474  0.4508 -0.0344
 3420TIP3    H231752   1.975   2.510   4.900 -0.2846  0.4231 -0.5703
 3421TIP3   OH231753   0.007   5.728   2.829 -0.2624 -0.0337  0.0155
 3421TIP3    H131754  -0.010   5.818   2.802 -4.3179  0.1815  2.5276
 3421TIP3    H231755   0.070   5.736   2.901  1.6219  0.3850 -1.5814
 3422TIP3   OH231756   4.829   1.463   4.421 -0.5313  0.2388  0.3473
 3422TIP3    H131757   4.776   1.384   4.434 -0.0649 -0.5117 -1.8671
 3422TIP3    H231758   4.897   1.436   4.358  1.7467  1.4979  2.1169
 3423TIP3   OH231759   6.478   1.109  12.987 -0.0950  0.6403 -0.2306
 3423TIP3    H131760   6.455   1.022  13.020  0.6280  1.0625  1.4957
 3423TIP3    H231761   6.433   1.115  12.903  0.0447 -1.5024 -0.5260
 3424TIP3   OH231762   4.218   1.514   1.915 -0.3056 -0.2891  0.5462
 3424TIP3    H131763   4.201   1.592   1.967  0.4991  0.0511  0.3211
 3424TIP3    H231764   4.152   1.450   1.944 -0.6301  0.2917  1.1085
 3425TIP3   OH231765   6.281   5.984   0.133 -0.1459 -0.3642 -0.3857
 3425TIP3    H131766   6.241   5.967   0.048  0.7038 -3.1348 -0.3255
 3425TIP3    H231767   6.375   5.975   0.117  0.0418 -0.6043  0.7749
 3426TIP3   OH231768   4.017   4.263  16.233 -0.7949 -0.1313  0.3221
 3426TIP3    H131769   4.068   4.321  16.289  0.7891 -2.0223  0.9331
 3426TIP3    H231770   4.024   4.301  16.146  0.3950  0.4693  0.6669
 3427TIP3   OH231771   0.238   4.451   5.173 -0.5771  0.3963  0.3553
 3427TIP3    H131772   0.178   4.491   5.109  1.2798  2.4969 -0.2111
 3427TIP3    H231773   0.323   4.452   5.129  0.8034  1.9907  2.8333
 3428TIP3   OH231774   3.651   1.104  13.897  0.4936 -0.6138  0.0881
 3428TIP3    H131775   3.567   1.070  13.928  0.0928 -0.9763 -1.3008
 3428TIP3    H231776   3.633   1.196  13.874  0.1295 -1.0296 -1.3807
 3429TIP3   OH231777   4.198   1.753   5.708  0.3953  0.4788  0.1405
 3429TIP3    H131778   4.277   1.741   5.761 -0.1139 -0.2220  0.7554
 3429TIP3    H231779   4.128   1.715   5.760 -0.0398 -0.7035 -1.2493
 3430TIP3   OH231780   0.951   2.387  17.082  0.3019 -0.2882 -0.0336
 3430TIP3    H131781   0.928   2.472  17.045  3.6162  0.4057 -0.7865
 3430TIP3    H231782   1.008   2.347  17.015 -1.2115 -3.1876  0.2502
 3431TIP3   OH231783   3.531   0.096  12.805  0.4564 -0.4274  0.1870
 3431TIP3    H131784   3.576   0.132  12.882  1.4455  0.0346 -0.5758
 3431TIP3    H231785   3.452   0.150  12.796 -0.6292 -1.6374  1.8999
 3432TIP3   OH231786   5.705   4.695   5.515 -0.2765 -0.0657 -0.2983
 3432TIP3    H131787   5.759   4.713   5.438  0.0399  2.6105  0.4181
 3432TIP3    H231788   5.736   4.611   5.547  1.0004 -0.2736 -1.9188
 3433TIP3   OH231789   3.353   5.621   4.330  0.2505 -0.2469  0.8745
 3433TIP3    H131790   3.439   5.596   4.364  0.7214  0.2998  0.1103
 3433TIP3    H231791   3.371   5.663   4.246 -0.7208  0.3975  0.9729
 3434TIP3   OH231792   2.995   2.302  15.867 -0.5609 -0.4643  0.0901
 3434TIP3    H131793   2.905   2.300  15.836  0.1800 -1.3064 -2.1552
 3434TIP3    H231794   3.032   2.381  15.829 -0.2207 -0.3432  0.6586
 3435TIP3   OH231795   5.333   2.710   3.593  0.1052 -0.2495  0.6770
 3435TIP3    H131796   5.298   2.627   3.625  1.0017 -0.5288  0.9697
 3435TIP3    H231797   5.268   2.741   3.530 -0.6555 -0.7466  1.2030
 3436TIP3   OH231798   5.073   0.393   2.600 -0.0529 -0.0809  0.0727
 3436TIP3    H131799   5.127   0.471   2.590  0.4920 -0.4650 -0.0424
 3436TIP3    H231800   5.077   0.373   2.693  0.7159 -0.5890 -0.0491
 3437TIP3   OH231801   4.397   4.001   5.718 -0.3586  0.1335  0.0176
 3437TIP3    H131802   4.446   3.924   5.690  0.1608  0.4159  0.1159
 3437TIP3    H231803   4.339   4.021   5.645 -0.1873 -0.0977 -0.1850
 3438TIP3   OH231804   2.092   3.883  14.077 -0.4660 -0.2628  0.2797
 3438TIP3    H131805   2.121   3.800  14.038 -0.1252 -0.8477  1.7041
 3438TIP3    H231806   2.038   3.924  14.010  0.6698 -0.8783 -1.0708
 3439TIP3   OH231807   5.417   4.225  15.413 -0.1101 -0.2011  0.2555
 3439TIP3    H131808   5.475   4.210  15.339 -0.9121  0.7015 -0.5884
 3439TIP3    H231809   5.334   4.250  15.373  0.0615  2.5732  1.4336
 3440TIP3   OH231810   4.910   3.489  12.012  0.4374 -0.5040  0.2837
 3440TIP3    H131811   4.976   3.434  12.056  1.0091 -0.9462 -1.0721
 3440TIP3    H231812   4.930   3.578  12.041 -1.9244 -1.0726  4.3688
 3441TIP3   OH231813   3.131   2.321  12.652 -0.5120  0.2310 -0.0764
 3441TIP3    H131814   3.036   2.329  12.643 -0.6344 -0.2231  0.6583
 3441TIP3    H231815   3.151   2.234  12.617 -0.6938 -0.6212  1.8295
 3442TIP3   OH231816   3.575   1.115   4.072  0.1138  0.0864 -0.7628
 3442TIP3    H131817   3.525   1.034   4.059 -0.4987  0.3161  0.0270
 3442TIP3    H231818   3.588   1.150   3.984 -0.8369 -0.1557 -1.0167
 3443TIP3   OH231819   5.683   1.978  12.372 -0.0141  0.5596  0.6354
 3443TIP3    H131820   5.616   2.033  12.331 -1.5985 -1.0839  0.9114
 3443TIP3    H231821   5.690   1.902  12.315 -0.8294 -0.8338  2.2951
 3444TIP3   OH231822   1.133   0.467  16.831 -0.1985 -0.1892 -0.2164
 3444TIP3    H131823   1.055   0.459  16.887 -0.1773 -0.0859 -0.1717
 3444TIP3    H231824   1.105   0.524  16.759 -0.0824  0.0816 -0.0501
 3445TIP3   OH231825   2.320   0.838  11.790 -0.3674  0.5581 -0.4989
 3445TIP3    H131826   2.242   0.881  11.825 -0.2773 -0.7175  1.4299
 3445TIP3    H231827   2.287   0.758  11.749 -0.2142  0.8292 -1.1695
 3446TIP3   OH231828   0.488   5.831  13.085 -0.2920 -0.0512 -0.1373
 3446TIP3    H131829   0.555   5.836  13.017 -1.0864 -0.4239 -0.9666
 3446TIP3    H231830   0.483   5.920  13.120  0.4158  0.0496 -0.2763
 3447TIP3   OH231831   6.415   0.892   3.357 -1.1726 -0.2501 -0.2750
 3447TIP3    H131832   6.435   0.978   3.320  0.5647 -1.2411 -1.8526
 3447TIP3    H231833   6.426   0.903   3.451 -1.3048  1.3278 -0.4215
 3448TIP3   OH231834   6.088   5.801   0.948  0.5555  0.1626  0.2435
 3448TIP3    H131835   6.160   5.809   0.886 -0.2368 -1.7381 -1.0177
 3448TIP3    H231836   6.012   5.833   0.900 -0.7892 -4.6895 -1.3447
 3449TIP3   OH231837   4.473   3.296   4.467 -0.3909 -0.2910  0.1227
 3449TIP3    H131838   4.393   3.244   4.479 -0.8357  0.9636  3.5374
 3449TIP3    H231839   4.441   3.386   4.459  0.6183 -0.0112 -0.9943
 3450TIP3   OH231840   6.182   0.897  12.018  0.5657  0.0004 -0.1228
 3450TIP3    H131841   6.110   0.960  12.014  1.8677  1.5729  0.0383
 3450TIP3    H231842   6.196   0.884  12.112 -1.0576 -2.2338 -0.1215
 3451TIP3   OH231843   3.831   1.573  16.244 -0.1189 -0.3637 -0.2571
 3451TIP3    H131844   3.870   1.517  16.312 -1.8527 -2.4641 -0.8866
 3451TIP3    H231845   3.876   1.547  16.163 -1.7933 -1.8625 -0.7646
 3452TIP3   OH231846   2.026   2.176  10.624  0.1128 -0.1459  0.1388
 3452TIP3    H131847   1.951   2.190  10.566 -0.0895 -0.9254  0.2001
 3452TIP3    H231848   1.989   2.143  10.705  0.5641 -1.3703 -0.1209
 3453TIP3   OH231849   2.215   1.303  13.513 -0.0738 -0.7870 -0.8602
 3453TIP3    H131850   2.267   1.349  13.579  0.5569 -0.2360 -1.7279
 3453TIP3    H231851   2.141   1.267  13.562 -0.2830  0.6598 -0.0423
 3454TIP3   OH231852   1.463   4.620  15.630  0.1138  0.4756 -0.3189
 3454TIP3    H131853   1.538   4.592  15.578  0.2536 -0.1882  0.2248
 3454TIP3    H231854   1.443   4.709  15.599  1.4900  0.8890 -0.0604
 3455TIP3   OH231855   0.708   3.171   1.591  0.5878  0.5264  0.0371
 3455TIP3    H131856   0.766   3.100   1.563  0.6695  0.3273  0.6916
 3455TIP3    H231857   0.625   3.152   1.548  1.2969  1.4390 -1.8324
 3456TIP3   OH231858   0.360   6.242  12.888  0.1409 -0.3578  0.0570
 3456TIP3    H131859   0.322   6.276  12.969  0.1009 -0.3980  0.0556
 3456TIP3    H231860   0.425   6.308  12.863  2.3224 -1.7501  1.7321
 3457TIP3   OH231861   6.117   6.708   5.382  0.0609  0.2701  0.0824
 3457TIP3    H131862   6.104   6.732   5.474 -0.0143  2.0011 -0.3418
 3457TIP3    H231863   6.207   6.678   5.378  0.3655  1.0655  0.5746
 3458TIP3   OH231864   6.347   1.191  15.712  0.4968 -0.0181 -0.0717
 3458TIP3    H131865   6.313   1.264  15.662 -1.3614 -1.5464 -1.1940
 3458TIP3    H231866   6.364   1.123  15.647  0.9270 -1.0303  1.0565
 3459TIP3   OH231867   6.423   3.920   2.501 -0.3239  0.0560 -0.4733
 3459TIP3    H131868   6.491   3.981   2.471 -0.1796 -0.4847 -1.2502
 3459TIP3    H231869   6.471   3.844   2.533 -0.4491  0.7401  1.4861
 3460TIP3   OH231870   4.353   1.234  11.454  0.3282  0.0705  0.0680
 3460TIP3    H131871   4.299   1.312  11.467  0.4090  0.3215 -1.0777
 3460TIP3    H231872   4.443   1.266  11.455  0.4111 -0.1687  0.6860
 3461TIP3   OH231873   2.593   6.789   2.452 -0.0241 -0.2000 -0.0081
 3461TIP3    H131874   2.506   6.777   2.413 -0.7220  0.1058  1.3731
 3461TIP3    H231875   2.576   6.836   2.534  0.9927 -3.2329  2.1399
 3462TIP3   OH231876   1.207   6.038   6.285  0.1423 -0.1343 -0.3130
 3462TIP3    H131877   1.140   6.105   6.291 -0.7401 -1.1040  3.2963
 3462TIP3    H231878   1.159   5.956   6.269  0.7266 -0.5015 -0.2331
 3463TIP3   OH231879   1.070   0.872  11.463  0.4757 -0.2667 -0.1752
 3463TIP3    H131880   1.154   0.877  11.510  0.8384  0.4990 -0.8591
 3463TIP3    H231881   1.014   0.934  11.509  0.3373 -0.6535  0.1801
 3464TIP3   OH231882   0.777   0.172   0.194  0.1096 -0.1659 -0.1289
 3464TIP3    H131883   0.765   0.244   0.131 -0.1170  0.1771  0.3043
 3464TIP3    H231884   0.748   0.094   0.146 -1.6055  0.3180  0.0882
 3465TIP3   OH231885   4.268   3.102   4.458 -0.4142 -0.4575  0.3955
 3465TIP3    H131886   4.247   3.037   4.391  0.0544  0.4881 -0.6975
 3465TIP3    H231887   4.194   3.162   4.458 -0.9914 -1.1350  1.6198
 3466TIP3   OH231888   0.677   1.394  10.411  0.1097  0.0344  0.1258
 3466TIP3    H131889   0.585   1.413  10.430  0.6490  1.1494  1.8701
 3466TIP3    H231890   0.704   1.333  10.480  0.1229 -2.1870 -1.7242
 3467TIP3   OH231891   5.365   1.210   3.685 -0.7085 -0.2350  0.0157
 3467TIP3    H131892   5.395   1.214   3.776  0.0176 -0.0709 -0.2217
 3467TIP3    H231893   5.341   1.300   3.663 -0.5211 -0.2032 -0.0665
 3468TIP3   OH231894   1.514   0.662  13.308 -0.3579  0.2772  0.0908
 3468TIP3    H131895   1.538   0.571  13.291 -2.2046 -0.2552  0.2009
 3468TIP3    H231896   1.445   0.658  13.374  1.3861  1.9311  2.1663
 3469TIP3   OH231897   0.975   1.079  13.613  0.3497 -0.6122  0.1218
 3469TIP3    H131898   0.940   1.158  13.572  2.1082  0.4458  0.5119
 3469TIP3    H231899   1.004   1.025  13.540  0.6189 -0.1489 -0.1210
 3470TIP3   OH231900   6.323   4.639   3.884 -0.2704  0.0522  0.1342
 3470TIP3    H131901   6.383   4.690   3.830  1.9383 -0.5155  1.8962
 3470TIP3    H231902   6.274   4.585   3.822  3.0124 -1.4898 -1.3021
 3471TIP3   OH231903   1.153   5.402   5.461  0.3314 -0.3914  0.1744
 3471TIP3    H131904   1.152   5.326   5.519 -1.1200  0.7405  1.7526
 3471TIP3    H231905   1.140   5.366   5.374 -2.3148 -1.8758  1.0681
 3472TIP3   OH231906   4.930   1.875   1.727 -0.0269  0.1428 -0.4453
 3472TIP3    H131907   4.885   1.912   1.803  1.7865 -2.1062  1.9027
 3472TIP3    H231908   4.989   1.944   1.698 -2.5283  1.9549 -1.5464
 3473TIP3   OH231909   5.941   1.986   1.963  0.2915 -0.8885  0.0735
 3473TIP3    H131910   6.028   2.025   1.975  0.9988 -2.7787  1.5781
 3473TIP3    H231911   5.880   2.053   1.994  1.0997  0.7399 -1.6195
 3474TIP3   OH231912   3.788   3.045   5.141 -0.0218  0.4358  0.8748
 3474TIP3    H131913   3.745   2.959   5.143  0.2974  0.1312 -1.6587
 3474TIP3    H231914   3.720   3.105   5.112  0.2254  0.6828  0.8026
 3475TIP3   OH231915   0.351   4.840   1.714 -0.2346 -0.0996  0.3254
 3475TIP3    H131916   0.336   4.781   1.641 -0.1422  1.3069 -0.8739
 3475TIP3    H231917   0.369   4.925   1.674  0.7854  0.5126  1.9520
 3476TIP3   OH231918   4.677   2.057  13.214  0.2731 -0.2461  0.0922
 3476TIP3    H131919   4.601   2.043  13.270 -0.6011  1.1149 -0.6943
 3476TIP3    H231920   4.681   2.152  13.202  1.2315 -0.4104 -1.0598
 3477TIP3   OH231921   1.891   0.733  16.741  0.7762  0.2476 -0.4637
 3477TIP3    H131922   1.902   0.778  16.824  0.9527 -1.1690  0.3250
 3477TIP3    H231923   1.941   0.652  16.751  1.5040  0.4255 -2.2688
 3478TIP3   OH231924   3.763   0.659  15.334 -0.1573  0.3443 -0.1706
 3478TIP3    H131925   3.711   0.607  15.273 -1.2454 -0.4924  1.3882
 3478TIP3    H231926   3.706   0.732  15.359  0.4108  0.8825 -0.4088
 3479TIP3   OH231927   3.936   5.650  13.368 -0.0046  0.3935  0.3241
 3479TIP3    H131928   3.881   5.589  13.417 -1.1595  0.5117 -0.7764
 3479TIP3    H231929   4.009   5.668  13.426  0.9878 -2.8927  0.3341
 3480TIP3   OH231930   4.704   2.063   5.097 -0.1293  0.4608  0.6026
 3480TIP3    H131931   4.639   2.036   5.031  0.3814  1.4746 -0.3593
 3480TIP3    H231932   4.654   2.073   5.177 -0.6715 -1.4065  0.5589
 3481TIP3   OH231933   4.996   5.365   5.038  0.1361 -0.2887 -0.4222
 3481TIP3    H131934   5.056   5.431   5.003 -0.1632 -0.0717 -0.5276
 3481TIP3    H231935   5.047   5.284   5.037  1.2977  0.3233  1.8441
 3482TIP3   OH231936   0.441   4.854   5.432 -0.1653  0.1316  0.0541
 3482TIP3    H131937   0.376   4.821   5.495 -0.4605  1.4949  0.4982
 3482TIP3    H231938   0.449   4.784   5.367 -1.6448 -0.3153  0.3138
 3483TIP3   OH231939   5.210   0.829   2.854  0.6711 -0.2818  0.6003
 3483TIP3    H131940   5.262   0.815   2.933  0.1106 -1.2535  0.8128
 3483TIP3    H231941   5.221   0.749   2.803  0.8502  0.2479 -0.2149
 3484TIP3   OH231942   6.189   4.877   4.338 -0.5496 -0.1558  0.1691
 3484TIP3    H131943   6.281   4.892   4.315  0.0407 -1.4365  1.4795
 3484TIP3    H231944   6.178   4.922   4.422 -1.1758  0.1077 -0.0460
 3485TIP3   OH231945   2.919   3.426  11.315 -0.1213  0.3501  0.3470
 3485TIP3    H131946   2.864   3.502  11.295  1.4012  1.3030 -0.4443
 3485TIP3    H231947   2.916   3.419  11.410 -0.1735  1.5046  0.4522
 3486TIP3   OH231948   0.671   6.573   4.071  0.0778 -0.1035 -0.2679
 3486TIP3    H131949   0.722   6.541   4.145  2.6043  1.1886 -1.3209
 3486TIP3    H231950   0.699   6.664   4.060 -3.1325  0.9850 -0.4606
 3487TIP3   OH231951   2.534   6.569  17.139 -0.1721  0.5050  0.3982
 3487TIP3    H131952   2.490   6.597  17.220 -0.6460 -2.5124  1.2888
 3487TIP3    H231953   2.468   6.582  17.071 -1.5701 -1.3565  1.2975
 3488TIP3   OH231954   5.380   0.060   1.123 -0.3555  0.1569  0.3451
 3488TIP3    H131955   5.429   0.138   1.096 -1.4010  0.4041 -0.9389
 3488TIP3    H231956   5.445   0.003   1.163  0.7298  1.0147 -0.1551
 3489TIP3   OH231957   3.772   1.938  14.949 -0.1981 -0.3836 -0.3193
 3489TIP3    H131958   3.802   1.985  15.027  0.4686 -1.1527 -0.0956
 3489TIP3    H231959   3.801   1.992  14.876 -0.4130  0.1063 -0.0469
 3490TIP3   OH231960   4.609   6.608  14.630 -0.3257  0.5112  0.5367
 3490TIP3    H131961   4.645   6.519  14.635  1.0936  0.8066 -2.2969
 3490TIP3    H231962   4.672   6.656  14.577 -2.6763  2.3557 -0.7579
 3491TIP3   OH231963   5.868   1.364  10.792 -0.0090 -0.3880  0.4554
 3491TIP3    H131964   5.783   1.324  10.774 -0.7957  1.1763  0.5179
 3491TIP3    H231965   5.885   1.420  10.716  0.4575  0.1068  0.9125
 3492TIP3   OH231966   4.551   5.662   6.671 -0.3020  0.2008  0.1953
 3492TIP3    H131967   4.606   5.601   6.622  0.3184  2.0043 -1.5039
 3492TIP3    H231968   4.610   5.698   6.738 -0.8824 -1.5518  1.7153
 3493TIP3   OH231969   4.285   4.221  16.337  0.6268 -0.0993 -0.4131
 3493TIP3    H131970   4.239   4.209  16.254  1.2540 -0.4211 -0.7215
 3493TIP3    H231971   4.375   4.193  16.319  0.5025 -1.3135  0.6813
 3494TIP3   OH231972   5.272   0.164   2.525 -0.0455  0.1280  0.1452
 3494TIP3    H131973   5.237   0.201   2.606 -0.5109  1.1337 -0.5016
 3494TIP3    H231974   5.294   0.074   2.548  0.6562  0.6384  1.6280
 3495TIP3   OH231975   4.519   0.743   1.638  0.1509 -0.2025  0.1031
 3495TIP3    H131976   4.583   0.791   1.586  0.0255  1.3293  1.2938
 3495TIP3    H231977   4.436   0.786   1.618  0.1791  0.7585  1.9391
 3496TIP3   OH231978   1.255   1.379  15.560 -0.4378  0.3965 -0.0342
 3496TIP3    H131979   1.310   1.338  15.626 -0.4379 -1.6961 -1.2351
 3496TIP3    H231980   1.170   1.390  15.603  0.0528  0.7859  0.8637
 3497TIP3   OH231981   6.061   0.853  17.047  0.1730  0.3067 -0.6784
 3497TIP3    H131982   6.069   0.767  17.090 -2.7621  0.0916 -0.3544
 3497TIP3    H231983   6.136   0.857  16.988  1.7432 -1.4246  1.0477
 3498TIP3   OH231984   4.371   6.095   5.037  0.2973 -0.1067  0.2833
 3498TIP3    H131985   4.412   6.075   5.121 -1.1862 -1.1529  0.7942
 3498TIP3    H231986   4.343   6.011   5.003 -0.5770  0.4833 -0.5033
 3499TIP3   OH231987   4.625   4.406  11.479 -0.2887 -0.6714 -0.0457
 3499TIP3    H131988   4.713   4.389  11.445 -0.2087 -0.4225  0.0325
 3499TIP3    H231989   4.602   4.493  11.445  0.6211  0.5149  2.1592
 3500TIP3   OH231990   0.886   0.516  15.168  0.1605  0.5694  0.2308
 3500TIP3    H131991   0.832   0.555  15.237  1.3379  0.5071  1.2079
 3500TIP3    H231992   0.895   0.424  15.194  1.2972  0.7332  0.4317
 3501TIP3   OH231993   4.430   0.635   5.927 -0.1968 -0.2975 -0.9663
 3501TIP3    H131994   4.390   0.653   6.012 -0.9697 -1.8982 -0.9553
 3501TIP3    H231995   4.518   0.673   5.933 -1.9454  4.4670 -1.4436
 3502TIP3   OH231996   1.102   2.183  12.479  0.5144  0.1417 -0.1012
 3502TIP3    H131997   1.164   2.128  12.431 -0.6288 -1.2775 -0.0308
 3502TIP3    H231998   1.030   2.124  12.501  0.5112  0.9922  2.4672
 3503TIP3   OH231999   1.033   4.599  16.304  0.2075 -0.3764 -0.3658
 3503TIP3    H132000   1.057   4.541  16.376  0.6592 -1.8823 -1.6877
 3503TIP3    H232001   1.087   4.570  16.230 -0.7659  0.6451 -1.5205
 3504TIP3   OH232002   3.550   2.508   3.020 -0.0970  0.2781  0.0889
 3504TIP3    H132003   3.557   2.470   3.107  1.1965  0.9726  0.3129
 3504TIP3    H232004   3.637   2.494   2.981 -0.4427  0.6048 -0.8203
 3505TIP3   OH232005   3.127   5.487   3.368 -0.6060 -0.5650  0.2514
 3505TIP3    H132006   3.111   5.472   3.275  1.8238 -1.2812 -0.1246
 3505TIP3    H232007   3.127   5.582   3.378 -0.3648 -0.4685 -0.6062
 3506TIP3   OH232008   6.152   5.046   5.270  0.0856 -0.3325  0.2958
 3506TIP3    H132009   6.105   5.128   5.253  0.7852 -0.0304 -0.2642
 3506TIP3    H232010   6.179   5.051   5.361 -0.7553 -0.4031  0.5531
 3507TIP3   OH232011   5.663   2.229   1.319 -0.1861 -0.4038  0.8434
 3507TIP3    H132012   5.670   2.275   1.403 -2.0676  2.0406 -0.2039
 3507TIP3    H232013   5.575   2.194   1.319 -0.5332  0.4096 -0.4317
 3508TIP3   OH232014   2.225   5.692   3.505 -0.1598 -0.5362  0.4907
 3508TIP3    H132015   2.263   5.756   3.565  0.6101 -1.1317  0.6504
 3508TIP3    H232016   2.183   5.627   3.563  1.9224 -1.9597  0.4958
 3509TIP3   OH232017   3.296   1.067  15.469  0.1698 -0.0443  0.1923
 3509TIP3    H132018   3.289   0.991  15.411 -0.7267 -0.9584  1.4353
 3509TIP3    H232019   3.389   1.090  15.467 -0.0937  1.1751 -3.0555
 3510TIP3   OH232020   5.253   5.460   5.170  0.1268  0.0586  0.3291
 3510TIP3    H132021   5.261   5.365   5.158  0.1724 -0.1961  2.0920
 3510TIP3    H232022   5.240   5.494   5.082  2.3854 -1.3475 -0.6517
 3511TIP3   OH232023   2.260   2.282   1.221 -0.3807 -0.3213 -0.2783
 3511TIP3    H132024   2.308   2.237   1.291  0.2434  1.7876  0.7418
 3511TIP3    H232025   2.328   2.327   1.171 -1.1209  1.9037  0.5856
 3512TIP3   OH232026   2.169   1.955   1.325 -0.2407 -0.4095  0.4358
 3512TIP3    H132027   2.127   1.961   1.410  1.0049 -0.6230  1.0873
 3512TIP3    H232028   2.225   1.878   1.330  0.9986  0.4287 -0.0333
 3513TIP3   OH232029   4.603   5.800  14.160 -0.0547  0.6480  0.8048
 3513TIP3    H132030   4.695   5.824  14.173  0.5719 -1.6028  0.8486
 3513TIP3    H232031   4.582   5.742  14.233 -0.4612 -1.5839 -0.9590
 3514TIP3   OH232032   1.225   1.715   4.534 -0.2336 -0.1706  0.2547
 3514TIP3    H132033   1.203   1.655   4.463 -2.0906  0.0842  0.5673
 3514TIP3    H232034   1.219   1.661   4.613  1.8894 -0.4717  0.2527
 3515TIP3   OH232035   2.281   5.326   6.303 -0.3655  0.1181  0.2100
 3515TIP3    H132036   2.332   5.349   6.381  0.9701  0.6480 -0.7827
 3515TIP3    H232037   2.235   5.407   6.280  0.3556  0.3757 -0.3560
 3516TIP3   OH232038   4.612   0.866   3.381  0.0973 -0.4750  0.4144
 3516TIP3    H132039   4.682   0.891   3.321  0.8066  0.9959  1.7604
 3516TIP3    H232040   4.539   0.842   3.324  0.7205  0.8697 -1.0402
 3517TIP3   OH232041   1.473   2.305   4.967  0.0957  0.3024  0.2583
 3517TIP3    H132042   1.476   2.218   5.006 -0.1352 -0.2749 -0.9724
 3517TIP3    H232043   1.464   2.290   4.873 -0.1762  1.6543  0.0363
 3518TIP3   OH232044   4.240   3.972   2.072 -0.2624  0.0146  0.0149
 3518TIP3    H132045   4.260   3.960   1.980  0.6386 -1.3871  0.3528
 3518TIP3    H232046   4.180   4.047   2.075 -0.3898  0.0118 -1.6979
 3519TIP3   OH232047   5.539   3.115  12.775  0.2372 -0.3836  0.2440
 3519TIP3    H132048   5.561   3.068  12.856  1.3778 -0.1361  0.0860
 3519TIP3    H232049   5.618   3.163  12.753 -0.2582  0.0070 -0.7160
 3520TIP3   OH232050   3.391   4.313   2.758  0.2206 -0.1364 -0.2533
 3520TIP3    H132051   3.346   4.370   2.696  0.9805  0.1123 -0.5847
 3520TIP3    H232052   3.324   4.290   2.822 -0.7219 -0.8522 -1.4582
 3521TIP3   OH232053   2.699   2.399  13.500 -0.4753  0.1970  0.2994
 3521TIP3    H132054   2.676   2.342  13.573 -0.0332  1.9618  1.9004
 3521TIP3    H232055   2.678   2.488  13.530  2.3016  1.2731 -0.5765
 3522TIP3   OH232056   2.285   3.935  12.588  0.0648 -0.8373 -0.2890
 3522TIP3    H132057   2.262   4.011  12.535  0.4209 -0.4656  0.0779
 3522TIP3    H232058   2.380   3.943  12.602 -0.2417 -0.0291  1.7325
 3523TIP3   OH232059   4.969   4.992   4.470  0.1749  0.0053 -0.0181
 3523TIP3    H132060   4.922   4.955   4.544 -0.2439 -1.1967 -0.8577
 3523TIP3    H232061   5.057   5.011   4.504 -0.6076  1.3887  1.3079
 3524TIP3   OH232062   1.884   3.008  11.532  0.0269 -0.1725 -0.1038
 3524TIP3    H132063   1.909   3.051  11.614 -0.0460  0.1534 -0.2495
 3524TIP3    H232064   1.804   3.054  11.505 -0.6420 -1.0954  0.2780
 3525TIP3   OH232065   0.290   5.188  11.586 -0.1811  0.3835  0.7759
 3525TIP3    H132066   0.320   5.179  11.495 -0.0492 -0.9071  0.9249
 3525TIP3    H232067   0.226   5.259  11.583 -0.6456 -0.0544 -0.4456
 3526TIP3   OH232068   3.523   6.213  12.843  0.4859  0.4274 -0.1596
 3526TIP3    H132069   3.541   6.294  12.795  1.3433 -0.6324 -1.7159
 3526TIP3    H232070   3.433   6.224  12.875  0.6715  2.0837 -0.1275
 3527TIP3   OH232071   3.997   0.899   0.060  0.3566  0.0221  0.2742
 3527TIP3    H132072   3.975   0.810   0.032  0.1203 -0.8064  2.8254
 3527TIP3    H232073   4.045   0.937  -0.013 -0.2601 -1.9157 -1.1918
 3528TIP3   OH232074   2.020   4.012   2.966 -0.0444 -0.1375 -0.2608
 3528TIP3    H132075   1.999   3.967   2.885  0.0828  0.2843 -0.5330
 3528TIP3    H232076   2.028   4.104   2.941  1.4870 -0.1949 -0.0637
 3529TIP3   OH232077   3.412   3.077   3.688 -0.2708  0.4231 -0.4406
 3529TIP3    H132078   3.435   3.038   3.603 -1.7827 -0.4150 -0.5089
 3529TIP3    H232079   3.413   3.003   3.749 -0.5820  0.7591 -0.0257
 3530TIP3   OH232080   4.887   4.867   6.005 -0.2912  0.3219 -0.6654
 3530TIP3    H132081   4.941   4.793   6.033 -1.4308 -0.2096  0.2564
 3530TIP3    H232082   4.841   4.894   6.085 -1.3047  0.8014 -1.3854
 3531TIP3   OH232083   5.187   3.683  15.882 -0.2191  0.1247  0.1947
 3531TIP3    H132084   5.114   3.742  15.899  1.2842  2.4740 -0.9131
 3531TIP3    H232085   5.234   3.723  15.809  2.6031 -0.8260  1.3419
 3532TIP3   OH232086   6.154   2.430   5.227 -0.0408 -0.4265 -0.3371
 3532TIP3    H132087   6.165   2.367   5.298 -1.8726 -1.1274 -0.6354
 3532TIP3    H232088   6.151   2.515   5.271 -0.7744 -0.8210  0.3892
 3533TIP3   OH232089   1.484   3.948   3.990  0.2316 -0.5307  0.2342
 3533TIP3    H132090   1.494   4.036   3.952  1.4094 -0.7041  0.1043
 3533TIP3    H232091   1.390   3.940   4.006 -0.0313  0.3627 -0.6986
 3534TIP3   OH232092   1.742   5.978   5.407 -0.5823  0.1451 -0.0074
 3534TIP3    H132093   1.768   6.057   5.454 -1.5127  0.4371  0.0379
 3534TIP3    H232094   1.663   5.948   5.452  0.7936 -1.9133  1.1926
 3535TIP3   OH232095   0.575   1.354  15.969  0.6054  0.1094  0.5297
 3535TIP3    H132096   0.572   1.264  16.001  2.8841  0.0978  0.8735
 3535TIP3    H232097   0.483   1.382  15.967 -0.0278 -1.6588  2.0010
 3536TIP3   OH232098   0.308   0.855   3.038 -0.6944  0.2164 -0.0177
 3536TIP3    H132099   0.332   0.916   2.968  0.9593 -1.9470 -1.4595
 3536TIP3    H232100   0.259   0.786   2.994  0.1502 -1.0633  0.9867
 3537TIP3   OH232101   4.766   6.841  13.534 -0.5235  0.3359 -0.1536
 3537TIP3    H132102   4.810   6.881  13.609 -0.1484  1.0085 -0.7232
 3537TIP3    H232103   4.675   6.832  13.562  0.1877 -2.5831  1.6680
 3538TIP3   OH232104   0.388   5.839   4.950  0.1482 -0.1030 -0.8200
 3538TIP3    H132105   0.343   5.755   4.941  0.0752 -0.2296  0.5376
 3538TIP3    H232106   0.477   5.822   4.920  0.1888 -0.7287 -0.3664
 3539TIP3   OH232107   2.452   1.853  12.174 -0.3366  0.3744  0.6756
 3539TIP3    H132108   2.480   1.885  12.088 -0.6695  1.7496  1.0677
 3539TIP3    H232109   2.380   1.793  12.154  0.6726 -0.6351 -0.1041
 3540TIP3   OH232110   0.816   6.457   6.400 -0.6217  0.0716 -0.2783
 3540TIP3    H132111   0.742   6.512   6.426  0.0710 -0.4739  3.3428
 3540TIP3    H232112   0.882   6.519   6.369 -2.4548  0.5565 -3.8089
 3541TIP3   OH232113   1.580   1.483  14.285  0.0863 -0.4440 -0.4922
 3541TIP3    H132114   1.565   1.398  14.326 -0.3254 -0.2552 -0.2464
 3541TIP3    H232115   1.622   1.462  14.201  1.1429 -0.8205  0.1100
 3542TIP3   OH232116   0.871   4.992  15.344 -0.1942 -0.0270 -0.0441
 3542TIP3    H132117   0.806   5.059  15.321 -0.0196  0.1308 -0.0847
 3542TIP3    H232118   0.901   5.018  15.432 -0.2096 -0.1147 -0.0133
 3543TIP3   OH232119   2.575   3.547  16.012 -0.1802 -0.1640  0.2230
 3543TIP3    H132120   2.619   3.535  15.928  0.1138  1.4238  0.1261
 3543TIP3    H232121   2.633   3.505  16.075  0.9273  0.8696 -0.0586
 3544TIP3   OH232122   5.882   5.472   1.624  0.2850  0.4225  0.2327
 3544TIP3    H132123   5.909   5.427   1.544  0.5422 -0.5243  0.8438
 3544TIP3    H232124   5.919   5.560   1.616 -2.9097  1.7267 -2.4988
 3545TIP3   OH232125   4.337   6.158  14.609  0.0019 -0.6151 -0.5069
 3545TIP3    H132126   4.357   6.251  14.622  0.4961 -0.7695 -0.1240
 3545TIP3    H232127   4.339   6.146  14.515  1.2844 -0.5162 -0.5137
 3546TIP3   OH232128   3.366   6.659   4.588 -0.6528  0.4592  0.8278
 3546TIP3    H132129   3.279   6.683   4.553  0.2763  1.0429 -1.2492
 3546TIP3    H232130   3.359   6.566   4.607 -0.6765 -0.5052 -3.0797
 3547TIP3   OH232131   0.577   2.817  14.375 -0.1559 -0.5233 -0.0123
 3547TIP3    H132132   0.618   2.732  14.380 -0.2302 -0.5415  0.2813
 3547TIP3    H232133   0.592   2.857  14.461  1.8478  0.6806 -0.8459
 3548TIP3   OH232134   1.404   0.711   4.398 -0.0526  0.2169  0.0249
 3548TIP3    H132135   1.440   0.701   4.486 -3.2996  0.9606  1.5994
 3548TIP3    H232136   1.310   0.694   4.408 -0.6113  0.5830 -3.2689
 3549TIP3   OH232137   6.415   1.082   3.796  0.2443  0.3509 -0.1666
 3549TIP3    H132138   6.433   1.174   3.818  1.0402 -0.4269  2.8173
 3549TIP3    H232139   6.444   1.074   3.705  0.1182  3.0416 -0.5486
 3550TIP3   OH232140   2.258   1.100  17.098  0.4793  0.2073  0.8494
 3550TIP3    H132141   2.269   1.024  17.154  0.4378  0.6067  1.4075
 3550TIP3    H232142   2.334   1.155  17.116  1.3687 -0.4237 -0.7369
 3551TIP3   OH232143   2.209   6.752  14.376 -0.4398  0.3699  0.9007
 3551TIP3    H132144   2.244   6.828  14.422  3.2206 -0.2973 -0.4599
 3551TIP3    H232145   2.247   6.757  14.288 -0.6559 -2.6193  0.5161
 3552TIP3   OH232146   3.350   4.976  17.108  0.1920 -0.3683 -0.0403
 3552TIP3    H132147   3.292   4.911  17.149 -0.2385 -0.3017 -0.5399
 3552TIP3    H232148   3.299   5.056  17.107  0.2800 -0.3152 -0.5125
 3553TIP3   OH232149   1.868   3.936  11.864  0.5639  0.0717  0.1049
 3553TIP3    H132150   1.839   3.978  11.783  0.9124 -0.5221 -0.3334
 3553TIP3    H232151   1.899   3.850  11.837 -1.0042 -0.8636  1.1215
 3554TIP3   OH232152   3.651   2.983   3.037  0.4150 -0.3647  0.4359
 3554TIP3    H132153   3.559   3.009   3.046  0.3986  1.0288 -2.4734
 3554TIP3    H232154   3.652   2.889   3.055 -1.5886 -0.3964  0.5561
 3555TIP3   OH232155   2.620   0.277  11.704  0.1610 -0.3570  0.3408
 3555TIP3    H132156   2.693   0.230  11.744 -0.5683 -1.2720  0.6459
 3555TIP3    H232157   2.571   0.209  11.657 -0.6536  0.1792  0.3882
 3556TIP3   OH232158   4.581   3.856  12.618  0.5154  0.0046 -0.0977
 3556TIP3    H132159   4.637   3.921  12.659 -0.3021  1.3998 -1.1092
 3556TIP3    H232160   4.495   3.897  12.615 -0.0984 -1.2590 -0.4667
 3557TIP3   OH232161   5.797   4.076   1.952  0.1638 -0.3759 -0.8100
 3557TIP3    H132162   5.851   4.147   1.987  0.8197 -0.3865 -1.7427
 3557TIP3    H232163   5.804   4.086   1.857 -1.7062 -0.2260 -0.9639
 3558TIP3   OH232164   0.836   5.896  13.106 -0.2604  0.5629 -0.1802
 3558TIP3    H132165   0.810   5.986  13.126  0.0077  0.7909 -0.8514
 3558TIP3    H232166   0.842   5.893  13.011 -0.6332 -0.2713 -0.1836
 3559TIP3   OH232167   5.661   0.738  10.658  0.0812  0.0144  0.0990
 3559TIP3    H132168   5.704   0.741  10.572  0.1396  1.5073  0.1524
 3559TIP3    H232169   5.717   0.680  10.711  1.4014  0.9975 -0.1771
 3560TIP3   OH232170   0.655   2.496  16.282  0.1915 -0.0456 -0.6976
 3560TIP3    H132171   0.686   2.420  16.332 -2.2883 -0.5673  0.1919
 3560TIP3    H232172   0.699   2.570  16.322  2.2058 -0.9113 -1.1812
 3561TIP3   OH232173   2.897   2.484   2.788 -0.1460  0.2915 -0.4470
 3561TIP3    H132174   2.828   2.423   2.762 -0.6199 -0.0931  1.5674
 3561TIP3    H232175   2.854   2.545   2.848  0.9566  0.8868 -0.2388
 3562TIP3   OH232176   4.951   5.633   0.611 -0.4510  0.3339  0.3840
 3562TIP3    H132177   5.005   5.554   0.615  0.7053  1.1204  2.5889
 3562TIP3    H232178   4.889   5.623   0.684 -2.1123  0.2863 -0.9781
 3563TIP3   OH232179   1.367   4.105  13.392  0.1834  0.4939  0.1970
 3563TIP3    H132180   1.395   4.110  13.300  1.0328 -0.0564  0.4222
 3563TIP3    H232181   1.274   4.083  13.387  0.4636 -0.5887 -0.5297
 3564TIP3   OH232182   6.318   4.149   3.974  0.2898 -0.3610 -0.0642
 3564TIP3    H132183   6.359   4.124   4.057 -2.2989  0.1241  1.5082
 3564TIP3    H232184   6.240   4.093   3.968 -0.9091  1.2770 -0.8688
 3565TIP3   OH232185   4.652   5.173  14.225  0.0723 -0.3606 -0.0778
 3565TIP3    H132186   4.558   5.166  14.244 -0.0305  1.1516  0.0478
 3565TIP3    H232187   4.689   5.090  14.256 -1.5554 -2.0884 -2.3110
 3566TIP3   OH232188   4.452   5.363  15.512 -0.3748  0.0563  0.8595
 3566TIP3    H132189   4.436   5.425  15.441 -3.9469 -1.3777  0.1777
 3566TIP3    H232190   4.542   5.333  15.498 -0.2246  1.4000 -1.7534
 3567TIP3   OH232191   0.415   5.889   2.983  0.5645  0.7178 -0.3093
 3567TIP3    H132192   0.467   5.840   2.919  1.8547  2.4258 -0.6522
 3567TIP3    H232193   0.450   5.979   2.979 -0.3134  1.2205  1.7218
 3568TIP3   OH232194   0.900   4.630   1.675  0.0709 -0.0675  0.2579
 3568TIP3    H132195   0.857   4.683   1.607  0.3761 -1.1520 -0.8085
 3568TIP3    H232196   0.843   4.640   1.751 -0.8017  0.4196 -0.4240
 3569TIP3   OH232197   3.530   4.998   2.799  0.3441 -0.7577  0.4987
 3569TIP3    H132198   3.543   4.912   2.838 -0.1693 -0.7250  0.7459
 3569TIP3    H232199   3.574   4.993   2.714 -2.0913 -2.2444 -0.7805
 3570TIP3   OH232200   5.110   3.980   4.628  0.3009  0.3256 -0.4464
 3570TIP3    H132201   5.143   3.928   4.702  1.0020 -0.6666 -1.4147
 3570TIP3    H232202   5.052   4.045   4.668  1.8668  0.8243  1.1184
 3571TIP3   OH232203   5.579   0.387  15.441 -0.1596 -0.6701 -0.3781
 3571TIP3    H132204   5.518   0.405  15.512  0.7906 -0.3277  0.3725
 3571TIP3    H232205   5.527   0.338  15.377 -1.0310 -1.0071  0.5524
 3572TIP3   OH232206   6.827   4.228  16.968 -0.5082 -0.7427 -0.1840
 3572TIP3    H132207   6.780   4.311  16.980  1.2263  0.3438 -0.4902
 3572TIP3    H232208   6.807   4.202  16.879 -0.2634 -0.1013 -0.4356
 3573TIP3   OH232209   5.723   0.350   4.488  0.1936  0.4056 -0.5384
 3573TIP3    H132210   5.663   0.416   4.524  0.1311  0.5498 -0.8966
 3573TIP3    H232211   5.761   0.307   4.564 -0.8263 -0.1032 -0.2987
 3574TIP3   OH232212   2.921   3.448   0.024 -0.0681 -0.2824 -0.1758
 3574TIP3    H132213   2.902   3.361   0.059 -1.6665  1.0881  2.7257
 3574TIP3    H232214   2.839   3.476  -0.016  0.2818  0.1171 -0.6302
 3575TIP3   OH232215   1.603   2.434   2.591 -0.8203 -0.1177  0.0961
 3575TIP3    H132216   1.669   2.387   2.642 -1.0474  0.0473  0.5400
 3575TIP3    H232217   1.606   2.392   2.505 -1.2479 -1.1777  0.5769
 3576TIP3   OH232218   2.552   2.001   2.585  0.2340 -0.1816  0.4655
 3576TIP3    H132219   2.616   1.993   2.656 -0.0075 -2.2685  0.5127
 3576TIP3    H232220   2.535   1.911   2.558  0.9598  0.5565 -2.8608
 3577TIP3   OH232221   4.364   4.937  16.067 -0.2799  0.2090  0.1354
 3577TIP3    H132222   4.385   4.971  16.154  2.6899 -3.7612  1.2292
 3577TIP3    H232223   4.290   4.878  16.081  0.1873 -0.4203 -0.0082
 3578TIP3   OH232224   3.671   4.867  16.607  0.3673 -0.0121  0.0949
 3578TIP3    H132225   3.586   4.900  16.638 -0.0357 -0.6108 -0.3600
 3578TIP3    H232226   3.722   4.855  16.686  0.0671  0.4627  0.3666
 3579TIP3   OH232227   0.024   4.085  16.591  0.1255 -0.3379  0.3383
 3579TIP3    H132228   0.109   4.041  16.586 -0.3853 -1.2992 -0.0468
 3579TIP3    H232229  -0.029   4.028  16.646 -0.6760 -0.4403 -0.5268
 3580TIP3   OH232230   2.247   3.738  12.804 -0.3269  0.8137 -0.1081
 3580TIP3    H132231   2.283   3.805  12.744  0.6614  1.8080  1.5282
 3580TIP3    H232232   2.196   3.788  12.867  0.2550  0.0124  1.0216
 3581TIP3   OH232233   1.553   0.362   5.573  0.9167  0.2727  0.9620
 3581TIP3    H132234   1.464   0.328   5.586  0.9786 -0.1114  0.4026
 3581TIP3    H232235   1.595   0.350   5.659  0.1979  1.1795  1.4533
 3582TIP3   OH232236   2.503   6.448   3.738 -0.5992 -0.0379  0.6535
 3582TIP3    H132237   2.517   6.354   3.745 -2.1200 -0.5283 -1.8534
 3582TIP3    H232238   2.500   6.465   3.644  0.3409  2.6528  1.0346
 3583TIP3   OH232239   3.581   3.469   2.979 -0.4449  0.4580  0.0719
 3583TIP3    H132240   3.663   3.423   2.998 -0.3606  0.4077 -0.4201
 3583TIP3    H232241   3.522   3.441   3.049  0.0566  0.7643  0.6358
 3584TIP3   OH232242   4.900   3.839  12.860 -0.2012  0.1952  0.1730
 3584TIP3    H132243   4.911   3.913  12.800  2.1722  0.3147  0.6514
 3584TIP3    H232244   4.951   3.863  12.937  0.1988 -1.6964  0.5428
 3585TIP3   OH232245   4.112   1.914  16.951 -0.5935 -0.6822  0.0438
 3585TIP3    H132246   4.147   1.910  16.862  2.1542  1.2605  0.9125
 3585TIP3    H232247   4.049   1.986  16.948 -0.6465 -0.7416 -0.3645
 3586TIP3   OH232248   4.709   0.364   5.332 -0.0676 -0.1738  0.5805
 3586TIP3    H132249   4.759   0.420   5.273 -0.1581  0.8114  1.4124
 3586TIP3    H232250   4.673   0.296   5.275  0.7147  0.1422 -0.3211
 3587TIP3   OH232251   2.459   6.833   5.176  0.2719  0.0604 -0.1764
 3587TIP3    H132252   2.541   6.865   5.137  0.3348 -0.9961 -0.9417
 3587TIP3    H232253   2.488   6.781   5.252  0.1793  1.5839  0.9415
 3588TIP3   OH232254   0.441   5.712  15.696  0.1201 -0.4146 -0.3027
 3588TIP3    H132255   0.472   5.768  15.768 -2.4050  0.0586  0.5065
 3588TIP3    H232256   0.452   5.765  15.618  2.1591 -0.6390 -0.2437
 3589TIP3   OH232257   4.288   4.032  11.945 -0.5727  0.0908 -0.5323
 3589TIP3    H132258   4.215   4.087  11.916 -0.4222  0.3036 -0.5128
 3589TIP3    H232259   4.360   4.093  11.957 -0.7386  0.0696  0.6796
 3590TIP3   OH232260   0.033   6.234   1.672  0.1949  0.2742  0.0262
 3590TIP3    H132261   0.010   6.319   1.710 -0.1279  0.0279  0.3913
 3590TIP3    H232262   0.128   6.230   1.679  0.3320  1.1203 -1.1074
 3591TIP3   OH232263   5.267   4.688  16.406  0.5667  0.0287  0.0607
 3591TIP3    H132264   5.190   4.742  16.423  1.3653  0.7602  1.5416
 3591TIP3    H232265   5.304   4.670  16.492  1.6676 -0.8961 -0.5683
 3592TIP3   OH232266   0.215   5.118  14.240  0.2730 -0.3174  0.1532
 3592TIP3    H132267   0.222   5.041  14.185 -2.6103 -1.2240  0.8699
 3592TIP3    H232268   0.199   5.083  14.328 -1.1777  1.0417  0.4791
 3593TIP3   OH232269   6.072   5.713  14.886  0.5201 -0.0296  0.2864
 3593TIP3    H132270   6.070   5.632  14.835 -0.0728  1.2062 -1.7711
 3593TIP3    H232271   6.140   5.698  14.951  0.4873 -2.1406 -0.0986
 3594TIP3   OH232272   5.383   4.039  15.599  0.1795 -0.0387 -0.2021
 3594TIP3    H132273   5.287   4.034  15.595  0.1430  1.2654 -2.1268
 3594TIP3    H232274   5.406   4.107  15.536  2.3681 -0.0073  0.5506
 3595TIP3   OH232275   3.330   4.081   4.746 -0.3556  0.0118  0.3767
 3595TIP3    H132276   3.307   4.160   4.698  1.2387 -0.7383 -1.7936
 3595TIP3    H232277   3.328   4.011   4.680  0.7537 -1.2983  1.6511
 3596TIP3   OH232278   3.744   6.547   2.135 -0.4174  0.5136  0.3629
 3596TIP3    H132279   3.756   6.479   2.201  0.9023  1.9138  1.6384
 3596TIP3    H232280   3.781   6.510   2.055 -2.8359 -1.5588  0.0837
 3597TIP3   OH232281   1.056   3.337  17.042 -0.3988 -0.2209 -0.0673
 3597TIP3    H132282   1.051   3.245  17.069 -0.8848 -1.0404 -2.6638
 3597TIP3    H232283   0.966   3.369  17.050 -0.5059 -0.4042 -0.5397
 3598TIP3   OH232284   4.517   1.295   1.485  0.0403 -0.3038  0.4432
 3598TIP3    H132285   4.428   1.293   1.451  0.2711  2.8478 -0.6632
 3598TIP3    H232286   4.510   1.333   1.572  0.3969  1.5878 -0.3146
 3599TIP3   OH232287   6.647   5.180   1.732 -0.0143 -0.4537 -0.1139
 3599TIP3    H132288   6.719   5.119   1.714 -0.7142 -0.9641 -1.3812
 3599TIP3    H232289   6.589   5.171   1.656 -0.7474  0.9196  0.2472
 3600TIP3   OH232290   2.729   6.334  16.988 -0.6024 -0.3103 -0.1051
 3600TIP3    H132291   2.794   6.266  17.010 -0.8981 -0.3846  0.5635
 3600TIP3    H232292   2.714   6.323  16.894  1.8712  1.0358 -0.7352
 3601TIP3   OH232293   3.312   4.789  14.617 -0.5122  0.1916 -0.4948
 3601TIP3    H132294   3.373   4.791  14.543  1.5788  0.5473  1.1303
 3601TIP3    H232295   3.297   4.881  14.638  1.4527  0.1724  1.3882
 3602TIP3   OH232296   3.526   1.449  12.507  0.0703  0.5644  0.4735
 3602TIP3    H132297   3.441   1.483  12.479  0.5831  2.7300  1.3198
 3602TIP3    H232298   3.567   1.417  12.427 -0.4821  1.9809 -0.4058
 3603TIP3   OH232299   5.399   3.943   1.742  0.5355 -0.4542  0.3216
 3603TIP3    H132300   5.331   4.003   1.710  1.7209  0.4539 -0.5603
 3603TIP3    H232301   5.410   3.879   1.672  0.4969 -0.6944  0.5317
 3604TIP3   OH232302   0.311   1.602  12.320  0.4920  0.4382  0.3644
 3604TIP3    H132303   0.282   1.571  12.406  2.1275  0.8396  1.0933
 3604TIP3    H232304   0.261   1.682  12.305 -2.1063 -1.2308 -0.5102
 3605TIP3   OH232305   1.957   4.970  11.375 -0.6205 -0.9209  0.5402
 3605TIP3    H132306   1.892   4.909  11.341 -0.3673 -1.2975  0.7245
 3605TIP3    H232307   1.993   5.012  11.298 -3.4164  1.7799  0.5120
 3606TIP3   OH232308   4.754   6.394  12.239 -0.0083  0.5054 -0.0767
 3606TIP3    H132309   4.726   6.478  12.203  0.5545  2.0915  2.8277
 3606TIP3    H232310   4.847   6.407  12.259 -0.1506 -0.4339  1.3319
 3607TIP3   OH232311   4.084   0.058  15.600 -0.2886  0.2773 -0.0304
 3607TIP3    H132312   4.178   0.073  15.603 -0.4529  1.3899  3.2923
 3607TIP3    H232313   4.047   0.144  15.581 -0.6726 -0.0584 -0.8335
 3608TIP3   OH232314   2.023   6.823  14.765 -0.7593 -0.0071 -0.6737
 3608TIP3    H132315   2.115   6.824  14.741 -0.6680  0.5211 -0.3091
 3608TIP3    H232316   1.987   6.904  14.728 -0.8431  0.3074  0.0881
 3609TIP3   OH232317   1.921   5.240  16.580 -0.5386  0.4354  0.0783
 3609TIP3    H132318   1.975   5.211  16.654  0.3986 -0.0906 -0.7869
 3609TIP3    H232319   1.984   5.266  16.513 -1.3078 -1.3861 -1.4473
 3610TIP3   OH232320   2.501   0.573   0.499 -0.4079 -0.1009  0.2775
 3610TIP3    H132321   2.486   0.487   0.459  0.3684  0.5598 -1.5280
 3610TIP3    H232322   2.430   0.627   0.466 -1.0546 -0.0725  1.6344
 3611TIP3   OH232323   3.708   6.499   0.019  0.4483 -0.4310 -0.0266
 3611TIP3    H132324   3.614   6.484   0.029  0.2999  0.9192  0.8279
 3611TIP3    H232325   3.748   6.417   0.051 -0.3898 -0.0761  2.1554
 3612TIP3   OH232326   4.275   5.343   5.877  0.3144  0.6180 -0.1281
 3612TIP3    H132327   4.291   5.300   5.793  2.0808 -1.5171  1.1770
 3612TIP3    H232328   4.353   5.395   5.892  0.1996  0.6491  0.3744
 3613TIP3   OH232329   3.190   1.726   1.235 -0.4766  0.2236  0.1680
 3613TIP3    H132330   3.249   1.788   1.279 -1.8590  1.8752 -0.2071
 3613TIP3    H232331   3.238   1.702   1.155 -0.3840  1.7615 -0.2755
 3614TIP3   OH232332   1.032   3.449  15.777  0.3455 -0.2831 -0.2600
 3614TIP3    H132333   1.054   3.357  15.793  0.1887 -0.4278 -0.8558
 3614TIP3    H232334   0.948   3.461  15.820  0.7398 -0.2051  0.4983
 3615TIP3   OH232335   1.173   6.510   6.187 -0.4369 -0.5553 -0.6679
 3615TIP3    H132336   1.250   6.527   6.241 -1.5056  0.1369  0.6938
 3615TIP3    H232337   1.208   6.472   6.107  1.4364  1.0197 -0.6590
 3616TIP3   OH232338   3.196   0.211   4.712  0.2938 -0.3629 -0.1499
 3616TIP3    H132339   3.193   0.225   4.618 -0.1843 -1.8499 -0.3878
 3616TIP3    H232340   3.107   0.229   4.742  0.4820  0.2592  0.0544
 3617TIP3   OH232341   0.641   0.360   3.789  0.1097 -0.5060  0.0031
 3617TIP3    H132342   0.708   0.424   3.813 -0.4455 -0.1796  0.7556
 3617TIP3    H232343   0.578   0.409   3.736  0.7538 -0.9556 -1.2077
 3618TIP3   OH232344   3.055   5.313  12.605 -0.3009  0.0745  0.2666
 3618TIP3    H132345   3.143   5.348  12.592 -0.3036  0.0550  0.1940
 3618TIP3    H232346   3.024   5.295  12.517 -1.8026  3.4701 -0.0496
 3619TIP3   OH232347   5.310   3.580   0.774  0.3475  0.0521 -0.1497
 3619TIP3    H132348   5.310   3.673   0.753  1.1034  0.4235  1.3057
 3619TIP3    H232349   5.300   3.535   0.690 -1.8094  1.4553 -0.7054
 3620TIP3   OH232350   4.918   3.561  12.896 -0.0069  0.2328  0.3154
 3620TIP3    H132351   4.969   3.594  12.970  0.8331  0.9451 -0.5650
 3620TIP3    H232352   4.900   3.638  12.843 -0.8414 -0.2296 -0.0928
 3621TIP3   OH232353   4.280   3.489  11.221 -0.4577 -0.0007  0.1849
 3621TIP3    H132354   4.213   3.429  11.254 -1.6127  0.5908 -0.9888
 3621TIP3    H232355   4.230   3.561  11.181  0.8784  1.3257  0.7938
 3622TIP3   OH232356   2.662   4.687  12.262  0.2410  0.0168  0.0686
 3622TIP3    H132357   2.636   4.778  12.251  1.1421  0.2800  0.0106
 3622TIP3    H232358   2.580   4.639  12.270 -0.2316  0.9168  0.8007
 3623TIP3   OH232359   3.441   3.329   0.694 -0.7096 -0.0362  0.2140
 3623TIP3    H132360   3.450   3.319   0.789  1.9528 -1.2852 -0.0589
 3623TIP3    H232361   3.425   3.240   0.662  1.4890 -0.1941 -0.6610
 3624TIP3   OH232362   2.610   3.356  16.876 -0.2012 -0.2834 -0.2103
 3624TIP3    H132363   2.546   3.286  16.868 -0.0555 -0.6128  1.2222
 3624TIP3    H232364   2.605   3.383  16.968  0.4351  0.9231 -0.4995
 3625TIP3   OH232365   6.800   5.476   2.951 -0.0001  0.0613  0.0591
 3625TIP3    H132366   6.785   5.565   2.918 -0.1142  0.4510  1.1281
 3625TIP3    H232367   6.858   5.488   3.026 -0.2903 -0.7376  0.4184
 3626TIP3   OH232368   2.009   0.847   3.403  0.0360  0.2223  0.4844
 3626TIP3    H132369   2.022   0.894   3.486  1.7552  1.9338 -0.6737
 3626TIP3    H232370   2.087   0.793   3.394 -0.6037 -0.7153  0.4122
 3627TIP3   OH232371   1.034   5.232  10.517  0.1645 -0.0058 -0.7538
 3627TIP3    H132372   0.938   5.224  10.515  0.0390  1.0697  0.2068
 3627TIP3    H232373   1.065   5.153  10.472 -1.1298 -1.7997  1.2824
 3628TIP3   OH232374   1.019   1.207   5.351  0.1826  0.3056 -0.5950
 3628TIP3    H132375   1.032   1.297   5.380  1.3380  0.1951 -0.7275
 3628TIP3    H232376   0.962   1.168   5.417  0.1743  0.9606 -0.2101
 3629TIP3   OH232377   2.319   2.957  14.323 -0.0145  0.3508  0.0838
 3629TIP3    H132378   2.340   2.864  14.330 -3.5101 -0.5665  0.5454
 3629TIP3    H232379   2.348   2.982  14.236  2.8886 -0.5106  0.6959
 3630TIP3   OH232380   0.834   3.374  11.447 -0.4257 -0.1423 -0.3077
 3630TIP3    H132381   0.928   3.391  11.453 -0.2749  0.7587 -3.4058
 3630TIP3    H232382   0.792   3.454  11.479  0.0512  1.2899 -2.9574
 3631TIP3   OH232383   5.872   0.716  15.181  0.0475 -0.1720 -0.6979
 3631TIP3    H132384   5.794   0.663  15.201  0.9106 -1.3327 -0.3479
 3631TIP3    H232385   5.904   0.745  15.266 -0.0963  0.4781 -0.8553
 3632TIP3   OH232386   3.029   0.254  16.510 -0.3914 -0.0552  0.1204
 3632TIP3    H132387   3.052   0.257  16.418  0.3348  1.2156  0.3159
 3632TIP3    H232388   3.097   0.201  16.551 -1.0633 -1.1548 -0.1483
 3633TIP3   OH232389   2.860   3.341   3.162  0.1692 -0.5723  0.5851
 3633TIP3    H132390   2.876   3.253   3.131 -0.0332 -0.0928 -0.9531
 3633TIP3    H232391   2.774   3.364   3.127  0.0813  0.1260  1.2177
 3634TIP3   OH232392   1.475   3.636   5.464 -0.3149  0.7024 -0.4065
 3634TIP3    H132393   1.486   3.546   5.435 -0.0905  0.7709 -0.5355
 3634TIP3    H232394   1.564   3.667   5.480 -0.1271  1.8068 -3.0706
 3635TIP3   OH232395   3.788   0.675   4.120 -0.0144 -0.0432 -0.1681
 3635TIP3    H132396   3.766   0.606   4.057  2.2437 -0.3585 -0.6859
 3635TIP3    H232397   3.747   0.647   4.201 -1.2646 -0.6727 -0.9827
 3636TIP3   OH232398   0.400   2.916  16.087  0.4432  0.0652 -0.4043
 3636TIP3    H132399   0.440   2.973  16.153 -3.1318  1.2527  0.9961
 3636TIP3    H232400   0.360   2.845  16.138  0.9321 -1.2046 -1.7204
 3637TIP3   OH232401   4.246   3.175  10.566 -0.3529  0.5004 -0.2051
 3637TIP3    H132402   4.338   3.159  10.586  0.3222  2.4097 -1.4511
 3637TIP3    H232403   4.245   3.262  10.526 -2.3662 -0.4875 -2.5799
 3638TIP3   OH232404   6.437   1.198   0.022 -0.4149  0.4311  0.7092
 3638TIP3    H132405   6.387   1.270  -0.018  0.2562 -0.0154 -1.0327
 3638TIP3    H232406   6.372   1.127   0.032 -0.6935  0.7006  0.8286
 3639TIP3   OH232407   4.962   2.142  14.035 -0.1599  0.2303  0.3227
 3639TIP3    H132408   4.991   2.151  13.944  0.7269 -1.3959  0.4104
 3639TIP3    H232409   4.889   2.203  14.043  0.6676  1.4599 -1.0639
 3640TIP3   OH232410   3.142   4.449  14.760 -0.0644  0.7733  0.2106
 3640TIP3    H132411   3.065   4.427  14.813  0.1512  0.4978  0.4079
 3640TIP3    H232412   3.211   4.392  14.792  0.5542  1.8473  0.8506
 3641TIP3   OH232413   3.178   3.827  15.859 -0.0575 -0.8976  0.1006
 3641TIP3    H132414   3.245   3.877  15.813 -1.2969 -0.9464 -1.8724
 3641TIP3    H232415   3.103   3.886  15.866 -0.6382 -1.6063  0.0832
 3642TIP3   OH232416   6.257   5.496  14.801 -0.0707  0.3037  1.0102
 3642TIP3    H132417   6.307   5.536  14.872 -0.3165 -0.5551  1.6762
 3642TIP3    H232418   6.229   5.412  14.836  1.4522 -1.0231 -0.7575
 3643TIP3   OH232419   2.683   6.168   1.064 -0.1438  0.4682 -0.3368
 3643TIP3    H132420   2.621   6.240   1.060 -0.1278  0.4516 -1.0024
 3643TIP3    H232421   2.660   6.121   1.145 -0.3910  0.9981 -0.0966
 3644TIP3   OH232422   4.048   0.418   6.509 -0.2382 -0.5035  0.1401
 3644TIP3    H132423   4.108   0.492   6.513  0.8705 -1.2931 -0.9988
 3644TIP3    H232424   3.961   0.457   6.503  0.3599  0.7167 -0.9966
 3645TIP3   OH232425   5.756   2.838  12.513 -0.2381 -0.1833 -0.0211
 3645TIP3    H132426   5.748   2.743  12.503  1.3565 -0.3162 -0.3678
 3645TIP3    H232427   5.770   2.852  12.606  3.1053 -0.6903 -0.3165
 3646TIP3   OH232428   5.120   4.464  11.260  0.6500 -0.3622 -0.1052
 3646TIP3    H132429   5.113   4.401  11.189 -0.1354  1.1640 -1.4569
 3646TIP3    H232430   5.178   4.422  11.324  2.5582 -1.2261 -2.2535
 3647TIP3   OH232431   3.331   1.273   3.382  0.0109 -0.6730  0.0491
 3647TIP3    H132432   3.277   1.245   3.455  0.2061 -0.7841  0.1506
 3647TIP3    H232433   3.354   1.364   3.402 -3.7700  0.9646 -2.0801
 3648TIP3   OH232434   2.223   5.202   6.607  1.0647  0.2441 -0.2417
 3648TIP3    H132435   2.311   5.238   6.617  2.1774 -2.2574 -0.0824
 3648TIP3    H232436   2.201   5.168   6.693 -0.2054  1.0849 -0.2156
 3649TIP3   OH232437   4.941   5.243   0.556 -0.3557 -0.6253  0.0957
 3649TIP3    H132438   4.974   5.154   0.569 -1.6929 -1.2144 -0.3378
 3649TIP3    H232439   5.018   5.294   0.532  0.3870 -1.7384  0.0406
 3650TIP3   OH232440   2.148   1.989   1.725  0.3134 -0.3453 -0.6611
 3650TIP3    H132441   2.103   1.968   1.807 -1.7463  1.9003 -1.0884
 3650TIP3    H232442   2.107   2.070   1.696  0.7202 -1.2305 -4.1091
 3651TIP3   OH232443   0.285   3.125  13.908  0.3631 -0.0415 -0.3085
 3651TIP3    H132444   0.264   3.032  13.917 -0.8773  0.3475  1.3274
 3651TIP3    H232445   0.248   3.149  13.823 -0.0790 -0.8482 -0.3587
 3652TIP3   OH232446   3.643   2.194   5.731 -0.7138  0.0975  0.6659
 3652TIP3    H132447   3.712   2.241   5.779  0.8943 -1.0180 -0.4531
 3652TIP3    H232448   3.648   2.230   5.642  0.0785 -1.6321 -0.0309
 3653TIP3   OH232449   3.274   5.190   5.514 -0.2406 -0.3687  0.5860
 3653TIP3    H132450   3.276   5.170   5.421  2.2330  0.2893  0.4243
 3653TIP3    H232451   3.244   5.281   5.518  0.5691 -0.0794  0.3271
 3654TIP3   OH232452   5.435   0.475   3.263 -0.0561  0.3915 -0.2958
 3654TIP3    H132453   5.425   0.381   3.245 -1.8821  0.1765  1.4785
 3654TIP3    H232454   5.513   0.480   3.319 -0.2309 -0.1358  0.0036
 3655TIP3   OH232455   5.841   3.572   4.836  0.0821  0.1114 -0.1623
 3655TIP3    H132456   5.853   3.666   4.826 -0.1172  0.1175 -0.3597
 3655TIP3    H232457   5.895   3.533   4.766 -1.0316  0.1413 -1.0643
 3656TIP3   OH232458   6.295   3.815  15.680  0.0629  0.4830  0.3903
 3656TIP3    H132459   6.220   3.871  15.697 -0.5168 -0.5845  1.5069
 3656TIP3    H232460   6.282   3.782  15.591 -0.6099  0.5751  0.4534
 3657TIP3   OH232461   6.787   4.302  13.860  0.7181 -0.9829  0.4987
 3657TIP3    H132462   6.786   4.362  13.785  2.5796 -2.9917 -1.2712
 3657TIP3    H232463   6.879   4.296  13.884  0.2414 -1.0251  2.4825
 3658TIP3   OH232464   0.475   3.956  15.180 -0.0834 -0.2346  0.2052
 3658TIP3    H132465   0.533   3.888  15.147 -0.8753 -1.1021  0.5553
 3658TIP3    H232466   0.516   4.038  15.153 -0.5481 -0.8441 -2.7618
 3659TIP3   OH232467   5.759   5.588  13.123 -0.4738 -0.4239  0.1415
 3659TIP3    H132468   5.729   5.606  13.034  1.3153  0.4976 -0.3235
 3659TIP3    H232469   5.764   5.493  13.128  0.4205 -0.4611 -1.1232
 3660TIP3   OH232470   3.672   0.939  16.286 -0.1643  0.2713 -0.4592
 3660TIP3    H132471   3.646   0.849  16.307 -0.2995  0.4489  0.1603
 3660TIP3    H232472   3.617   0.993  16.342 -0.0535  0.7433 -0.8007
 3661TIP3   OH232473   3.302   6.144   1.614  0.6669  0.2472 -0.3474
 3661TIP3    H132474   3.328   6.199   1.688  1.4171  0.9352 -1.0966
 3661TIP3    H232475   3.325   6.055   1.640  0.6053  0.4405  0.3795
 3662TIP3   OH232476   3.264   5.248   4.415 -0.1062 -0.3996 -0.5282
 3662TIP3    H132477   3.229   5.337   4.417 -0.0524 -0.2806 -2.4122
 3662TIP3    H232478   3.358   5.259   4.425 -0.2555 -0.4308  1.1220
 3663TIP3   OH232479   0.611   2.881   2.560  0.3731  0.3473  0.0600
 3663TIP3    H132480   0.694   2.833   2.555  0.0370 -0.2127 -0.2964
 3663TIP3    H232481   0.630   2.967   2.522  0.0850 -0.7899 -2.9705
 3664TIP3   OH232482   2.642   6.612  15.813  0.0106 -0.0884 -0.1597
 3664TIP3    H132483   2.562   6.564  15.829 -1.8090  1.3584 -3.7579
 3664TIP3    H232484   2.703   6.581  15.880 -2.5188 -3.5496  0.7932
 3665TIP3   OH232485   4.188   4.296  11.048 -0.4619 -0.4779 -0.4584
 3665TIP3    H132486   4.092   4.286  11.050 -0.4224 -0.8288 -0.3908
 3665TIP3    H232487   4.209   4.334  11.133 -0.3418 -2.1414  0.2977
 3666TIP3   OH232488   5.954   1.755  12.869 -0.4298 -0.2116  0.4204
 3666TIP3    H132489   5.994   1.836  12.836  0.5763 -0.2845  1.4005
 3666TIP3    H232490   5.904   1.721  12.795 -0.5035  1.0689 -0.1458
 3667TIP3   OH232491   6.363   0.798   4.347 -0.1519  0.3573 -0.5817
 3667TIP3    H132492   6.403   0.857   4.411 -0.1588  0.4351 -0.6492
 3667TIP3    H232493   6.270   0.801   4.366 -0.3860  1.8388 -1.7985
 3668TIP3   OH232494   3.435   2.969  16.763 -0.1544  0.4205 -0.2648
 3668TIP3    H132495   3.476   3.025  16.697 -0.4055  1.8423  0.7563
 3668TIP3    H232496   3.455   3.011  16.847  0.3859 -1.4828  0.6252
 3669TIP3   OH232497   4.916   3.308  12.769 -0.1552 -0.1171  0.2872
 3669TIP3    H132498   4.909   3.394  12.811  2.2529 -0.1418  0.9224
 3669TIP3    H232499   4.826   3.279  12.757 -1.0422  2.4691  0.0968
 3670TIP3   OH232500   0.264   6.525   5.926  0.0712  0.6744 -0.1075
 3670TIP3    H132501   0.274   6.507   6.020  0.9747 -0.8274 -0.4583
 3670TIP3    H232502   0.353   6.518   5.890 -0.2503  1.3137 -1.0690
 3671TIP3   OH232503   3.228   2.864   1.970 -0.5149 -0.1508  0.1779
 3671TIP3    H132504   3.320   2.878   1.994 -0.0312 -1.8940 -0.5220
 3671TIP3    H232505   3.183   2.852   2.054  0.3748 -1.8079  0.4586
 3672TIP3   OH232506   2.860   5.377   3.622 -0.2699  0.0794  0.3424
 3672TIP3    H132507   2.928   5.315   3.593  0.7889  1.5291 -0.4171
 3672TIP3    H232508   2.819   5.406   3.541  1.2878  2.5886  0.3608
 3673TIP3   OH232509   3.616   4.742   5.530  0.4397  0.2784  0.3871
 3673TIP3    H132510   3.568   4.660   5.545  0.3183  0.1454 -0.6080
 3673TIP3    H232511   3.633   4.742   5.435 -1.2742  2.3273 -0.0001
 3674TIP3   OH232512   5.975   0.684   5.341 -0.0542  0.8328 -0.0161
 3674TIP3    H132513   5.951   0.742   5.269 -2.6614 -1.5120 -1.2313
 3674TIP3    H232514   5.940   0.726   5.419 -2.9822  0.4503 -1.0258
 3675TIP3   OH232515   6.369   1.474   2.098 -0.4525 -0.2972  0.2994
 3675TIP3    H132516   6.435   1.405   2.096 -1.1932 -1.0304  0.4213
 3675TIP3    H232517   6.322   1.460   2.180  0.0161  0.9779  0.8069
 3676TIP3   OH232518   5.004   6.243   3.816 -0.4520 -0.3658 -0.0601
 3676TIP3    H132519   5.073   6.200   3.765 -1.1665 -1.0591 -0.4437
 3676TIP3    H232520   4.988   6.184   3.890 -1.7262 -0.9991 -0.8112
 3677TIP3   OH232521   1.254   4.745   0.638 -0.1675 -0.4926 -0.5924
 3677TIP3    H132522   1.188   4.676   0.644 -1.3948  0.6687 -0.0855
 3677TIP3    H232523   1.214   4.811   0.581  0.5342  0.2476 -0.2466
 3678TIP3   OH232524   1.733   3.100   5.915 -0.1051 -0.3118  0.8406
 3678TIP3    H132525   1.788   3.023   5.899 -0.2239  0.0602 -1.6917
 3678TIP3    H232526   1.643   3.067   5.911 -0.1512 -0.0994 -0.0325
 3679TIP3   OH232527   0.221   4.052   2.697 -0.1277 -0.3147  0.2801
 3679TIP3    H132528   0.209   4.032   2.604  1.0950  0.8591 -0.1548
 3679TIP3    H232529   0.251   4.142   2.698  2.6395 -1.1492  1.6037
 3680TIP3   OH232530   5.447   1.379  17.044  0.0815 -0.0042  0.2778
 3680TIP3    H132531   5.413   1.291  17.028 -3.3154  1.0201  0.9633
 3680TIP3    H232532   5.415   1.430  16.969  1.3976  0.8151  0.2514
 3681TIP3   OH232533   1.296   0.387   6.168 -1.0218  0.2944  0.2754
 3681TIP3    H132534   1.289   0.433   6.252 -1.5070  1.1340 -0.2020
 3681TIP3    H232535   1.388   0.393   6.145 -0.7768 -0.4931  1.0494
 3682TIP3   OH232536   4.025   4.223   6.133  0.6852 -0.1840  0.1380
 3682TIP3    H132537   3.951   4.178   6.093 -0.7889  0.1957  2.2853
 3682TIP3    H232538   4.101   4.168   6.111 -0.7628 -2.7087  1.0080
 3683TIP3   OH232539   5.581   0.653   1.400 -0.3520 -0.0105 -0.0121
 3683TIP3    H132540   5.607   0.725   1.457  0.0957  0.4688 -0.7955
 3683TIP3    H232541   5.663   0.613   1.372 -0.6030 -0.9420  0.5499
 3684TIP3   OH232542   1.321   1.660   4.923  0.2619  0.9060  0.0076
 3684TIP3    H132543   1.263   1.628   4.853 -0.5923  1.1579  0.5881
 3684TIP3    H232544   1.266   1.661   5.001  1.1345  0.8959  0.6340
 3685TIP3   OH232545   2.256   0.443  11.473 -0.8962  0.1864 -0.6516
 3685TIP3    H132546   2.252   0.403  11.387  0.9064 -0.3801 -0.5123
 3685TIP3    H232547   2.303   0.525  11.460  1.4862 -0.9772  0.0926
 3686TIP3   OH232548   2.802   1.458  15.438  0.8259 -0.4153 -0.5916
 3686TIP3    H132549   2.792   1.394  15.508  0.6341  0.4251  0.1535
 3686TIP3    H232550   2.846   1.410  15.368  2.9527 -0.7130  0.8849
 3687TIP3   OH232551   2.001   4.992  14.086  0.0066  0.1399  0.1949
 3687TIP3    H132552   2.022   5.080  14.116  0.4613 -0.1186  0.6285
 3687TIP3    H232553   2.023   4.935  14.159  1.9786 -0.5996 -0.8940
 3688TIP3   OH232554   2.369   4.250  14.844 -0.0844  0.0719  0.3111
 3688TIP3    H132555   2.375   4.172  14.788 -0.6840 -0.7239  1.3327
 3688TIP3    H232556   2.385   4.323  14.784  1.6526 -0.8698 -0.4561
 3689TIP3   OH232557   3.530   2.649  12.937 -0.4543 -0.4681 -0.0109
 3689TIP3    H132558   3.483   2.713  12.991 -0.4392 -0.8390  0.4569
 3689TIP3    H232559   3.519   2.566  12.984  0.9768 -0.5038  0.3196
 3690TIP3   OH232560   1.175   5.548   5.692  1.2830 -0.6078 -0.1063
 3690TIP3    H132561   1.156   5.511   5.606  1.1527 -0.0077 -0.3388
 3690TIP3    H232562   1.206   5.637   5.674 -0.7814  0.3043  0.5700
 3691TIP3   OH232563   3.748   6.606  11.602 -0.3894 -0.1569 -0.2604
 3691TIP3    H132564   3.796   6.676  11.647  0.5066 -0.6847 -0.3945
 3691TIP3    H232565   3.682   6.653  11.550  0.4791  0.6109 -0.6917
 3692TIP3   OH232566   0.121   5.356  12.740  0.8924 -0.0241  0.1682
 3692TIP3    H132567   0.075   5.285  12.695 -0.9534  1.8799 -1.1350
 3692TIP3    H232568   0.079   5.361  12.826 -0.5022  0.8600 -0.5393
 3693TIP3   OH232569   3.658   1.910   2.490 -0.1205  0.3211  0.7088
 3693TIP3    H132570   3.740   1.935   2.448 -0.7991  1.6678  0.1221
 3693TIP3    H232571   3.591   1.956   2.440 -1.2806 -1.1231  0.8866
 3694TIP3   OH232572   3.550   0.737  14.427  0.0145  0.1190  0.5887
 3694TIP3    H132573   3.590   0.763  14.510 -0.4112  1.7112  0.3227
 3694TIP3    H232574   3.599   0.659  14.400  0.5974 -0.0237  1.9952
 3695TIP3   OH232575   1.951   6.132  12.742 -0.5874 -0.1443 -0.0109
 3695TIP3    H132576   1.935   6.051  12.693  0.4696  0.6905 -1.8306
 3695TIP3    H232577   1.881   6.135  12.807 -1.0302 -2.1759 -0.3332
 3696TIP3   OH232578   1.578   4.956   3.334  0.1372 -0.1477  0.3374
 3696TIP3    H132579   1.571   5.049   3.357 -1.2102  0.2860 -1.6162
 3696TIP3    H232580   1.541   4.910   3.409  0.3657  0.9054  1.1191
 3697TIP3   OH232581   2.801   5.792   0.845  0.3569  0.1188 -0.3324
 3697TIP3    H132582   2.708   5.805   0.824  0.5620  0.9712 -0.7627
 3697TIP3    H232583   2.832   5.730   0.778 -0.0415 -0.6821  0.2059
 3698TIP3   OH232584   5.808   2.369  13.994 -0.2116 -0.0429  0.5901
 3698TIP3    H132585   5.738   2.428  13.965  0.5170 -0.1166 -1.4540
 3698TIP3    H232586   5.786   2.284  13.956  0.4380 -0.3141  0.8045
 3699TIP3   OH232587   1.886   3.297   4.566 -0.2545 -0.2599  0.1793
 3699TIP3    H132588   1.825   3.369   4.583  1.0891  1.3801 -1.5364
 3699TIP3    H232589   1.833   3.218   4.577 -2.6177  1.0538 -0.9108
 3700TIP3   OH232590   6.776   2.757  12.082  0.1221  0.5146 -0.2866
 3700TIP3    H132591   6.796   2.663  12.086  1.0759  0.6337 -1.6395
 3700TIP3    H232592   6.851   2.799  12.124 -0.4277  0.6849  0.5581
 3701TIP3   OH232593   3.938   3.165  11.607  0.5861  0.1357 -0.5830
 3701TIP3    H132594   3.997   3.214  11.664 -1.3044  1.0149  0.7539
 3701TIP3    H232595   3.912   3.089  11.659  0.1350  0.0541 -0.9191
 3702TIP3   OH232596   4.928   5.475   3.878 -0.0153  0.8399 -0.5602
 3702TIP3    H132597   4.947   5.555   3.827  0.8917  1.8051  1.2069
 3702TIP3    H232598   4.872   5.423   3.820  2.4712  0.9714 -3.3855
 3703TIP3   OH232599   2.863   0.397  13.284  0.1369  0.5582 -0.0733
 3703TIP3    H132600   2.903   0.410  13.370  0.8299 -0.6332 -0.1969
 3703TIP3    H232601   2.773   0.429  13.295  0.2509  0.5532  1.0540
 3704TIP3   OH232602   0.627   5.913   0.667 -0.3766 -0.3651  0.0040
 3704TIP3    H132603   0.674   5.981   0.621 -1.0984 -0.2638 -0.6006
 3704TIP3    H232604   0.592   5.856   0.598 -0.2385 -1.0379  0.4774
 3705TIP3   OH232605   5.209   2.816  14.804  0.4367  0.5988 -0.5227
 3705TIP3    H132606   5.236   2.766  14.882  0.2984  0.8547 -0.3094
 3705TIP3    H232607   5.291   2.834  14.758  0.7865  2.2732  0.6607
 3706TIP3   OH232608   6.128   1.729  11.687  0.0727  0.4453  0.3673
 3706TIP3    H132609   6.183   1.663  11.728  0.9834  1.4857  0.8641
 3706TIP3    H232610   6.168   1.813  11.710 -1.9339  1.2790  1.0746
 3707TIP3   OH232611   4.497   2.452  16.969  0.0513 -0.0296  0.1260
 3707TIP3    H132612   4.565   2.424  17.030 -0.8896 -0.5287  0.9855
 3707TIP3    H232613   4.512   2.546  16.957  1.2120 -0.2299 -0.1480
 3708TIP3   OH232614   5.339   5.591   3.999 -0.5177  0.0217  0.5575
 3708TIP3    H132615   5.407   5.566   4.061 -2.2260  0.3348  2.6555
 3708TIP3    H232616   5.369   5.556   3.915  1.4829 -1.1311  1.6885
 3709TIP3   OH232617   0.479   1.403  16.860 -0.4863  0.5021  0.3601
 3709TIP3    H132618   0.487   1.450  16.943  0.1161  0.8316  0.1220
 3709TIP3    H232619   0.567   1.374  16.841  0.0396  3.0321 -1.6626
 3710TIP3   OH232620   2.389   2.968  12.670 -0.0090 -0.5193  0.2208
 3710TIP3    H132621   2.325   2.918  12.618  0.1869  0.6039 -1.1616
 3710TIP3    H232622   2.350   3.055  12.679  0.6001 -0.2982  0.7615
 3711TIP3   OH232623   3.773   0.094   5.970 -0.3853 -0.0916  0.1611
 3711TIP3    H132624   3.706   0.100   5.902 -1.7016 -0.9196  1.3148
 3711TIP3    H232625   3.726   0.058   6.046  1.1133  0.4038  1.3748
 3712TIP3   OH232626   2.760   4.877   3.720 -0.0220 -0.2334  0.0927
 3712TIP3    H132627   2.667   4.885   3.740 -0.0510  0.3562 -0.2442
 3712TIP3    H232628   2.771   4.787   3.689 -0.3800 -0.4642  0.6298
 3713TIP3   OH232629   3.803   6.003  11.767 -0.3269  0.4789  0.2001
 3713TIP3    H132630   3.829   6.047  11.686  0.1874  1.6743  1.0010
 3713TIP3    H232631   3.782   6.073  11.827 -0.2594 -0.3901  1.2684
 3714TIP3   OH232632   1.225   0.647   2.393 -0.0857 -0.6855 -0.1309
 3714TIP3    H132633   1.221   0.737   2.360  0.8309 -0.5155  0.1911
 3714TIP3    H232634   1.190   0.594   2.322 -0.1655 -0.1189 -0.5212
 3715TIP3   OH232635   3.516   1.293  16.554  0.0565  0.1072  0.8422
 3715TIP3    H132636   3.473   1.211  16.581 -1.8479  1.4165  2.1407
 3715TIP3    H232637   3.475   1.315  16.471 -0.1245  0.2139  0.9595
 3716TIP3   OH232638   0.796   5.748   1.428  0.3082 -0.1873  0.2683
 3716TIP3    H132639   0.737   5.802   1.375  0.2132 -1.1987 -0.6757
 3716TIP3    H232640   0.884   5.775   1.401  0.2900  0.6728  1.0195
 3717TIP3   OH232641   1.662   0.353  14.367  0.1450 -0.2301 -0.0825
 3717TIP3    H132642   1.676   0.444  14.344  0.5483  0.2116  1.7611
 3717TIP3    H232643   1.572   0.335  14.340  0.6314  0.1372 -2.1049
 3718TIP3   OH232644   0.373   2.940  12.159 -0.2267  0.3747  0.0569
 3718TIP3    H132645   0.340   2.949  12.248 -0.5394 -1.4878  0.1762
 3718TIP3    H232646   0.361   2.847  12.138  1.6687  0.3554 -1.2074
 3719TIP3   OH232647   4.826   5.758  12.644 -0.4640 -0.3250  0.5540
 3719TIP3    H132648   4.846   5.711  12.563  0.4200  1.8796 -0.5839
 3719TIP3    H232649   4.824   5.690  12.711 -0.2536 -2.0961 -1.1494
 3720TIP3   OH232650   5.482   2.188  11.932 -0.1515  0.0114  0.3818
 3720TIP3    H132651   5.418   2.122  11.906  0.4279 -0.6277  0.5591
 3720TIP3    H232652   5.435   2.243  11.995 -0.3033 -0.8909  1.0681
 3721TIP3   OH232653   5.860   1.483  13.929 -0.0070  0.4814  0.1331
 3721TIP3    H132654   5.943   1.436  13.938  0.7871  1.4631 -1.5261
 3721TIP3    H232655   5.794   1.419  13.955  1.1676 -0.8853 -0.0850
 3722TIP3   OH232656   4.013   4.858   0.840  0.2279 -0.1510 -0.0702
 3722TIP3    H132657   4.005   4.906   0.757  0.0411  0.3244  0.2231
 3722TIP3    H232658   4.106   4.863   0.861  0.2798 -0.2904 -0.2547
 3723TIP3   OH232659   4.659   6.550   1.239  0.0544  0.2472  0.0188
 3723TIP3    H132660   4.704   6.631   1.214 -0.7279  1.0316  1.0708
 3723TIP3    H232661   4.717   6.480   1.208  1.0722  1.2062 -0.3119
 3724TIP3   OH232662   6.380   2.107  12.094  0.1124  0.2253 -0.1924
 3724TIP3    H132663   6.428   2.182  12.127 -0.9586  0.3115  1.2356
 3724TIP3    H232664   6.295   2.142  12.066  0.0335 -0.2739 -0.6088
 3725TIP3   OH232665   4.974   5.754  16.108  0.0342  0.0437  0.2049
 3725TIP3    H132666   5.062   5.782  16.083  0.9695 -2.4265  0.5249
 3725TIP3    H232667   4.921   5.834  16.099  2.5479  2.0306  1.4656
 3726TIP3   OH232668   1.329   5.050   1.156  0.5893  0.0438 -0.0909
 3726TIP3    H132669   1.317   4.965   1.198  0.5982 -0.4596 -1.0837
 3726TIP3    H232670   1.289   5.041   1.070  1.3487  0.7603 -0.5430
 3727TIP3   OH232671   4.870   4.210   5.144 -0.4411  0.8679  0.0288
 3727TIP3    H132672   4.916   4.290   5.169 -0.6797  1.9304 -2.5989
 3727TIP3    H232673   4.825   4.233   5.063 -0.5890 -1.9233 -0.7795
 3728TIP3   OH232674   5.516   5.511   3.764 -0.1979  0.6679 -0.5556
 3728TIP3    H132675   5.558   5.514   3.678  2.8611 -1.1294  0.7531
 3728TIP3    H232676   5.434   5.464   3.748 -0.2395  1.3242 -2.6436
 3729TIP3   OH232677   1.988   1.257   0.122  0.0899  0.4439 -0.3112
 3729TIP3    H132678   2.013   1.225   0.036  2.0475 -0.6716  0.5971
 3729TIP3    H232679   2.040   1.204   0.183 -0.9497  1.4503  1.5367
 3730TIP3   OH232680   4.700   4.640   3.547  0.0368  0.1787  1.1575
 3730TIP3    H132681   4.655   4.555   3.548 -2.9794  1.6174 -0.0715
 3730TIP3    H232682   4.727   4.654   3.638 -1.2470 -1.1669  1.7935
 3731TIP3   OH232683   1.660   0.517  15.318 -0.2685 -0.1875  0.3435
 3731TIP3    H132684   1.622   0.580  15.257 -1.1206  0.2384  1.2964
 3731TIP3    H232685   1.590   0.453  15.333  0.6550 -1.5289 -0.7941
 3732TIP3   OH232686   3.459   6.493  11.639 -0.3274 -0.2994 -0.3778
 3732TIP3    H132687   3.480   6.399  11.641  0.6444 -0.1010  2.0869
 3732TIP3    H232688   3.491   6.523  11.555 -1.4211 -2.3168 -1.5967
 3733TIP3   OH232689   1.238   3.218   4.308  0.0125  0.3297 -0.4033
 3733TIP3    H132690   1.201   3.275   4.240 -0.6181 -0.5643 -0.8204
 3733TIP3    H232691   1.291   3.154   4.259  1.4354  1.0620  0.1219
 3734TIP3   OH232692   4.898   2.757  12.854 -0.2650 -0.0137 -0.4654
 3734TIP3    H132693   4.820   2.734  12.904  0.3017  0.6773  0.7959
 3734TIP3    H232694   4.959   2.685  12.867 -0.3899 -0.1810 -0.7905
 3735TIP3   OH232695   5.893   3.081   5.623  0.3510  0.1279 -0.2177
 3735TIP3    H132696   5.861   3.144   5.688 -0.6889 -2.5376  2.0190
 3735TIP3    H232697   5.974   3.046   5.661 -1.4985 -3.2220  1.0348
 3736TIP3   OH232698   3.157   1.565   2.716 -0.2269 -0.0998  0.2495
 3736TIP3    H132699   3.165   1.571   2.811  0.0778 -0.1381  0.2245
 3736TIP3    H232700   3.068   1.595   2.698 -0.3703 -0.3242  0.5705
 3737TIP3   OH232701   5.837   6.837   1.269  0.1205  0.0384  0.0537
 3737TIP3    H132702   5.845   6.816   1.362  3.2345 -0.9148 -0.3168
 3737TIP3    H232703   5.857   6.931   1.264  0.2157  0.0342  0.3196
 3738TIP3   OH232704   1.015   2.841   1.270 -0.0191 -0.4825 -0.1916
 3738TIP3    H132705   1.040   2.825   1.179 -0.2320 -1.4843 -0.0821
 3738TIP3    H232706   1.096   2.831   1.319 -0.1672 -1.3350 -0.1139
 3739TIP3   OH232707   3.643   6.261   2.189 -0.1525  0.1886 -0.5298
 3739TIP3    H132708   3.595   6.303   2.260  0.0376  1.3315 -1.0595
 3739TIP3    H232709   3.602   6.295   2.109  0.6064  0.0824 -0.9715
 3740TIP3   OH232710   1.610   0.444   3.299 -0.5566  0.8259 -0.1123
 3740TIP3    H132711   1.604   0.412   3.389  0.2140  1.1374  0.0600
 3740TIP3    H232712   1.613   0.539   3.307  0.0733  0.8404 -0.4249
 3741TIP3   OH232713   5.332   1.111  11.985 -0.4458 -0.6880 -0.3108
 3741TIP3    H132714   5.391   1.185  11.970  0.2888 -1.2899 -0.4700
 3741TIP3    H232715   5.291   1.096  11.900  0.0612 -1.0125 -0.5018
 3742TIP3   OH232716   1.589   5.092   0.957 -0.3612 -0.4301 -0.0309
 3742TIP3    H132717   1.505   5.088   0.910  0.0290 -1.6630 -0.6798
 3742TIP3    H232718   1.569   5.136   1.039 -1.8801 -1.6105  0.2738
 3743TIP3   OH232719   1.390   2.352  17.051 -0.1919  0.3182  0.0714
 3743TIP3    H132720   1.430   2.269  17.023 -0.0083  0.2582  0.4951
 3743TIP3    H232721   1.456   2.419  17.030  0.5200  0.1262  1.5365
 3744TIP3   OH232722   3.083   2.281  15.454 -0.1211  0.7369 -0.2595
 3744TIP3    H132723   3.132   2.309  15.376  0.3375 -0.7694 -0.5368
 3744TIP3    H232724   3.027   2.356  15.475  0.1406  1.3741 -1.7193
 3745TIP3   OH232725   0.337   2.358  12.191 -0.7323  0.4084  0.2256
 3745TIP3    H132726   0.431   2.349  12.181 -0.6505  0.4136  0.9594
 3745TIP3    H232727   0.304   2.367  12.101  0.1490  2.2701  0.0354
 3746TIP3   OH232728   3.208   1.018  12.337  0.3161 -0.2908  0.1172
 3746TIP3    H132729   3.227   0.927  12.361  1.0760 -0.3590 -0.6816
 3746TIP3    H232730   3.115   1.029  12.356 -0.3264 -1.9036 -1.7027
 3747TIP3   OH232731   1.795   3.203   2.358 -0.1163 -0.3115 -0.6430
 3747TIP3    H132732   1.869   3.263   2.350  0.1671 -0.2783  1.7529
 3747TIP3    H232733   1.813   3.135   2.293  1.2592  0.4264 -1.0874
 3748TIP3   OH232734   4.132   0.024  15.942 -0.0277 -0.4495 -0.0931
 3748TIP3    H132735   4.117   0.107  15.897 -0.1593 -0.4289 -0.0119
 3748TIP3    H232736   4.121   0.045  16.035  0.1326 -0.5158 -0.0580
 3749TIP3   OH232737   0.872   6.512   5.441 -0.5502  0.1067 -0.4456
 3749TIP3    H132738   0.799   6.472   5.489 -1.1893 -0.9342 -2.1718
 3749TIP3    H232739   0.949   6.494   5.495 -1.2926 -0.5416  0.4392
 3750TIP3   OH232740   0.754   2.441  14.715 -0.3641  0.5666 -0.0289
 3750TIP3    H132741   0.796   2.521  14.745 -0.5830  1.7164 -2.5209
 3750TIP3    H232742   0.754   2.383  14.791  2.0886  1.9840  1.1589
 3751TIP3   OH232743   0.315   6.149  13.731  0.2540  0.6978  0.3446
 3751TIP3    H132744   0.406   6.132  13.753  0.8470  0.5680 -1.9553
 3751TIP3    H232745   0.317   6.179  13.640 -1.8520  2.2772  0.7246
 3752TIP3   OH232746   4.477   0.500  10.700 -0.7783  0.3478 -0.1333
 3752TIP3    H132747   4.502   0.591  10.681  0.5386  0.3035  1.2004
 3752TIP3    H232748   4.386   0.506  10.730 -1.3196  0.9664 -1.7982
 3753TIP3   OH232749   1.407   0.080  17.139  0.2006 -0.3488 -0.1220
 3753TIP3    H132750   1.368   0.125  17.213 -1.1403 -0.1007 -0.9396
 3753TIP3    H232751   1.354   0.106  17.064  0.5347 -1.8155 -0.9189
 3754TIP3   OH232752   5.996   0.651   3.977 -0.4263  0.1024  0.0254
 3754TIP3    H132753   6.070   0.590   3.982 -1.1296 -0.7000  1.0594
 3754TIP3    H232754   6.018   0.710   3.905  1.3719  0.1006  0.5450
 3755TIP3   OH232755   3.106   3.268  12.879 -0.0957 -0.3242 -0.0612
 3755TIP3    H132756   3.093   3.179  12.911 -0.9812 -0.2546 -0.1767
 3755TIP3    H232757   3.128   3.258  12.787  0.5544 -0.4498  0.1049
 3756TIP3   OH232758   0.752   1.331  16.836 -0.4812  0.2015  0.2348
 3756TIP3    H132759   0.805   1.281  16.898  0.6327  1.4386  0.3254
 3756TIP3    H232760   0.742   1.272  16.761  0.3096 -0.3738  0.5648
 3757TIP3   OH232761   4.982   5.303  11.165 -0.6359  0.1553  0.7087
 3757TIP3    H132762   5.030   5.381  11.193  2.6525 -1.5924  0.3792
 3757TIP3    H232763   4.981   5.309  11.070  0.0336 -0.4005  0.6612
 3758TIP3   OH232764   0.074   6.127  14.327 -0.2761  0.1320  0.1380
 3758TIP3    H132765   0.033   6.161  14.247  1.9354  1.4142 -0.5295
 3758TIP3    H232766   0.165   6.154  14.321  0.6723 -2.3407  1.6747
 3759TIP3   OH232767   2.705   4.425  13.311  0.3165  0.2121  0.0049
 3759TIP3    H132768   2.657   4.376  13.377 -1.6711  0.8416 -0.9107
 3759TIP3    H232769   2.793   4.388  13.313 -0.6213 -2.1304  0.5885
 3760TIP3   OH232770   2.046   4.489  14.237 -0.1375  0.4744  0.2115
 3760TIP3    H132771   2.092   4.413  14.202 -0.3017  0.1367  0.7251
 3760TIP3    H232772   1.956   4.480  14.203 -0.8479 -0.9293  2.2736
 3761TIP3   OH232773   5.187   5.825   3.968  0.1490 -0.5257  0.2972
 3761TIP3    H132774   5.198   5.732   3.985 -0.9282 -0.3896  1.9950
 3761TIP3    H232775   5.276   5.860   3.966  0.7420 -1.8718 -2.6502
 3762TIP3   OH232776   6.012   4.401   4.387 -0.7148 -0.5375 -0.2606
 3762TIP3    H132777   5.959   4.360   4.454  1.0311 -0.0017  1.5430
 3762TIP3    H232778   5.954   4.466   4.346 -2.5876 -2.6437 -1.1362
 3763TIP3   OH232779   5.551   4.750   4.122 -0.0696 -0.0568  0.0219
 3763TIP3    H132780   5.484   4.808   4.084  0.9956  0.1732 -1.5883
 3763TIP3    H232781   5.634   4.790   4.096  0.7008 -2.0604 -0.7572
 3764TIP3   OH232782   0.577   2.228  14.914 -0.3593  0.2445 -0.1506
 3764TIP3    H132783   0.611   2.269  14.994  0.8397 -0.1006 -0.4567
 3764TIP3    H232784   0.575   2.135  14.934 -1.0725  0.2510 -0.1719
 3765TIP3   OH232785   2.434   3.136   3.294 -0.0060  0.3565  0.3584
 3765TIP3    H132786   2.484   3.211   3.325  0.8409  0.2916 -0.8159
 3765TIP3    H232787   2.358   3.173   3.250  0.1491  0.5020  0.2165
 3766TIP3   OH232788   2.321   0.119  16.961 -0.2809 -0.2810  0.0791
 3766TIP3    H132789   2.393   0.064  16.932 -0.7387 -0.6299 -0.4028
 3766TIP3    H232790   2.242   0.073  16.933 -0.6660  1.0234 -1.1265
 3767TIP3   OH232791   6.569   0.330  13.520  0.1077 -0.1898  0.4149
 3767TIP3    H132792   6.556   0.236  13.504  1.1903 -0.1170 -1.0359
 3767TIP3    H232793   6.653   0.334  13.567  1.5881  0.1878 -2.0947
 3768TIP3   OH232794   5.606   5.329  13.960  0.1548  0.1202  0.7426
 3768TIP3    H132795   5.650   5.373  14.033  1.1747 -0.0130  0.2343
 3768TIP3    H232796   5.574   5.400  13.904 -2.4958  0.2906  2.3058
 3769TIP3   OH232797   4.615   1.475  14.415 -0.4890  0.2541 -0.0739
 3769TIP3    H132798   4.675   1.516  14.353 -0.1079  0.6161  0.5264
 3769TIP3    H232799   4.653   1.492  14.501  0.9922 -3.3242  0.1451
 3770TIP3   OH232800   4.825   2.044  15.188  0.1812  0.2350  0.8027
 3770TIP3    H132801   4.882   2.038  15.112 -1.0264 -1.8531 -0.0393
 3770TIP3    H232802   4.880   2.018  15.262  0.1142 -3.3851 -0.2031
 3771TIP3   OH232803   2.589   3.961   1.453  0.1428  0.3693  0.6163
 3771TIP3    H132804   2.586   4.054   1.430  2.0057  0.1946 -0.5542
 3771TIP3    H232805   2.505   3.926   1.423 -1.2966  1.9376  2.5721
 3772TIP3   OH232806   6.285   4.134   3.082  0.4866 -0.0181  0.0606
 3772TIP3    H132807   6.198   4.094   3.081  0.2539  0.2276  2.8338
 3772TIP3    H232808   6.275   4.216   3.034 -0.3608 -0.7956 -1.1266
 3773TIP3   OH232809   2.162   1.232  15.312 -0.2460 -0.2446 -0.1949
 3773TIP3    H132810   2.106   1.301  15.279 -0.0467  0.0411  0.0542
 3773TIP3    H232811   2.238   1.278  15.348 -1.1135 -0.3890  2.0448
 3774TIP3   OH232812   6.274   5.839   4.488  0.0348 -0.1718  0.3289
 3774TIP3    H132813   6.206   5.907   4.487 -0.5156 -0.7250 -0.4302
 3774TIP3    H232814   6.311   5.840   4.400  1.0090  0.1048  0.7258
 3775TIP3   OH232815   3.147   4.771   3.766  0.2701  0.0854  0.5706
 3775TIP3    H132816   3.121   4.839   3.827 -0.4124  0.5729 -0.2378
 3775TIP3    H232817   3.115   4.802   3.681  1.5713 -0.3624 -0.1096
 3776TIP3   OH232818   3.310   2.996   5.076  0.0652 -0.4213  1.2159
 3776TIP3    H132819   3.393   3.042   5.089 -0.1138  0.1588  0.3962
 3776TIP3    H232820   3.244   3.056   5.109 -0.0614 -0.7002  1.4674
 3777TIP3   OH232821   3.110   1.497   6.514  0.2610 -0.2683  0.5522
 3777TIP3    H132822   3.118   1.575   6.569 -0.5500  0.4710 -0.3554
 3777TIP3    H232823   3.023   1.463   6.535  0.4285 -0.6746  0.5961
 3778TIP3   OH232824   4.662   0.123  16.027 -0.3281  0.6723 -0.3121
 3778TIP3    H132825   4.632   0.043  16.070  1.0373  0.9795  1.3471
 3778TIP3    H232826   4.618   0.123  15.942 -1.3512 -1.1702  0.1622
 3779TIP3   OH232827   2.011   0.247  16.294  0.3818 -0.6233 -0.0643
 3779TIP3    H132828   1.959   0.176  16.332  0.9543 -0.3259  1.3537
 3779TIP3    H232829   1.997   0.239  16.200 -2.1624 -0.6066  0.2268
 3780TIP3   OH232830   4.627   2.373  14.424 -0.0409 -0.2734  0.7739
 3780TIP3    H132831   4.579   2.456  14.430 -0.0530 -0.3238  1.4556
 3780TIP3    H232832   4.709   2.396  14.381 -0.5630 -0.1412 -0.1662
 3781TIP3   OH232833   2.993   4.634   5.163  0.1594 -0.4772 -0.1577
 3781TIP3    H132834   3.089   4.636   5.158  0.1221 -0.5933 -1.5181
 3781TIP3    H232835   2.974   4.598   5.249  1.3517 -0.8363 -0.0183
 3782TIP3   OH232836   5.556   3.360   3.270 -0.4730 -0.2109 -0.0091
 3782TIP3    H132837   5.576   3.290   3.207 -1.9260 -0.5214 -0.1589
 3782TIP3    H232838   5.462   3.371   3.264 -0.5022  0.4865  1.3799
 3783TIP3   OH232839   2.777   1.261   4.492 -0.3887 -0.4254 -0.1484
 3783TIP3    H132840   2.783   1.276   4.398 -2.4520  2.0971 -0.0074
 3783TIP3    H232841   2.684   1.244   4.507  0.1012 -2.0165  1.3244
 3784TIP3   OH232842   2.072   2.127   5.125 -0.5567 -0.3522 -0.3682
 3784TIP3    H132843   1.981   2.149   5.144 -0.3808 -0.1969  0.3397
 3784TIP3    H232844   2.081   2.036   5.154  0.0654  0.2964  1.6715
 3785TIP3   OH232845   1.479   4.530  16.436 -0.6955 -0.2647  0.4384
 3785TIP3    H132846   1.512   4.553  16.349 -2.1117  1.5744  0.3332
 3785TIP3    H232847   1.393   4.572  16.441 -0.8100 -0.6462  2.5947
 3786TIP3   OH232848   5.991   1.032   3.174 -0.2350 -0.3854  0.7361
 3786TIP3    H132849   5.932   1.103   3.150  1.1268  0.7803  0.7260
 3786TIP3    H232850   5.984   1.026   3.269 -0.4029 -0.2854  0.7297
 3787TIP3   OH232851   6.589   6.064   2.654  1.0963 -0.3595  0.0758
 3787TIP3    H132852   6.608   6.059   2.748 -0.5901 -0.3218  0.4487
 3787TIP3    H232853   6.502   6.024   2.645  1.5905 -1.1149 -1.5959
 3788TIP3   OH232854   4.098   0.255  16.419 -0.1499 -0.5176 -0.3085
 3788TIP3    H132855   4.104   0.340  16.376 -0.9794 -1.3111 -2.1383
 3788TIP3    H232856   4.007   0.249  16.448 -0.3329 -1.0751 -0.9465
 3789TIP3   OH232857   4.289   4.270  14.946  0.4101 -0.1743 -0.5606
 3789TIP3    H132858   4.215   4.330  14.933 -0.8817 -1.6569 -0.4624
 3789TIP3    H232859   4.366   4.319  14.919 -0.4382  1.9089  0.5810
 3790TIP3   OH232860   2.441   1.793  10.754 -0.2442 -0.0916  0.0325
 3790TIP3    H132861   2.482   1.707  10.742 -1.9590 -0.8521 -0.7559
 3790TIP3    H232862   2.372   1.778  10.819  0.4561  1.0853  1.1005
 3791TIP3   OH232863   0.730   5.609  16.325  0.1589  0.4006  0.4990
 3791TIP3    H132864   0.689   5.545  16.384  0.2793 -0.2389 -0.0936
 3791TIP3    H232865   0.785   5.662  16.383 -0.9284  0.8128  1.1958
 3792TIP3   OH232866   1.069   0.984   3.027 -0.2768  0.1142  0.1609
 3792TIP3    H132867   0.983   0.964   2.991  0.1670 -2.5431  0.3499
 3792TIP3    H232868   1.053   0.999   3.121 -0.6237  0.4836  0.0430
 3793TIP3   OH232869   5.465   3.139   2.672  0.1162  0.4344  0.0072
 3793TIP3    H132870   5.522   3.063   2.669 -1.2279 -0.6679  0.8073
 3793TIP3    H232871   5.460   3.162   2.765  1.8359  2.6156 -0.3544
 3794TIP3   OH232872   6.846   4.890   2.822  0.3859 -0.5111  0.0884
 3794TIP3    H132873   6.774   4.827   2.817  0.8529 -1.1359  0.8944
 3794TIP3    H232874   6.813   4.969   2.780  0.0288 -1.5213 -1.6208
 3795TIP3   OH232875   4.071   5.581   2.437 -0.1094 -0.6973 -0.4965
 3795TIP3    H132876   4.029   5.620   2.360 -1.0543 -2.3572 -0.8754
 3795TIP3    H232877   4.000   5.568   2.499  0.3546 -0.9247 -0.0065
 3796TIP3   OH232878   2.737   4.127   0.005 -0.4123  0.1187  0.0765
 3796TIP3    H132879   2.827   4.145  -0.021 -0.9088 -1.2211 -3.0699
 3796TIP3    H232880   2.743   4.099   0.097  2.3054  0.3251  0.0356
 3797TIP3   OH232881   5.285   6.596  13.366 -0.0025  0.2711  0.7727
 3797TIP3    H132882   5.205   6.572  13.413  0.5326  0.4877  1.8319
 3797TIP3    H232883   5.330   6.513  13.351  0.0208  0.2328  1.0335
 3798TIP3   OH232884   4.428   1.251   6.840  0.2975 -0.8537  1.0388
 3798TIP3    H132885   4.465   1.337   6.860 -1.5121 -0.2130  1.8704
 3798TIP3    H232886   4.453   1.196   6.915 -1.5003 -0.0423  2.3171
 3799TIP3   OH232887   3.569   5.804   5.585  0.4201 -0.0498 -0.1942
 3799TIP3    H132888   3.501   5.745   5.618  0.0426  1.3682  1.7471
 3799TIP3    H232889   3.580   5.779   5.493 -2.2080 -0.8150 -0.3872
 3800TIP3   OH232890   0.220   3.789  15.849 -0.1885  0.5305 -0.3571
 3800TIP3    H132891   0.225   3.790  15.944  1.2672 -2.6050 -0.2542
 3800TIP3    H232892   0.137   3.745  15.830  0.2595 -0.2989 -0.4498
 3801TIP3   OH232893   0.501   4.548  14.059  0.2543 -0.6781 -0.6703
 3801TIP3    H132894   0.526   4.466  14.102  0.6624 -0.1687  0.1140
 3801TIP3    H232895   0.443   4.591  14.122  1.2594  0.3125 -0.3771
 3802TIP3   OH232896   5.554   0.606   1.684 -0.4380 -0.3090  0.2449
 3802TIP3    H132897   5.553   0.566   1.597 -1.5247  0.0661  0.0574
 3802TIP3    H232898   5.476   0.570   1.727  0.3330 -0.8318  1.2381
 3803TIP3   OH232899   0.411   2.618   2.019 -0.1595  0.3008  0.5475
 3803TIP3    H132900   0.503   2.593   2.012  0.2891  2.1136 -0.6260
 3803TIP3    H232901   0.411   2.696   2.074 -0.8172  1.0829 -0.5200
 3804TIP3   OH232902   5.505   0.456  11.197  0.3497  0.2888  0.2302
 3804TIP3    H132903   5.598   0.436  11.201  0.2823 -0.2850 -0.6827
 3804TIP3    H232904   5.498   0.528  11.134  0.1102 -0.1914 -0.3020
 3805TIP3   OH232905   6.395   6.811   2.298  0.0170  0.0067 -0.5441
 3805TIP3    H132906   6.336   6.756   2.350  0.4578 -1.5577 -1.6207
 3805TIP3    H232907   6.475   6.759   2.290  0.4951  0.8541 -1.5406
 3806TIP3   OH232908   3.854   3.464   1.868  0.3049 -0.1914  0.0682
 3806TIP3    H132909   3.858   3.379   1.824 -2.0371 -0.4022  0.1387
 3806TIP3    H232910   3.774   3.459   1.921  2.0815  0.6906  3.0418
 3807TIP3   OH232911   2.934   0.438  12.510 -0.0089 -0.2547 -0.3950
 3807TIP3    H132912   2.990   0.511  12.536 -0.6795 -0.0510  0.5221
 3807TIP3    H232913   2.893   0.409  12.591 -0.5536 -0.9734 -0.9178
 3808TIP3   OH232914   5.395   5.445   3.215 -0.2044  0.1427  0.4293
 3808TIP3    H132915   5.455   5.384   3.171 -1.8334 -0.4681 -1.0670
 3808TIP3    H232916   5.309   5.403   3.208 -1.8897  3.5517 -2.9158
 3809TIP3   OH232917   6.816   3.800   5.756 -0.5985  0.1649  0.4301
 3809TIP3    H132918   6.889   3.739   5.768 -2.3051 -2.4933 -1.6019
 3809TIP3    H232919   6.787   3.785   5.666 -1.6283  3.5451  0.0684
 3810TIP3   OH232920   0.397   2.843   0.952  0.4173  0.2868 -0.4950
 3810TIP3    H132921   0.437   2.884   1.028 -2.2616 -0.6847  1.6035
 3810TIP3    H232922   0.414   2.749   0.963  0.2144  0.1564 -1.2090
 3811TIP3   OH232923   5.006   2.865  13.201 -0.2176  0.3460  0.7004
 3811TIP3    H132924   4.993   2.874  13.107  0.6493  0.5716  0.5891
 3811TIP3    H232925   4.918   2.872  13.239 -0.7486 -1.1925 -0.1854
 3812TIP3   OH232926   0.868   1.369  14.983 -0.0284  0.1302  0.0365
 3812TIP3    H132927   0.778   1.340  14.969  0.3103 -0.5547 -0.8291
 3812TIP3    H232928   0.914   1.344  14.902  0.7168  1.3429  0.0582
 3813TIP3   OH232929   3.030   1.828   5.184 -0.4978 -0.3280 -0.0170
 3813TIP3    H132930   2.999   1.818   5.274  1.3651  1.3301  0.8895
 3813TIP3    H232931   3.013   1.919   5.163  0.1426 -0.3986 -0.8989
 3814TIP3   OH232932   3.491   4.121  13.257  0.4342 -0.1793  0.1895
 3814TIP3    H132933   3.426   4.094  13.322  0.8494 -3.2035 -0.5261
 3814TIP3    H232934   3.441   4.138  13.177  0.4235 -2.3165 -0.3061
 3815TIP3   OH232935   6.624   4.672  11.218 -0.6815 -0.2748  0.6097
 3815TIP3    H132936   6.644   4.756  11.261 -0.2723 -0.4711  0.8111
 3815TIP3    H232937   6.664   4.606  11.275 -0.8880 -0.6000  0.3816
 3816TIP3   OH232938   6.721   1.966   5.038  0.7561  0.4039 -0.0696
 3816TIP3    H132939   6.665   2.041   5.057  1.1505  0.1977  2.1233
 3816TIP3    H232940   6.661   1.899   5.005  0.4435  1.7256 -2.3747
 3817TIP3   OH232941   2.978   3.445  13.034 -0.3375 -0.3293  0.1631
 3817TIP3    H132942   3.014   3.387  12.967 -0.1167 -0.0536  0.0392
 3817TIP3    H232943   2.899   3.482  12.994  1.2405  1.9697 -1.0651
 3818TIP3   OH232944   1.668   3.489   6.585  0.1120 -0.4468  0.6363
 3818TIP3    H132945   1.750   3.482   6.634  2.0741  0.2075 -2.2813
 3818TIP3    H232946   1.644   3.582   6.590  0.6444 -0.2627 -0.0829
 3819TIP3   OH232947   5.597   5.400   5.453  0.4231 -0.0375 -0.5715
 3819TIP3    H132948   5.670   5.377   5.395  0.6267 -0.1538 -0.2722
 3819TIP3    H232949   5.629   5.381   5.541  0.1515  0.2316 -0.4103
 3820TIP3   OH232950   3.082   5.055  13.168 -0.3716 -0.2975 -0.1077
 3820TIP3    H132951   3.102   5.058  13.262 -2.1132 -1.0949  0.3354
 3820TIP3    H232952   3.086   5.147  13.140 -1.2727  0.1504  1.1113
 3821TIP3   OH232953   1.686   0.557  14.619  0.1260 -0.1942 -0.7544
 3821TIP3    H132954   1.762   0.605  14.586 -0.6041  0.1383 -2.0297
 3821TIP3    H232955   1.617   0.576  14.555 -1.5519  0.9757  1.2798
 3822TIP3   OH232956   1.120   5.072   4.660  0.0562 -0.4747  0.7677
 3822TIP3    H132957   1.204   5.115   4.678 -0.5430  0.6541  0.9193
 3822TIP3    H232958   1.056   5.143   4.657 -0.6865 -1.1484 -0.7719
 3823TIP3   OH232959   4.048   2.541   2.016 -0.7419 -0.2372  0.4862
 3823TIP3    H132960   4.113   2.518   2.082 -0.4570 -0.1284  0.2505
 3823TIP3    H232961   3.981   2.472   2.023 -1.5949  0.6994  2.0368
 3824TIP3   OH232962   3.970   1.149   5.476 -0.0704  0.8766 -0.3974
 3824TIP3    H132963   4.006   1.064   5.453  0.6337  1.4597 -1.5096
 3824TIP3    H232964   3.929   1.181   5.395  0.9008  2.1971 -0.3956
 3825TIP3   OH232965   4.134   4.044  14.894 -0.1576 -0.2868 -0.1842
 3825TIP3    H132966   4.194   4.112  14.926 -1.0569 -0.2842  1.6013
 3825TIP3    H232967   4.181   4.003  14.821  0.6358  1.8648 -0.9521
 3826TIP3   OH232968   3.151   4.110  12.340  0.2518 -0.3753  0.2950
 3826TIP3    H132969   3.115   4.077  12.258  3.8795 -1.3776 -1.0924
 3826TIP3    H232970   3.090   4.078  12.407 -2.3661 -0.2648 -1.8493
 3827TIP3   OH232971   3.521   2.472  16.445  0.1880 -0.2620 -0.4122
 3827TIP3    H132972   3.427   2.477  16.463  0.4202 -1.0230  1.2545
 3827TIP3    H232973   3.536   2.380  16.421  0.6721 -0.4664  0.6035
 3828TIP3   OH232974   1.747   3.105   2.837 -0.5858  0.2347 -0.1821
 3828TIP3    H132975   1.749   3.154   2.919  1.2503  0.8705 -0.5775
 3828TIP3    H232976   1.738   3.013   2.865 -1.9626  0.5879  0.6292
 3829TIP3   OH232977   0.092   3.462  13.970  0.1079  0.0765 -0.7694
 3829TIP3    H132978   0.163   3.466  14.034 -0.7190 -0.4771  0.2150
 3829TIP3    H232979   0.067   3.554  13.956  0.2098  0.1955 -0.1899
 3830TIP3   OH232980   0.845   5.309  12.128  0.6038 -0.4184 -0.3054
 3830TIP3    H132981   0.774   5.347  12.181  1.3542  0.6243 -0.0243
 3830TIP3    H232982   0.839   5.356  12.045  2.4360  1.4223  0.5281
 3831TIP3   OH232983   6.640   2.476  11.853 -0.3145  0.0827 -0.3976
 3831TIP3    H132984   6.605   2.435  11.774 -0.2457  1.0168 -0.9346
 3831TIP3    H232985   6.580   2.548  11.871  0.1574  0.4135 -0.1132
 3832TIP3   OH232986   1.499   5.879  16.280  0.3393  0.1832 -0.0956
 3832TIP3    H132987   1.456   5.821  16.342  0.1967  1.0797  0.6561
 3832TIP3    H232988   1.457   5.965  16.293  1.3454  0.7328 -0.3651
 3833TIP3   OH232989   0.569   4.258   2.916  0.6000  0.9630  0.3309
 3833TIP3    H132990   0.595   4.256   2.824 -0.7216  0.8699 -0.0619
 3833TIP3    H232991   0.513   4.181   2.926 -0.9515  2.0900  0.6756
 3834TIP3   OH232992   4.691   4.834  15.166 -0.0160 -0.4692  0.2249
 3834TIP3    H132993   4.640   4.865  15.241 -0.0014 -0.7152  0.3395
 3834TIP3    H232994   4.648   4.753  15.140  0.3992 -0.7510  0.4122
 3835TIP3   OH232995   3.950   2.772   3.569 -0.4667 -0.5700  0.1099
 3835TIP3    H132996   4.030   2.824   3.584 -0.2475 -0.6323 -0.7928
 3835TIP3    H232997   3.981   2.682   3.561 -0.5837 -0.5606 -0.5246
 3836TIP3   OH232998   4.560   0.760  10.975 -0.1848 -0.1525 -0.2606
 3836TIP3    H132999   4.509   0.771  10.895 -1.8502 -0.6742  0.6652
 3836TIP3    H233000   4.494   0.751  11.044  1.1869  0.4862  1.2095
 3837TIP3   OH233001   6.053   6.371  14.314 -0.2972  0.0985  0.1874
 3837TIP3    H133002   6.054   6.280  14.344 -2.0672 -0.7775 -2.0598
 3837TIP3    H233003   5.977   6.410  14.357 -1.2888 -0.4012 -1.0407
 3838TIP3   OH233004   1.356   0.633  16.988  0.4461  0.2458 -0.1590
 3838TIP3    H133005   1.279   0.598  16.943 -0.5919  1.9180  0.2262
 3838TIP3    H233006   1.413   0.665  16.917 -1.1519  2.8142 -0.4002
 3839TIP3   OH233007   6.589   0.036   5.536 -0.2358  1.0981  0.1873
 3839TIP3    H133008   6.560   0.014   5.624 -2.5096 -0.3910 -0.8325
 3839TIP3    H233009   6.585   0.132   5.532  4.0968  1.6382  2.9140
 3840TIP3   OH233010   4.876   5.711   6.425 -0.0767  0.0603  0.3912
 3840TIP3    H133011   4.868   5.794   6.473  0.0110  0.2608  0.0668
 3840TIP3    H233012   4.818   5.651   6.471 -0.1555  0.3088  0.6210
 3841TIP3   OH233013   1.467   4.828   5.120 -0.0296  0.3849 -0.1842
 3841TIP3    H133014   1.458   4.735   5.143 -0.7384  0.6184  0.5232
 3841TIP3    H233015   1.428   4.875   5.194 -1.3730  1.2119 -1.3669
 3842TIP3   OH233016   2.679   3.919  16.419  0.4040 -0.1065 -0.1987
 3842TIP3    H133017   2.769   3.940  16.445  1.1545 -0.8425 -2.0295
 3842TIP3    H233018   2.647   3.999  16.377  0.6796 -0.2456 -0.6878
 3843TIP3   OH233019   6.070   5.594  13.694 -0.7634 -0.8514  0.3997
 3843TIP3    H133020   6.012   5.589  13.618  0.2331  1.0594 -0.5375
 3843TIP3    H233021   6.060   5.683  13.726 -0.1234 -1.2190  1.7079
 3844TIP3   OH233022   0.812   0.011  13.628  0.1221  0.0799  0.1730
 3844TIP3    H133023   0.753   0.065  13.576 -0.5859 -1.3349 -0.5608
 3844TIP3    H233024   0.776   0.012  13.716 -1.0498 -0.7929 -0.2730
 3845TIP3   OH233025   5.530   0.817  16.747 -0.5283  0.8670 -0.8494
 3845TIP3    H133026   5.556   0.738  16.793 -0.8939  0.8805 -0.6147
 3845TIP3    H233027   5.564   0.805  16.658  2.2417  1.8736 -0.0326
 3846TIP3   OH233028   4.024   4.039   1.803 -0.1672  0.0867  0.1020
 3846TIP3    H133029   3.944   4.092   1.810 -0.5836 -0.6041  0.7812
 3846TIP3    H233030   4.000   3.955   1.844  0.8266 -0.2154  0.0754
 3847TIP3   OH233031   2.970   3.986  12.512 -0.2974 -0.3147  0.3907
 3847TIP3    H133032   2.975   3.893  12.490  2.1547 -0.2734  0.4439
 3847TIP3    H233033   2.883   4.013  12.484 -1.5534 -2.8758  1.4904
 3848TIP3   OH233034   3.528   3.493   3.593  0.0318 -0.2489  0.3093
 3848TIP3    H133035   3.440   3.456   3.598 -0.4776  0.7983 -0.4644
 3848TIP3    H233036   3.549   3.518   3.683 -1.2239  1.1568  0.2464
 3849TIP3   OH233037   4.998   2.570  15.480 -0.0115 -0.3111  0.0038
 3849TIP3    H133038   5.087   2.599  15.502 -0.2672 -0.4377  1.2660
 3849TIP3    H233039   4.978   2.615  15.397  1.0017  0.1725  0.0024
 3850TIP3   OH233040   2.883   4.940   5.130  0.2956 -0.1864  0.4413
 3850TIP3    H133041   2.944   4.999   5.175  2.0676 -0.2325 -1.7171
 3850TIP3    H233042   2.922   4.854   5.138  0.8276 -0.1503 -1.3655
 3851TIP3   OH233043   4.385   2.145   0.338 -0.0957 -0.0250  0.6377
 3851TIP3    H133044   4.446   2.073   0.358 -0.2189  0.0288  1.2078
 3851TIP3    H233045   4.401   2.210   0.407  0.3214  0.6957 -0.1138
 3852TIP3   OH233046   1.151   3.970   3.087 -0.3379  0.2338  0.5415
 3852TIP3    H133047   1.123   3.907   3.154 -2.3795 -1.1820 -1.4881
 3852TIP3    H233048   1.231   3.933   3.051 -1.4601 -1.2692 -0.5613
 3853TIP3   OH233049   3.231   1.724  13.012 -0.0875  0.3531  0.7707
 3853TIP3    H133050   3.153   1.723  12.957  0.0035  2.0229  0.5617
 3853TIP3    H233051   3.303   1.706  12.952  0.0768  2.7408  0.1370
 3854TIP3   OH233052   1.995   6.817   2.139 -0.2834  0.1287  0.1757
 3854TIP3    H133053   1.980   6.905   2.104 -0.9111 -0.0904 -0.1173
 3854TIP3    H233054   2.073   6.786   2.094  0.6166  0.9618  1.1035
 3855TIP3   OH233055   4.689   2.723   5.325  0.6290 -0.1202  0.5186
 3855TIP3    H133056   4.678   2.732   5.231  0.9261 -1.1027  0.3782
 3855TIP3    H233057   4.745   2.646   5.336 -3.0320 -2.9527  1.5940
 3856TIP3   OH233058   3.719   2.287   3.542 -0.4199 -0.0866  0.0100
 3856TIP3    H133059   3.711   2.352   3.613  0.9362  0.8005 -0.6154
 3856TIP3    H233060   3.797   2.236   3.565  0.0069  0.1790 -0.7915
 3857TIP3   OH233061   3.099   2.708  14.711 -0.2669 -0.1406 -0.3557
 3857TIP3    H133062   3.067   2.794  14.684 -1.3264  0.1287  1.5601
 3857TIP3    H233063   3.135   2.722  14.798 -0.1682 -1.5835 -0.1414
 3858TIP3   OH233064   5.468   3.373   4.144 -0.1581 -0.5909 -0.3150
 3858TIP3    H133065   5.532   3.327   4.090 -0.4388  0.9489 -2.0447
 3858TIP3    H233066   5.515   3.393   4.225  0.4671 -2.3962 -0.1810
 3859TIP3   OH233067   5.913   6.221  13.141  0.8181 -0.2500  0.1395
 3859TIP3    H133068   5.828   6.234  13.100  0.0253 -1.6770  1.2320
 3859TIP3    H233069   5.929   6.301  13.190  0.0267 -0.0285  0.0405
 3860TIP3   OH233070   3.846   0.768  13.615 -0.3352 -0.0007  0.1792
 3860TIP3    H133071   3.898   0.722  13.550 -1.5930 -0.6757 -0.3838
 3860TIP3    H233072   3.871   0.860  13.606  2.4571 -0.5109  1.5282
 3861TIP3   OH233073   1.118   4.500  13.439 -0.1442  0.2331 -0.1355
 3861TIP3    H133074   1.196   4.497  13.494 -0.7509  1.1970  0.8257
 3861TIP3    H233075   1.146   4.545  13.360  0.2027  0.8702  0.3411
 3862TIP3   OH233076   1.128   3.976   2.405  0.4708  0.3568  0.3994
 3862TIP3    H133077   1.217   3.955   2.435  0.7956 -0.6660 -1.1445
 3862TIP3    H233078   1.081   3.894   2.414  0.8392 -0.3021 -2.6149
 3863TIP3   OH233079   5.576   5.844   1.072  0.1716 -0.1112  0.6578
 3863TIP3    H133080   5.527   5.874   0.995 -1.9504  0.8879  2.2740
 3863TIP3    H233081   5.655   5.898   1.072  0.1773 -0.0753 -0.7619
 3864TIP3   OH233082   3.094   6.025  12.149 -0.7480  0.1144  0.0329
 3864TIP3    H133083   3.024   6.038  12.212 -0.6430 -0.5346  0.2857
 3864TIP3    H233084   3.174   6.022  12.201 -0.6071  0.0918 -0.1806
 3865TIP3   OH233085   6.431   6.652  14.199  0.0404 -0.2148  0.2518
 3865TIP3    H133086   6.455   6.604  14.120 -1.1045  0.5493 -0.5804
 3865TIP3    H233087   6.367   6.595  14.242 -0.1878 -0.1183  0.0418
 3866TIP3   OH233088   4.657   3.798  12.959  0.2763 -0.5931  0.4930
 3866TIP3    H133089   4.742   3.832  12.931 -0.5019 -0.3717 -1.7771
 3866TIP3    H233090   4.616   3.871  13.005  0.7323 -0.2178  0.3159
 3867TIP3   OH233091   1.224   6.716  14.578 -0.4166 -0.1971  0.2060
 3867TIP3    H133092   1.131   6.719  14.559 -0.1305  1.1234 -1.1081
 3867TIP3    H233093   1.232   6.752  14.667 -1.0594  0.6908 -0.0855
 3868TIP3   OH233094   3.143   4.130   0.446 -0.2435  0.2800  0.0711
 3868TIP3    H133095   3.109   4.202   0.499  1.0311  1.0814 -0.1474
 3868TIP3    H233096   3.237   4.149   0.438 -0.2144 -0.3796 -1.5693
 3869TIP3   OH233097   1.485   5.359  12.591  0.4122  0.5643 -0.7692
 3869TIP3    H133098   1.537   5.440  12.595 -0.2872  1.0037 -0.2832
 3869TIP3    H233099   1.395   5.390  12.579  0.2060 -0.1712 -1.1692
 3870TIP3   OH233100   6.678   6.558   5.707  0.0946 -0.0314 -0.5451
 3870TIP3    H133101   6.672   6.547   5.612  0.6622  2.1270 -0.9019
 3870TIP3    H233102   6.760   6.607   5.720  0.9312 -1.7566  1.2367
 3871TIP3   OH233103   2.287   4.925  13.875  0.0184  0.1154  0.1805
 3871TIP3    H133104   2.304   4.960  13.963  2.2221 -0.9967  0.2713
 3871TIP3    H233105   2.207   4.873  13.885  1.3628 -1.7824  2.1648
 3872TIP3   OH233106   6.811   2.491  15.760 -0.0067  0.0810 -0.2235
 3872TIP3    H133107   6.890   2.486  15.706  0.4734 -0.5058  0.5044
 3872TIP3    H233108   6.784   2.583  15.754 -2.5240 -0.6905 -4.9397
 3873TIP3   OH233109   4.754   5.778   3.771 -0.3347 -0.4883  0.2347
 3873TIP3    H133110   4.769   5.833   3.847  0.4764 -0.7742  0.2921
 3873TIP3    H233111   4.837   5.780   3.723 -0.8980 -0.1557 -0.7463
 3874TIP3   OH233112   4.046   3.364   3.467  0.0839  0.2210 -0.2549
 3874TIP3    H133113   3.972   3.346   3.525  0.7510 -1.1131  0.2227
 3874TIP3    H233114   4.009   3.418   3.397 -0.9285  1.1385  0.9380
 3875TIP3   OH233115   3.637   6.379   3.194 -0.3353 -0.4093 -0.3452
 3875TIP3    H133116   3.660   6.466   3.226  0.2851 -0.8244  0.3905
 3875TIP3    H233117   3.695   6.363   3.120  0.5979 -0.7756  0.4475
 3876TIP3   OH233118   4.031   4.416  14.911 -0.3573 -0.2674  0.5772
 3876TIP3    H133119   4.023   4.397  15.004 -1.6730 -1.1819  0.3065
 3876TIP3    H233120   3.965   4.360  14.869  0.8423 -0.5797 -0.9949
 3877TIP3   OH233121   5.319   5.855  13.384 -0.3584 -0.0037 -0.3432
 3877TIP3    H133122   5.344   5.766  13.409 -0.1821  0.3016  0.6471
 3877TIP3    H233123   5.276   5.890  13.463 -2.1204  0.1562 -1.3332
 3878TIP3   OH233124   0.104   2.153  10.802 -0.1360  0.1946 -0.0662
 3878TIP3    H133125   0.118   2.145  10.896  0.1206  1.5188  0.0372
 3878TIP3    H233126   0.136   2.241  10.781 -1.8547  0.6236 -1.0686
 3879TIP3   OH233127   6.648   0.234   0.897  0.0368  0.1563  0.2329
 3879TIP3    H133128   6.620   0.302   0.959  0.6310  0.5105  0.1190
 3879TIP3    H233129   6.570   0.180   0.884 -0.6492  1.2205 -0.1909
 3880TIP3   OH233130   4.219   1.702   2.228  0.0193  0.4844  0.4268
 3880TIP3    H133131   4.127   1.679   2.224  0.5186 -1.9173  0.8256
 3880TIP3    H233132   4.243   1.721   2.137  0.1080 -3.7112 -0.6660
 3881TIP3   OH233133   4.331   0.679   4.376  0.1982  0.0368  0.3198
 3881TIP3    H133134   4.252   0.704   4.425  0.0051 -0.7106  0.4062
 3881TIP3    H233135   4.329   0.735   4.299 -1.8657 -1.7166 -1.0282
 3882TIP3   OH233136   2.787   2.433  13.995  0.3424 -0.0079 -0.2386
 3882TIP3    H133137   2.790   2.508  13.936 -1.1453  0.3231  0.0830
 3882TIP3    H233138   2.879   2.414  14.014  0.7579  2.6359  0.8054
 3883TIP3   OH233139   1.580   2.254  12.036 -0.3843 -0.9078  0.2313
 3883TIP3    H133140   1.580   2.279  12.129 -1.2052  1.0799 -0.2537
 3883TIP3    H233141   1.496   2.209  12.024  1.1226 -4.2700  1.1199
 3884TIP3   OH233142   2.500   2.082   0.001 -0.0385  0.0403 -0.1976
 3884TIP3    H133143   2.452   2.154   0.042  0.4945 -0.9214  2.3243
 3884TIP3    H233144   2.574   2.125  -0.043 -0.3389  1.1193  0.3108
 3885TIP3   OH233145   0.179   3.874  11.958  0.2004  0.1460  0.1445
 3885TIP3    H133146   0.108   3.911  11.905 -0.9912  0.2749  1.7745
 3885TIP3    H233147   0.158   3.780  11.963 -1.4091  0.5422  2.7743
 3886TIP3   OH233148   0.743   0.718  14.435  0.6933 -0.4547  0.3305
 3886TIP3    H133149   0.827   0.684  14.466  0.3830  0.3000  2.1103
 3886TIP3    H233150   0.699   0.641  14.398  1.1280 -1.4346  1.7447
 3887TIP3   OH233151   4.093   4.494   4.735 -0.2255 -0.2441  0.5621
 3887TIP3    H133152   4.048   4.559   4.682  0.7276 -1.8154 -2.3592
 3887TIP3    H233153   4.022   4.447   4.781 -1.3780 -0.6848 -1.5579
 3888TIP3   OH233154   5.257   1.674  13.547  0.1993  0.0640 -0.1248
 3888TIP3    H133155   5.207   1.717  13.617 -1.5743 -0.7708 -0.8230
 3888TIP3    H233156   5.340   1.723  13.543 -1.9816  4.0891 -1.5114
 3889TIP3   OH233157   3.758   4.354  15.675 -0.1234  0.0377 -0.0758
 3889TIP3    H133158   3.710   4.391  15.749 -0.3783  0.3908 -0.4116
 3889TIP3    H233159   3.817   4.289  15.714  1.1670  1.5801  0.6878
 3890TIP3   OH233160   5.071   2.664   1.647 -0.2940  0.2917  0.2940
 3890TIP3    H133161   5.158   2.664   1.607 -0.4096  0.5467  0.0394
 3890TIP3    H233162   5.033   2.748   1.622 -0.2996  0.5342  1.0987
 3891TIP3   OH233163   2.064   4.156  14.972 -0.2340 -0.2778 -0.0941
 3891TIP3    H133164   2.153   4.128  14.993 -0.7965 -1.2191  1.1782
 3891TIP3    H233165   2.044   4.223  15.038  0.3890  1.7986 -1.9139
 3892TIP3   OH233166   5.652   6.817   6.062  0.1116 -0.5478  0.0166
 3892TIP3    H133167   5.651   6.766   6.143  0.8851  0.5462  0.7339
 3892TIP3    H233168   5.595   6.768   6.003  1.4618 -2.7082  0.3860
 3893TIP3   OH233169   0.291   4.064  15.668 -0.0790  0.1029  0.5189
 3893TIP3    H133170   0.326   4.028  15.587 -1.6885 -0.3535  0.0021
 3893TIP3    H233171   0.245   3.991  15.710  0.4515  0.4148  1.6948
 3894TIP3   OH233172   4.518   3.434  17.044  0.1986 -0.6051  0.2065
 3894TIP3    H133173   4.599   3.390  17.072  0.5468  1.0553  1.9495
 3894TIP3    H233174   4.527   3.524  17.074 -2.4487 -0.4269  0.7073
 3895TIP3   OH233175   2.040   2.698  13.895  0.3692 -0.0023 -0.0327
 3895TIP3    H133176   1.967   2.741  13.940  1.0658  0.5313  0.5975
 3895TIP3    H233177   2.038   2.608  13.926  0.2263  0.1098  0.2834
 3896TIP3   OH233178   2.090   4.840  13.600 -0.0891 -0.1885 -0.4895
 3896TIP3    H133179   2.022   4.850  13.666 -1.1305  1.1987 -1.7021
 3896TIP3    H233180   2.083   4.919  13.545  2.6615  0.1519 -0.5258
 3897TIP3   OH233181   1.198   0.701  11.240 -0.2715  0.1282  0.3870
 3897TIP3    H133182   1.149   0.769  11.286 -0.3964 -0.1123  0.6059
 3897TIP3    H233183   1.208   0.631  11.304  0.3359  0.1658  0.3389
 3898TIP3   OH233184   4.845   0.550   2.299 -0.1684 -0.5197  0.1481
 3898TIP3    H133185   4.826   0.638   2.266 -0.6068 -0.7410 -0.2054
 3898TIP3    H233186   4.758   0.512   2.314  0.0238 -0.8393  0.4444
 3899TIP3   OH233187   6.469   4.265   4.573  0.2317 -0.1495  0.2144
 3899TIP3    H133188   6.474   4.203   4.500 -0.7498 -0.2285  0.2058
 3899TIP3    H233189   6.560   4.276   4.601  0.5238 -0.8038 -0.4455
 3900TIP3   OH233190   4.864   3.899  16.880  0.3792 -0.5801 -0.5064
 3900TIP3    H133191   4.857   3.804  16.890 -1.8277 -0.3265  1.2845
 3900TIP3    H233192   4.796   3.934  16.938  0.6137  2.0827 -1.6970
 3901TIP3   OH233193   5.553   2.756  13.209 -0.1698  0.2493 -0.1112
 3901TIP3    H133194   5.568   2.666  13.237  1.7520  0.6828  0.4577
 3901TIP3    H233195   5.529   2.803  13.290  3.1823  1.0524  0.5816
 3902TIP3   OH233196   1.552   5.206   1.212 -0.2667  0.6046  0.3160
 3902TIP3    H133197   1.591   5.222   1.298 -0.2357 -0.5083  0.5245
 3902TIP3    H233198   1.482   5.143   1.228  0.9281 -1.0902 -0.6894
 3903TIP3   OH233199   5.947   2.715  11.067 -0.2445 -0.1101 -0.6386
 3903TIP3    H133200   6.017   2.708  11.002 -0.3021 -1.2006 -0.5848
 3903TIP3    H233201   5.866   2.705  11.018 -0.3656  0.7185 -0.6327
 3904TIP3   OH233202   1.941   1.026  15.306 -0.0013 -0.2346  0.1530
 3904TIP3    H133203   1.931   0.988  15.393  0.1165 -0.1955  0.1835
 3904TIP3    H233204   2.020   1.079  15.312  1.0544 -1.6557 -0.4846
 3905TIP3   OH233205   0.047   1.117  13.906 -0.0860 -0.1523 -0.0748
 3905TIP3    H133206   0.100   1.145  13.831 -0.1794 -0.2240 -0.1687
 3905TIP3    H233207  -0.025   1.181  13.909 -1.5353 -1.5900 -1.6283
 3906TIP3   OH233208   4.693   4.123  12.567 -0.5373  0.3324  0.5016
 3906TIP3    H133209   4.620   4.112  12.507 -1.2251 -0.7198  1.4768
 3906TIP3    H233210   4.686   4.214  12.597 -1.0869  0.4155  0.1383
 3907TIP3   OH233211   0.535   5.390  11.252  0.0785  0.7353  0.1748
 3907TIP3    H133212   0.500   5.478  11.237 -1.2955  0.2798  0.6343
 3907TIP3    H233213   0.593   5.375  11.177 -1.8708  0.9102 -1.4534
 3908TIP3   OH233214   2.061   5.075   3.389  0.0095  0.2359  0.0313
 3908TIP3    H133215   1.977   5.117   3.368 -0.1716  0.3619  0.9506
 3908TIP3    H233216   2.114   5.146   3.425  0.7612  0.3035 -1.1541
 3909TIP3   OH233217   6.470   0.607  16.250  0.3437 -0.2672  0.6678
 3909TIP3    H133218   6.547   0.578  16.299 -0.0938 -1.8579  0.4458
 3909TIP3    H233219   6.397   0.592  16.310  0.1413  0.8414  0.7196
 3910TIP3   OH233220   5.164   5.264   6.112 -0.0336  0.0226 -0.1717
 3910TIP3    H133221   5.114   5.238   6.034  1.4044 -0.6679 -0.9033
 3910TIP3    H233222   5.207   5.183   6.141 -2.7742 -0.4926  3.1589
 3911TIP3   OH233223   1.987   5.147  11.676 -0.6963  0.5519  0.0996
 3911TIP3    H133224   2.063   5.118  11.626 -0.6386  0.1814  0.3989
 3911TIP3    H233225   1.960   5.228  11.632  1.0194  1.7584  1.1400
 3912TIP3   OH233226   1.747   6.673   2.170  0.0527  0.0969  0.2303
 3912TIP3    H133227   1.726   6.767   2.174 -1.5284 -0.2250 -0.0417
 3912TIP3    H233228   1.840   6.671   2.148 -0.1795  1.6139 -1.1135
 3913TIP3   OH233229   3.276   0.417  16.656  0.6285  0.1984  0.4745
 3913TIP3    H133230   3.256   0.510  16.653  0.0791  0.0822  0.4437
 3913TIP3    H233231   3.195   0.375  16.686  0.7438 -0.3019  0.1132
 3914TIP3   OH233232   1.288   4.431  13.644  0.2145 -0.0374  0.8662
 3914TIP3    H133233   1.351   4.450  13.575 -0.2956  1.0057  0.6569
 3914TIP3    H233234   1.318   4.482  13.719  0.6429 -0.9913  1.3576
 3915TIP3   OH233235   5.638   0.692  10.257  0.0821 -0.2838 -0.1597
 3915TIP3    H133236   5.699   0.716  10.327  3.4616  0.7501 -3.1673
 3915TIP3    H233237   5.631   0.771  10.203 -4.7323 -0.0726  0.3173
 3916TIP3   OH233238   2.941   1.730   1.539 -0.4997  0.2340  0.2537
 3916TIP3    H133239   2.907   1.650   1.500 -1.1113  0.6787 -0.1322
 3916TIP3    H233240   3.034   1.712   1.553  0.0235  0.4470 -2.4311
 3917TIP3   OH233241   4.627   1.135   0.085  0.1920 -0.0679 -0.2579
 3917TIP3    H133242   4.666   1.050   0.061  0.3066 -0.5804  1.5577
 3917TIP3    H233243   4.663   1.154   0.171 -1.1194  1.0364  0.0835
 3918TIP3   OH233244   0.447   1.604   1.779 -0.0870  0.3813 -0.0378
 3918TIP3    H133245   0.519   1.665   1.791 -0.1284  0.3039  0.6435
 3918TIP3    H233246   0.393   1.643   1.711  1.2121 -0.1332 -1.4137
 3919TIP3   OH233247   4.849   2.191  12.019  0.0231 -0.6314 -0.0572
 3919TIP3    H133248   4.875   2.105  12.050  0.0543 -1.2156 -1.6612
 3919TIP3    H233249   4.912   2.251  12.059  2.1795 -1.7226 -1.6237
 3920TIP3   OH233250   0.586   4.635   4.202 -0.1428  0.5461  0.0169
 3920TIP3    H133251   0.661   4.588   4.240 -1.0888 -0.7597  0.3279
 3920TIP3    H233252   0.555   4.691   4.273  0.6962  1.3198 -0.2041
 3921TIP3   OH233253   0.604   0.229   2.203  0.1081 -0.2231  0.1982
 3921TIP3    H133254   0.543   0.271   2.142  0.1771 -0.8464 -0.3160
 3921TIP3    H233255   0.557   0.227   2.286  0.3011  1.3203  0.3709
 3922TIP3   OH233256   4.947   3.879   2.494  0.0717  0.6931  0.4825
 3922TIP3    H133257   5.017   3.814   2.495  2.3814  2.9912 -0.7165
 3922TIP3    H233258   4.930   3.897   2.587 -2.0647 -2.8655  0.9708
 3923TIP3   OH233259   0.849   4.999  14.883 -0.2868  0.2840 -0.0193
 3923TIP3    H133260   0.876   5.054  14.956 -1.6955 -0.2227  0.9340
 3923TIP3    H233261   0.761   5.029  14.862 -0.7764 -1.0550  0.0124
 3924TIP3   OH233262   1.617   4.677   1.840  0.1171 -0.1134  0.4786
 3924TIP3    H133263   1.619   4.620   1.917 -0.8256 -0.5234  0.2224
 3924TIP3    H233264   1.563   4.752   1.867  0.9472  0.4390  0.6558
 3925TIP3   OH233265   1.043   0.093  13.536 -0.5199 -0.6093 -0.0508
 3925TIP3    H133266   0.966   0.049  13.573 -0.6731 -0.6410 -0.4044
 3925TIP3    H233267   1.087   0.132  13.612 -1.0643 -0.3071  0.1197
 3926TIP3   OH233268   6.677   6.575  13.334 -0.1568 -0.2659  0.0263
 3926TIP3    H133269   6.707   6.501  13.281  0.6012  0.8415 -1.1290
 3926TIP3    H233270   6.586   6.588  13.307 -0.9069 -1.8197  1.5012
 3927TIP3   OH233271   2.837   4.362   4.103 -0.1360 -0.1002 -0.4283
 3927TIP3    H133272   2.861   4.297   4.169 -0.9849  1.4645  1.5477
 3927TIP3    H233273   2.741   4.365   4.106 -0.1921  0.0133 -1.7545
 3928TIP3   OH233274   1.650   0.027   1.269 -0.5301 -0.0814  0.3108
 3928TIP3    H133275   1.597  -0.025   1.330 -2.1235 -0.3027 -1.1618
 3928TIP3    H233276   1.661   0.112   1.312 -1.4214 -0.2990  0.9996
 3929TIP3   OH233277   6.794   1.862  13.871 -0.3972  0.5620  0.2970
 3929TIP3    H133278   6.713   1.877  13.823 -0.7952  2.2605  1.4019
 3929TIP3    H233279   6.801   1.937  13.930  1.2591 -0.2636  1.2253
 3930TIP3   OH233280   1.115   2.071   0.019 -0.1580 -0.2219  0.0908
 3930TIP3    H133281   1.156   2.006  -0.037 -0.6978 -0.4586 -0.0423
 3930TIP3    H233282   1.133   2.041   0.108  1.8500  0.8732  0.1026
 3931TIP3   OH233283   2.615   2.346   0.729  0.1570 -0.2337  0.0651
 3931TIP3    H133284   2.570   2.414   0.780 -0.4524 -1.8659  1.8136
 3931TIP3    H233285   2.600   2.371   0.638  1.3222  2.8321  0.5911
 3932TIP3   OH233286   5.969   0.231   0.905  0.3308  0.3685  0.0200
 3932TIP3    H133287   6.064   0.243   0.902  0.3447  0.1037 -0.6475
 3932TIP3    H233288   5.934   0.320   0.917  0.6063  0.6313 -1.0429
 3933TIP3   OH233289   2.217   6.042  16.395  0.2493  0.1326 -0.3260
 3933TIP3    H133290   2.232   6.132  16.423  0.8451  0.6247 -2.0782
 3933TIP3    H233291   2.228   6.045  16.300 -0.7171 -1.5986 -0.5291
 3934TIP3   OH233292   2.560   3.714  15.199  0.2202  0.4661  0.2758
 3934TIP3    H133293   2.487   3.681  15.145 -1.0579  3.4128  0.0198
 3934TIP3    H233294   2.558   3.660  15.277 -1.3820 -0.4195 -0.3230
 3935TIP3   OH233295   3.143   4.271  12.670  0.2903 -0.2912  0.2115
 3935TIP3    H133296   3.065   4.223  12.699 -0.3479  0.7914  0.3393
 3935TIP3    H233297   3.108   4.342  12.617  1.1987  0.2280  0.3078
 3936TIP3   OH233298   2.046   3.090   5.472 -0.0867  0.2404  0.4706
 3936TIP3    H133299   2.022   3.055   5.386 -2.0680 -0.0053  1.0815
 3936TIP3    H233300   2.084   3.176   5.453 -1.1428  0.4906 -0.6232
 3937TIP3   OH233301   2.997   6.810  16.938 -0.3259 -0.4545 -0.0401
 3937TIP3    H133302   2.954   6.729  16.965  1.6261 -1.7293 -0.5457
 3937TIP3    H233303   2.969   6.823  16.847  0.8698 -1.7213 -0.6399
 3938TIP3   OH233304   0.106   4.178   0.586  0.4736 -0.4420 -0.5086
 3938TIP3    H133305   0.062   4.105   0.543  2.7437 -1.7994 -0.7146
 3938TIP3    H233306   0.194   4.179   0.547  0.9087  1.6159  0.3998
 3939TIP3   OH233307   1.370   3.231  17.015  0.4019  0.0894  0.1286
 3939TIP3    H133308   1.459   3.237  17.048  0.5228 -2.2338  0.3628
 3939TIP3    H233309   1.371   3.157  16.954 -1.0312  0.9655 -1.0443
 3940TIP3   OH233310   2.059   2.241   3.154  0.0110 -0.2280 -0.5904
 3940TIP3    H133311   2.086   2.320   3.201  0.2640 -0.9401  0.5208
 3940TIP3    H233312   2.012   2.190   3.220 -0.9236 -0.6098 -1.5387
 3941TIP3   OH233313   5.492   5.033  14.044 -0.5094  0.2075 -0.5601
 3941TIP3    H133314   5.537   5.114  14.067  0.3966  0.1124 -1.8938
 3941TIP3    H233315   5.480   4.988  14.127 -0.8614  1.6043  0.1850
 3942TIP3   OH233316   0.394   5.552  16.539  0.3762  0.2508  0.0148
 3942TIP3    H133317   0.387   5.613  16.465  0.6154  2.1528  1.4707
 3942TIP3    H233318   0.446   5.480  16.506 -0.5444  0.4550 -2.0206
 3943TIP3   OH233319   6.416   5.607  13.842 -0.3442 -0.2789  0.0351
 3943TIP3    H133320   6.335   5.607  13.893  0.6050 -0.8255  1.6288
 3943TIP3    H233321   6.402   5.673  13.774 -0.6537  2.6914  2.7423
 3944TIP3   OH233322   1.580   6.638  11.707  0.2690  0.3158  0.7814
 3944TIP3    H133323   1.621   6.634  11.794 -0.0102 -0.4257  0.8884
 3944TIP3    H233324   1.647   6.675  11.650 -0.1034  2.4360  1.6373
 3945TIP3   OH233325   1.687   6.766  13.161 -0.1640  0.0909  0.2270
 3945TIP3    H133326   1.670   6.714  13.239  1.2662 -0.2393  0.3382
 3945TIP3    H233327   1.716   6.851  13.194 -0.7396  0.3645  0.0428
 3946TIP3   OH233328   5.646   2.049  14.563 -0.4292 -0.4689 -0.3932
 3946TIP3    H133329   5.604   1.973  14.522 -2.5155 -0.2165  1.1530
 3946TIP3    H233330   5.704   2.010  14.629  0.5432 -0.7572 -1.3769
 3947TIP3   OH233331   5.421   1.963  15.692  0.1739 -0.2482 -0.2170
 3947TIP3    H133332   5.413   1.869  15.675 -1.0226 -0.1924 -0.0447
 3947TIP3    H233333   5.404   2.004  15.607  2.0858 -0.1974 -0.6284
 3948TIP3   OH233334   0.138   4.506  12.460 -0.2761  0.7511 -0.2300
 3948TIP3    H133335   0.117   4.478  12.371 -1.2295  0.1525  0.1686
 3948TIP3    H233336   0.147   4.424  12.509  0.9289  1.0515  0.0839
 3949TIP3   OH233337   6.268   0.761   2.516 -0.0236 -0.4810  0.8535
 3949TIP3    H133338   6.276   0.687   2.576  2.9454  0.2381  1.5411
 3949TIP3    H233339   6.269   0.838   2.574  2.0370  0.1995  0.0288
 3950TIP3   OH233340   5.439   2.107   1.280 -0.0250 -0.3465  0.0920
 3950TIP3    H133341   5.365   2.156   1.244  0.5203  2.9648  2.9828
 3950TIP3    H233342   5.408   2.076   1.365  1.4227 -0.1936  0.7009
 3951TIP3   OH233343   3.125   0.622   6.484 -0.2143 -0.1602 -0.2100
 3951TIP3    H133344   3.186   0.667   6.542 -1.0002  0.9128 -0.2009
 3951TIP3    H233345   3.048   0.605   6.538 -0.1063 -1.1285 -0.3386
 3952TIP3   OH233346   3.084   0.152   0.792 -0.3362  0.1231  0.3811
 3952TIP3    H133347   3.005   0.128   0.743 -0.9626  1.2587  0.7958
 3952TIP3    H233348   3.066   0.240   0.823  1.6300  0.9274 -0.6062
 3953TIP3   OH233349   6.590   1.813  15.503  0.2295  0.2270  0.2149
 3953TIP3    H133350   6.632   1.873  15.564  2.7965 -0.7587 -0.4585
 3953TIP3    H233351   6.535   1.757  15.558 -2.7232  3.3557  0.8077
 3954TIP3   OH233352   5.073   0.695  16.269 -0.6926  0.4235  0.1303
 3954TIP3    H133353   5.109   0.696  16.180  1.9964  1.8746  1.1055
 3954TIP3    H233354   5.014   0.620  16.271  2.6396 -2.5252 -1.6209
 3955TIP3   OH233355   6.643   0.432  11.371  0.1838  0.2491 -0.4544
 3955TIP3    H133356   6.715   0.393  11.323  0.4478  0.2086 -0.0311
 3955TIP3    H233357   6.683   0.467  11.451 -0.5288 -1.3201  0.6379
 3956TIP3   OH233358   3.886   5.104   4.554 -0.4083  0.1687 -0.5752
 3956TIP3    H133359   3.922   5.191   4.567  0.3498 -0.1496 -0.4467
 3956TIP3    H233360   3.859   5.102   4.462  0.8720  0.1016 -0.9812
 3957TIP3   OH233361   4.648   0.653   4.225 -0.0603 -0.3961  0.3057
 3957TIP3    H133362   4.703   0.580   4.197  0.0055 -0.0306 -0.5497
 3957TIP3    H233363   4.700   0.731   4.206 -0.7864 -0.0507 -0.3255
 3958TIP3   OH233364   4.207   6.256  11.503 -0.1605 -0.1595  0.3976
 3958TIP3    H133365   4.210   6.178  11.447  1.4148  0.2292 -0.1056
 3958TIP3    H233366   4.127   6.301  11.476 -1.1445 -1.6095  0.7557
 3959TIP3   OH233367   0.657   2.256  12.096 -0.1895 -0.0087  0.2213
 3959TIP3    H133368   0.703   2.178  12.127  2.0110  1.4574  0.8404
 3959TIP3    H233369   0.636   2.304  12.177 -0.0797  0.8165 -0.2364
 3960TIP3   OH233370   1.595   0.939  11.078  0.8169  0.1806  0.5308
 3960TIP3    H133371   1.647   0.862  11.101  2.2729  0.9505 -0.0411
 3960TIP3    H233372   1.623   0.961  10.989  1.2706  2.0100  1.0760
 3961TIP3   OH233373   2.112   3.182  16.336  0.3319 -0.2358  0.5170
 3961TIP3    H133374   2.044   3.123  16.370  1.0555 -1.5562 -0.2404
 3961TIP3    H233375   2.078   3.213  16.253  0.6588 -0.9502  0.1059
 3962TIP3   OH233376   2.893   3.564  16.298  0.0616 -0.4469 -1.4758
 3962TIP3    H133377   2.823   3.626  16.321 -1.2092 -1.7123 -1.7393
 3962TIP3    H233378   2.937   3.604  16.224  0.3839  0.9241 -0.5831
 3963TIP3   OH233379   2.387   1.014   0.812  0.2688 -0.1238 -0.2104
 3963TIP3    H133380   2.410   1.090   0.758  2.3973 -0.0147  0.7764
 3963TIP3    H233381   2.328   1.049   0.879  1.1595  0.6605  0.1830
 3964TIP3   OH233382   4.657   6.017   5.138  0.0023 -0.0663 -0.3889
 3964TIP3    H133383   4.570   5.979   5.126 -0.5950  1.2984 -0.5146
 3964TIP3    H233384   4.704   5.995   5.058 -0.2805 -0.6651 -0.3929
 3965TIP3   OH233385   0.388   6.106   4.492 -0.4173  0.3139  0.3071
 3965TIP3    H133386   0.349   6.066   4.569  2.6077 -0.5391  1.5290
 3965TIP3    H233387   0.467   6.148   4.524  0.4462  0.7628 -2.1963
 3966TIP3   OH233388   2.231   0.683   0.672 -0.1268 -0.8524 -0.0187
 3966TIP3    H133389   2.218   0.637   0.589  2.3532  1.1528 -1.6780
 3966TIP3    H233390   2.209   0.774   0.652 -0.6927 -0.5360  1.9080
 3967TIP3   OH233391   5.791   2.091  15.285 -0.2934 -0.1045  0.2732
 3967TIP3    H133392   5.745   2.172  15.306 -1.1316 -0.1704 -1.1582
 3967TIP3    H233393   5.836   2.110  15.203  1.1923 -0.4739  0.9647
 3968TIP3   OH233394   4.661   1.756   4.037  0.1711  0.3456 -0.6597
 3968TIP3    H133395   4.677   1.661   4.039 -2.2109 -0.1296  0.0979
 3968TIP3    H233396   4.741   1.795   4.069  0.7826 -1.5044  0.2227
 3969TIP3   OH233397   3.272   6.712   2.533  0.4418  0.3585 -0.3819
 3969TIP3    H133398   3.244   6.621   2.539  1.7239 -0.1255 -1.2716
 3969TIP3    H233399   3.192   6.763   2.544 -0.2842 -0.8708  0.1739
 3970TIP3   OH233400   1.453   1.174   3.472  0.3056 -0.1081  0.1044
 3970TIP3    H133401   1.432   1.100   3.414  1.5463  0.3530 -0.9944
 3970TIP3    H233402   1.372   1.223   3.479 -0.0397 -0.5282 -0.7544
 3971TIP3   OH233403   1.987   1.536  14.438  0.1471  0.3229  0.1728
 3971TIP3    H133404   2.043   1.590  14.382  0.3470 -0.4825 -0.4176
 3971TIP3    H233405   1.937   1.599  14.489  1.5902  1.0800  0.7284
 3972TIP3   OH233406   4.941   4.019  14.238 -0.0039 -0.5208 -0.6668
 3972TIP3    H133407   5.026   4.054  14.210  1.3610 -2.1729  1.2172
 3972TIP3    H233408   4.908   3.972  14.161  0.6345  0.3465 -1.4928
 3973TIP3   OH233409   6.517   5.689   4.876 -0.2082  0.2959  0.2855
 3973TIP3    H133410   6.467   5.659   4.951 -1.8196 -0.4433 -1.0180
 3973TIP3    H233411   6.467   5.764   4.842 -0.8675 -0.8580 -1.4272
 3974TIP3   OH233412   5.844   3.833   5.690 -1.3192 -0.0034 -0.7206
 3974TIP3    H133413   5.853   3.869   5.778 -2.0204 -0.6254 -0.3822
 3974TIP3    H233414   5.890   3.749   5.693  1.5862  1.3993 -1.9095
 3975TIP3   OH233415   4.794   4.301  16.376  0.7517  0.2121  0.3482
 3975TIP3    H133416   4.771   4.352  16.298  1.9079  0.6855  0.2978
 3975TIP3    H233417   4.854   4.357  16.425  1.0125 -0.5808  0.9610
 3976TIP3   OH233418   3.753   0.711   6.070  0.3004 -0.7635  0.3204
 3976TIP3    H133419   3.685   0.650   6.042 -0.7890  0.6885 -0.3018
 3976TIP3    H233420   3.725   0.741   6.156 -0.7590  1.0674 -0.6124
 3977TIP3   OH233421   5.504   3.935  14.549  0.3841  0.1197  0.7892
 3977TIP3    H133422   5.463   3.912  14.465  0.6590  0.1334  0.6482
 3977TIP3    H233423   5.477   3.865  14.609 -2.5609  1.8121  1.6107
 3978TIP3   OH233424   1.217   2.512   5.576  0.0793 -0.4110 -0.6737
 3978TIP3    H133425   1.152   2.453   5.537  0.8527 -1.6234 -0.1791
 3978TIP3    H233426   1.199   2.508   5.670  0.0749  0.2288 -0.6461
 3979TIP3   OH233427   4.813   3.054  13.606 -0.5015 -0.0769  0.0068
 3979TIP3    H133428   4.870   3.074  13.680 -0.0529 -0.1300 -0.3169
 3979TIP3    H233429   4.860   3.089  13.530  0.7190 -2.9587 -0.6992
 3980TIP3   OH233430   5.912   6.095  13.721  0.3255 -0.0993  0.3563
 3980TIP3    H133431   5.977   6.086  13.652 -0.9347  1.0027 -1.0453
 3980TIP3    H233432   5.915   6.012  13.768  0.7654 -1.1622 -1.4479
 3981TIP3   OH233433   5.950   2.480  12.254  0.3310  0.0744  0.5244
 3981TIP3    H133434   6.004   2.403  12.269 -1.6743 -0.8831  3.7975
 3981TIP3    H233435   5.920   2.471  12.163 -0.5528 -3.5528  1.0434
 3982TIP3   OH233436   5.927   4.840  15.810 -0.8622  0.0528  0.4012
 3982TIP3    H133437   5.897   4.861  15.721 -1.0635 -0.8761  0.2412
 3982TIP3    H233438   5.999   4.778  15.798 -0.5698  0.2887  0.8775
 3983TIP3   OH233439   3.484   4.013   4.402 -0.3721  0.1643 -0.7135
 3983TIP3    H133440   3.521   4.090   4.359 -0.9151  1.9893  1.8500
 3983TIP3    H233441   3.394   4.008   4.369 -0.2205  0.3884 -1.1749
 3984TIP3   OH233442   6.514   4.612   1.011  0.6138  0.0490  0.0439
 3984TIP3    H133443   6.452   4.680   1.035  2.5749  2.1042 -0.3159
 3984TIP3    H233444   6.475   4.530   1.044 -0.9407  1.5679  2.2521
 3985TIP3   OH233445   4.646   0.258   2.083 -0.4338 -0.0513 -0.4653
 3985TIP3    H133446   4.664   0.352   2.086  2.5488 -0.5632  0.7591
 3985TIP3    H233447   4.646   0.237   1.989 -1.1699  1.1279 -0.7570
 3986TIP3   OH233448   2.653   0.546  16.684  0.2732 -0.2276  0.2507
 3986TIP3    H133449   2.596   0.475  16.657  0.3257 -0.5438  0.9562
 3986TIP3    H233450   2.735   0.503  16.708  0.7110  0.1894 -0.4411
 3987TIP3   OH233451   5.171   1.881   0.964 -0.1042 -0.2905  0.1280
 3987TIP3    H133452   5.138   1.805   0.916  0.3691  0.6398 -1.7219
 3987TIP3    H233453   5.098   1.942   0.965 -0.1611 -0.3640  0.7468
 3988TIP3   OH233454   2.432   1.854  15.145  0.3469  0.2249  0.3548
 3988TIP3    H133455   2.468   1.806  15.220  3.6852  1.2144 -0.4550
 3988TIP3    H233456   2.358   1.902  15.181  1.2599 -0.0643  2.8060
 3989TIP3   OH233457   0.480   0.679   2.255 -0.0820  0.7950  0.0324
 3989TIP3    H133458   0.502   0.714   2.341 -0.6847  1.0921  0.0702
 3989TIP3    H233459   0.561   0.686   2.204  0.1188  1.1429  0.4005
 3990TIP3   OH233460   2.286   5.564   0.402 -0.1724 -0.6422  0.3989
 3990TIP3    H133461   2.363   5.532   0.355 -0.5603 -0.2463 -0.5229
 3990TIP3    H233462   2.212   5.544   0.343 -0.4507  1.7827 -0.1566
 3991TIP3   OH233463   1.064   3.143  11.162  0.3015  0.3783  0.0408
 3991TIP3    H133464   1.078   3.236  11.144  2.6638 -0.1091 -1.0411
 3991TIP3    H233465   1.042   3.138  11.255  0.5844  1.9614  0.2037
 3992TIP3   OH233466   0.839   0.510   3.437 -0.1934 -0.3104  0.3273
 3992TIP3    H133467   0.862   0.447   3.505  0.2021 -1.2291 -0.6309
 3992TIP3    H233468   0.824   0.457   3.359  2.3596  0.9044 -1.1101
 3993TIP3   OH233469   4.533   3.516  15.914  1.0903  0.4775 -0.0283
 3993TIP3    H133470   4.592   3.592  15.911  0.8404  0.9019  2.7756
 3993TIP3    H233471   4.446   3.554  15.903  1.1132  0.2038 -1.3265
 3994TIP3   OH233472   1.555   4.367  13.215  0.2871  0.2165 -0.2157
 3994TIP3    H133473   1.536   4.291  13.161 -1.0338  1.0566 -0.9928
 3994TIP3    H233474   1.620   4.416  13.166  0.7201 -0.1231  0.0159
 3995TIP3   OH233475   6.217   4.920  16.091  0.1239  0.5109  0.3101
 3995TIP3    H133476   6.289   4.857  16.092 -0.8206 -0.6003  2.1006
 3995TIP3    H233477   6.243   4.988  16.153 -1.2714 -1.0633  2.7734
 3996TIP3   OH233478   4.072   1.412  10.578  0.2603  0.4881 -0.3163
 3996TIP3    H133479   4.121   1.333  10.603  0.1823  0.1814 -1.1205
 3996TIP3    H233480   3.986   1.400  10.619  0.1086 -0.0524 -0.7798
 3997TIP3   OH233481   0.819   0.064  16.468 -0.0784  0.4517  0.7254
 3997TIP3    H133482   0.743   0.123  16.470 -1.0163 -0.7259  1.7136
 3997TIP3    H233483   0.846   0.062  16.376 -1.8005  0.2430  0.1909
 3998TIP3   OH233484   5.474   6.281  12.669 -0.1320  0.3863 -0.7105
 3998TIP3    H133485   5.482   6.188  12.649  0.6755  0.2538  0.1671
 3998TIP3    H233486   5.402   6.286  12.731  1.4396 -0.0198  1.2731
 3999TIP3   OH233487   0.764   3.588  15.087 -0.1464 -0.0846  0.5576
 3999TIP3    H133488   0.797   3.527  15.020 -0.8580 -0.7166  0.7696
 3999TIP3    H233489   0.753   3.534  15.165  1.8980  0.9039  1.5951
 4000TIP3   OH233490   6.549   3.793  15.516  0.1929 -0.3058 -0.4156
 4000TIP3    H133491   6.548   3.783  15.421 -1.2569 -0.0118 -0.4577
 4000TIP3    H233492   6.533   3.886  15.531 -1.0323 -0.5708  0.1103
 4001TIP3   OH233493   0.153   1.684  13.776  0.8487 -0.4956 -0.3934
 4001TIP3    H133494   0.089   1.736  13.824  0.9570 -1.1279  0.4566
 4001TIP3    H233495   0.168   1.733  13.695  0.7056  0.6096  0.2360
 4002TIP3   OH233496   2.576   6.085   4.153 -0.1417 -0.1722 -0.3005
 4002TIP3    H133497   2.565   6.007   4.208 -0.0866  0.8120  1.1665
 4002TIP3    H233498   2.634   6.142   4.204 -1.4325  1.4849 -0.6146
 4003TIP3   OH233499   6.830   0.103  13.871  0.2534  0.7135 -0.3473
 4003TIP3    H133500   6.737   0.117  13.889  0.3821  0.2557  0.7387
 4003TIP3    H233501   6.836   0.011  13.845  0.4090  0.7350 -0.3896
 4004TIP3   OH233502   2.581   3.139   1.505 -0.2396 -0.1557 -0.6215
 4004TIP3    H133503   2.548   3.050   1.517 -0.9102  0.1159 -0.3967
 4004TIP3    H233504   2.531   3.174   1.431  0.0781  0.0036 -0.7620
 4005TIP3   OH233505   5.407   3.037  11.500 -0.5648  0.1225  0.4358
 4005TIP3    H133506   5.490   3.069  11.463 -0.9343  2.4314  1.4207
 4005TIP3    H233507   5.397   3.088  11.581 -2.2337 -1.1880  1.0897
 4006TIP3   OH233508   2.764   6.738   2.798 -0.6171 -0.4748 -0.0790
 4006TIP3    H133509   2.697   6.791   2.754 -0.7716 -0.9821 -0.4629
 4006TIP3    H233510   2.733   6.731   2.888 -0.3808  0.4338  0.0885
 4007TIP3   OH233511   2.328   4.633  16.406  0.1808 -0.2516  0.0748
 4007TIP3    H133512   2.318   4.608  16.314 -1.8875 -1.2348  0.5123
 4007TIP3    H233513   2.327   4.550  16.454  0.0116  0.3102  1.0743
 4008TIP3   OH233514   2.514   2.247  15.732  0.4946 -0.3985  0.2036
 4008TIP3    H133515   2.595   2.295  15.745  0.0132  0.3192  0.5939
 4008TIP3    H233516   2.542   2.156  15.721  1.2568 -0.3941  1.8688
 4009TIP3   OH233517   3.718   1.486   5.549  0.2467  0.2340  0.6430
 4009TIP3    H133518   3.721   1.521   5.638 -0.9709 -1.1961  1.2814
 4009TIP3    H233519   3.669   1.551   5.499  3.2162  2.4128  0.2833
 4010TIP3   OH233520   4.140   3.569   0.288  0.5431  0.0493  0.2395
 4010TIP3    H133521   4.094   3.564   0.204 -0.9926  0.1422  1.0290
 4010TIP3    H233522   4.141   3.478   0.320  1.6602 -0.0830 -0.1277
 4011TIP3   OH233523   3.184   5.532   7.195  0.2715  0.1757 -0.1292
 4011TIP3    H133524   3.167   5.469   7.125  0.3318  0.0857 -0.0627
 4011TIP3    H233525   3.250   5.490   7.250  0.9855  0.6729 -0.5902
 4012TIP3   OH233526   0.657   6.758   4.567 -0.5698  0.0118  0.1691
 4012TIP3    H133527   0.721   6.715   4.624 -1.2336 -4.2788 -1.9335
 4012TIP3    H233528   0.710   6.795   4.495 -0.1122  1.5383  1.2403
 4013TIP3   OH233529   5.428   6.145   0.966  0.4558 -0.2546  0.3269
 4013TIP3    H133530   5.477   6.198   0.902 -0.6916  1.6517  0.9245
 4013TIP3    H233531   5.464   6.171   1.051  0.9279 -1.6257  0.5556
 4014TIP3   OH233532   3.174   2.215   0.625 -0.4026  0.9103 -0.1162
 4014TIP3    H133533   3.164   2.258   0.710  2.8513  1.7215 -0.0005
 4014TIP3    H233534   3.117   2.139   0.630  0.2984  0.4538  3.1524
 4015TIP3   OH233535   0.495   4.020   1.773 -0.3852  0.0364  0.1483
 4015TIP3    H133536   0.536   4.002   1.857  0.1459  2.4818  0.4967
 4015TIP3    H233537   0.498   3.936   1.726  0.3690 -1.0869  2.0883
 4016TIP3   OH233538   2.179   6.724  15.374  0.4558  0.1393 -0.0464
 4016TIP3    H133539   2.231   6.644  15.378 -0.0302 -0.1938 -0.2161
 4016TIP3    H233540   2.089   6.695  15.393  0.5362  0.9337  1.7268
 4017TIP3   OH233541   5.257   3.400  16.105  0.1001 -0.3570 -0.7661
 4017TIP3    H133542   5.293   3.488  16.113  0.5828 -0.5514 -0.7770
 4017TIP3    H233543   5.299   3.363  16.027  1.4298 -1.3051  0.3470
 4018TIP3   OH233544   0.100   5.824   6.131  0.5679  0.2982 -0.0452
 4018TIP3    H133545   0.154   5.777   6.194  2.0143  1.4888 -0.3424
 4018TIP3    H233546   0.127   5.915   6.139 -1.4154  0.9416 -0.2235
 4019TIP3   OH233547   4.860   4.170  11.394  0.2641  0.4184  0.4482
 4019TIP3    H133548   4.913   4.136  11.322  0.2649  0.0132  0.6389
 4019TIP3    H233549   4.876   4.265  11.393  2.4097  0.1360  1.6107
 4020TIP3   OH233550   5.300   3.067  14.540  0.1089 -0.6678 -0.5992
 4020TIP3    H133551   5.367   3.010  14.577  0.0997 -1.3138 -1.5676
 4020TIP3    H233552   5.271   3.121  14.614  1.0840 -0.9732  0.0126
 4021TIP3   OH233553   0.109   4.059  15.342  0.5067 -0.1084  0.2091
 4021TIP3    H133554   0.116   3.974  15.387  1.5894 -0.0876  0.0986
 4021TIP3    H233555   0.083   4.120  15.411  0.0471 -0.4611  0.3562
 4022TIP3   OH233556   1.113   5.713   0.384 -0.4647 -0.3624  0.1238
 4022TIP3    H133557   1.160   5.718   0.467 -1.2894 -1.5898  0.6923
 4022TIP3    H233558   1.179   5.734   0.318  0.6413 -1.0789  0.9713
 4023TIP3   OH233559   0.056   6.332   0.820 -0.5280  0.2766 -0.2454
 4023TIP3    H133560   0.092   6.315   0.907 -1.4514  0.6330  0.2265
 4023TIP3    H233561   0.079   6.255   0.769  0.9943  0.5496 -0.0113
 4024TIP3   OH233562   5.364   3.751   5.470 -0.5346 -0.0889 -0.8180
 4024TIP3    H133563   5.459   3.750   5.458 -0.2154  0.4103  1.3270
 4024TIP3    H233564   5.329   3.739   5.381  1.5089 -0.9157 -1.5787
 4025TIP3   OH233565   2.047   4.228  13.922  0.9007  0.0687 -0.0966
 4025TIP3    H133566   1.993   4.183  13.857 -0.8938  0.1697  1.2445
 4025TIP3    H233567   2.002   4.312  13.936  0.3277 -0.5652  2.3476
 4026TIP3   OH233568   2.035   1.347  13.898 -0.5090  0.9382  0.3923
 4026TIP3    H133569   1.977   1.327  13.972 -0.8651  1.5060  0.2714
 4026TIP3    H233570   1.980   1.333  13.821 -0.4493  1.3685  0.2732
 4027TIP3   OH233571   4.242   6.818   3.929 -0.0621 -1.2778 -0.7513
 4027TIP3    H133572   4.189   6.781   3.859 -0.1864  0.6248 -1.7262
 4027TIP3    H233573   4.181   6.875   3.976  0.5688 -0.8350 -0.4707
 4028TIP3   OH233574   2.749   4.618   5.038  0.5218 -0.6884 -0.1430
 4028TIP3    H133575   2.817   4.658   4.984  0.6845 -0.0721  0.4931
 4028TIP3    H233576   2.798   4.573   5.107  0.2947 -0.0207  0.4684
 4029TIP3   OH233577   4.646   3.715   3.280  0.3497  0.0769 -0.4687
 4029TIP3    H133578   4.565   3.758   3.253  0.2461  0.3093  0.1924
 4029TIP3    H233579   4.675   3.667   3.203  0.2456  0.9949 -1.0966
 4030TIP3   OH233580   5.495   0.053   3.050  0.1182  0.3417  0.0784
 4030TIP3    H133581   5.408   0.016   3.064 -0.2216  0.9494 -0.3722
 4030TIP3    H233582   5.546   0.023   3.125 -1.0509  1.7027  1.4922
 4031TIP3   OH233583   5.574   0.332   4.129  0.0678 -0.2040  0.5621
 4031TIP3    H133584   5.652   0.387   4.121  1.5886 -2.0841  1.6057
 4031TIP3    H233585   5.574   0.304   4.221 -0.8372 -1.6303  0.1621
 4032TIP3   OH233586   3.899   2.566  14.853 -0.5601 -0.2314  0.3483
 4032TIP3    H133587   3.872   2.595  14.766 -0.3664  0.4272  0.5039
 4032TIP3    H233588   3.992   2.588  14.858 -1.0007  1.5561  1.4539
 4033TIP3   OH233589   4.588   2.713   4.603 -0.7978  0.0676  0.3438
 4033TIP3    H133590   4.539   2.729   4.684  2.3244  0.1812  2.3839
 4033TIP3    H233591   4.620   2.623   4.612  1.4111  0.8041  0.3541
 4034TIP3   OH233592   1.116   5.520   1.395 -0.0139  0.8022 -0.8189
 4034TIP3    H133593   1.041   5.538   1.452 -0.1292 -0.3633 -0.5756
 4034TIP3    H233594   1.130   5.426   1.403  0.2598  0.6844 -2.3725
 4035TIP3   OH233595   2.858   0.125  11.769  0.1189 -0.4296  0.2201
 4035TIP3    H133596   2.851   0.031  11.780 -0.8788 -0.2260  1.5860
 4035TIP3    H233597   2.896   0.156  11.851 -2.1994  0.6047  0.9982
 4036TIP3   OH233598   2.073   4.766  14.255 -0.0724  0.3527  0.0405
 4036TIP3    H133599   2.053   4.676  14.282 -0.8303  0.7634  0.8934
 4036TIP3    H233600   2.137   4.797  14.319  2.0624 -0.3506 -1.6431
 4037TIP3   OH233601   3.796   4.206   5.042  0.1150  0.4399 -0.5766
 4037TIP3    H133602   3.862   4.142   5.067  1.1544  2.1358  1.3364
 4037TIP3    H233603   3.830   4.245   4.961 -0.5202 -1.3280 -1.7410
 4038TIP3   OH233604   2.619   0.807  14.721 -0.2540 -0.3349  0.2491
 4038TIP3    H133605   2.628   0.860  14.642 -0.2741 -1.2432 -0.3648
 4038TIP3    H233606   2.536   0.760  14.709 -0.2789 -0.4468  0.8276
 4039TIP3   OH233607   4.702   5.849  11.228  0.5456 -0.5778  0.2564
 4039TIP3    H133608   4.647   5.858  11.150  0.2854  0.1847  0.5162
 4039TIP3    H233609   4.701   5.756  11.248  3.0761 -1.3404 -2.4230
 4040TIP3   OH233610   2.977   2.728  16.888 -0.2085  0.0462 -0.7147
 4040TIP3    H133611   3.059   2.679  16.893 -0.5459 -0.5195 -0.6440
 4040TIP3    H233612   2.909   2.662  16.902 -0.6182  0.8764  1.8834
 4041TIP3   OH233613   2.476   5.582   3.263  0.1093  0.6906  0.2099
 4041TIP3    H133614   2.406   5.620   3.209 -0.9155 -1.0167  0.2653
 4041TIP3    H233615   2.544   5.559   3.201 -1.2019 -1.5784 -0.4901
 4042TIP3   OH233616   3.054   5.308  13.810  0.1637  0.1512  0.0687
 4042TIP3    H133617   3.045   5.399  13.838 -0.3613  0.8817 -2.3081
 4042TIP3    H233618   2.967   5.284  13.777  0.5266 -0.9274 -0.1541
 4043TIP3   OH233619   0.400   3.292  11.367  0.5900 -0.7864  0.0346
 4043TIP3    H133620   0.335   3.329  11.427  1.6098 -1.5511  1.6788
 4043TIP3    H233621   0.428   3.366  11.313  1.9961  0.7741  2.6982
 4044TIP3   OH233622   2.863   1.878  14.950  0.1066  0.2480  0.3356
 4044TIP3    H133623   2.881   1.932  15.027 -0.1861 -0.2955  0.7984
 4044TIP3    H233624   2.944   1.830  14.936  0.6664  1.4418 -0.6149
 4045TIP3   OH233625   4.541   0.376   4.509  0.6587 -0.9659  0.2704
 4045TIP3    H133626   4.598   0.300   4.504  2.8644  0.6604 -0.9854
 4045TIP3    H233627   4.594   0.443   4.552  0.0020  0.8279 -1.5616
 4046TIP3   OH233628   4.081   3.545   0.955 -0.0051 -0.3274 -0.0142
 4046TIP3    H133629   4.090   3.563   0.861  1.3929 -2.7468 -0.4302
 4046TIP3    H233630   4.029   3.618   0.988  1.0962  1.6283 -2.2896
 4047TIP3   OH233631   6.031   5.720   6.053 -0.0068  0.4286 -0.6575
 4047TIP3    H133632   6.106   5.755   6.004 -1.3404  1.6163 -1.9066
 4047TIP3    H233633   5.959   5.721   5.991 -1.1455 -0.4807  0.5995
 4048TIP3   OH233634   5.330   0.678  15.509 -0.0398 -0.3850  0.0333
 4048TIP3    H133635   5.326   0.627  15.429  0.7058  1.0335 -0.9433
 4048TIP3    H233636   5.365   0.618  15.575  1.1147 -1.0407 -1.1475
 4049TIP3   OH233637   3.791   3.465   0.931 -0.1096  0.2024 -0.1109
 4049TIP3    H133638   3.772   3.371   0.933  0.6728 -0.1165 -3.0139
 4049TIP3    H233639   3.879   3.472   0.967  0.4059 -0.4016 -1.2118
 4050TIP3   OH233640   1.271   2.106   5.583  0.3488  0.0155  0.1158
 4050TIP3    H133641   1.290   2.172   5.649 -1.4687  0.2406  0.4478
 4050TIP3    H233642   1.348   2.107   5.525  1.1910  1.0275  1.2174
 4051TIP3   OH233643   2.442   4.285  13.156  0.0023 -0.0477  0.1598
 4051TIP3    H133644   2.455   4.335  13.236  2.1436 -0.4380  0.1110
 4051TIP3    H233645   2.515   4.309  13.100 -0.5170 -1.0662 -1.0190
 4052TIP3   OH233646   2.385   2.212  15.085  0.3598 -0.1400 -0.0887
 4052TIP3    H133647   2.353   2.296  15.053 -1.4046 -0.2412  1.2197
 4052TIP3    H233648   2.361   2.149  15.017 -1.1576 -0.0012  0.2690
 4053TIP3   OH233649   0.409   1.339   4.062 -0.1414 -0.3368  0.4512
 4053TIP3    H133650   0.419   1.334   3.967  1.9179  0.0009  0.6091
 4053TIP3    H233651   0.433   1.429   4.084 -0.5937 -0.4102  1.3029
 4054TIP3   OH233652   0.839   5.287   6.016  0.3127  0.1792  0.5258
 4054TIP3    H133653   0.787   5.366   6.019  0.4111  0.2390  0.6812
 4054TIP3    H233654   0.870   5.274   6.106  0.4138  0.0443  0.4741
 4055TIP3   OH233655   5.460   3.765  10.744  0.3410 -0.1918  0.2362
 4055TIP3    H133656   5.463   3.720  10.660 -1.3451 -0.9029  0.5318
 4055TIP3    H233657   5.373   3.748  10.778  0.5137  1.2342  1.5191
 4056TIP3   OH233658   1.974   2.078  14.822  0.5806 -0.4600 -0.3346
 4056TIP3    H133659   2.015   2.163  14.806  0.9456 -0.6949 -0.6762
 4056TIP3    H233660   2.003   2.053  14.910 -0.9556  0.5685  0.5159
 4057TIP3   OH233661   4.120   6.179   6.234 -0.7401 -0.0700 -0.6726
 4057TIP3    H133662   4.072   6.219   6.162 -0.0055  0.6617 -0.7738
 4057TIP3    H233663   4.053   6.135   6.286 -1.2612 -0.8013 -1.9065
 4058TIP3   OH233664   4.068   5.528  11.378 -0.4655 -0.3181 -0.2795
 4058TIP3    H133665   4.056   5.586  11.303 -0.8250 -2.2861 -1.8395
 4058TIP3    H233666   3.980   5.515  11.412 -0.0871  2.4229  2.0770
 4059TIP3   OH233667   0.647   5.138  16.206  0.1178  0.0798 -0.0962
 4059TIP3    H133668   0.741   5.122  16.205 -0.1061 -1.4012  0.1845
 4059TIP3    H233669   0.615   5.101  16.124 -0.5459 -1.8737  0.9906
 4060TIP3   OH233670   0.969   0.714  14.239  0.1034 -0.0294  1.1424
 4060TIP3    H133671   1.027   0.727  14.314  1.6999 -2.0235  0.3457
 4060TIP3    H233672   1.012   0.760  14.167 -0.3079  0.0832  0.9660
 4061TIP3   OH233673   1.878   1.310   3.078 -0.6660 -0.7023  1.4171
 4061TIP3    H133674   1.905   1.388   3.127  0.3365 -1.3281  1.8915
 4061TIP3    H233675   1.951   1.249   3.087 -1.1586 -1.4613  0.5044
 4062TIP3   OH233676   2.075   0.252   3.387  1.1499  0.5997  0.0802
 4062TIP3    H133677   2.088   0.267   3.293 -1.0045  3.2095  0.0762
 4062TIP3    H233678   1.985   0.282   3.403  1.3158 -0.2017  2.9141
 4063TIP3   OH233679   5.860   6.766  16.559  0.7521 -0.2334  0.0029
 4063TIP3    H133680   5.944   6.745  16.518  1.2295 -0.2147  0.9573
 4063TIP3    H233681   5.836   6.851  16.521  1.8271  0.4107  0.7124
 4064TIP3   OH233682   6.095   6.494   2.998 -0.2384  0.7424  0.5682
 4064TIP3    H133683   6.055   6.407   3.007 -0.9118  0.8331 -1.1503
 4064TIP3    H233684   6.174   6.479   2.946  0.0388  1.0598  0.8937
 4065TIP3   OH233685   3.624   1.842   0.628 -0.0748  0.3918  0.6296
 4065TIP3    H133686   3.693   1.819   0.691  0.3707 -0.3689 -0.1137
 4065TIP3    H233687   3.626   1.938   0.625 -0.3534  0.4652  2.0359
 4066TIP3   OH233688   0.727   2.658  13.133 -0.3100  0.4031 -0.4648
 4066TIP3    H133689   0.809   2.659  13.182 -0.6051 -0.2446  0.0558
 4066TIP3    H233690   0.733   2.733  13.074  0.4496  0.6381 -0.0937
 4067TIP3   OH233691   0.088   4.680   5.109  0.2216  0.1329 -0.2670
 4067TIP3    H133692   0.027   4.707   5.040  1.3668  2.1196 -0.5782
 4067TIP3    H233693   0.090   4.755   5.169  0.5325 -0.8919  1.0435
 4068TIP3   OH233694   3.760   6.703   4.155 -0.0900  0.1441  0.0908
 4068TIP3    H133695   3.800   6.620   4.130  0.1019  0.2274  0.1171
 4068TIP3    H233696   3.730   6.689   4.245  0.3895  0.2625  0.2707
 4069TIP3   OH233697   5.789   1.088   6.235 -0.2761 -0.1266  0.1431
 4069TIP3    H133698   5.791   1.159   6.300 -1.5597  0.1537 -0.1021
 4069TIP3    H233699   5.800   1.132   6.151  1.7946 -0.5289  0.1411
 4070TIP3   OH233700   1.987   4.966  13.150 -0.0637 -0.6969  0.1098
 4070TIP3    H133701   1.912   4.925  13.107 -0.2986 -0.4939  0.3219
 4070TIP3    H233702   2.024   5.025  13.084 -0.4165 -0.3949  0.1800
 4071TIP3   OH233703   1.915   2.241   0.448 -0.2613  0.3140  0.0099
 4071TIP3    H133704   1.871   2.195   0.520  1.4057 -0.8974  0.3262
 4071TIP3    H233705   1.958   2.315   0.490 -1.2984  1.0509 -0.1781
 4072TIP3   OH233706   4.693   5.473   5.666  0.6618 -0.2853  0.1502
 4072TIP3    H133707   4.717   5.381   5.676  0.9021 -0.1506  0.8901
 4072TIP3    H233708   4.772   5.516   5.633  0.5985 -0.3123 -0.0392
 4073TIP3   OH233709   1.589   0.815  15.328 -0.1358  0.0350  0.4672
 4073TIP3    H133710   1.517   0.769  15.371 -0.5234 -0.0299 -0.2334
 4073TIP3    H233711   1.547   0.888  15.282  0.0507 -0.7255 -0.9869
 4074TIP3   OH233712   6.370   4.613   4.596  0.3194 -0.1503 -0.3524
 4074TIP3    H133713   6.278   4.628   4.575  0.0137 -3.6746 -2.3511
 4074TIP3    H233714   6.369   4.549   4.667  1.2893  0.8976  0.6403
 4075TIP3   OH233715   2.604   2.112   5.277  0.1517  0.5282  0.2262
 4075TIP3    H133716   2.584   2.205   5.266 -0.1013  0.6958  1.8685
 4075TIP3    H233717   2.519   2.068   5.270  0.2211  0.4534 -0.1735
 4076TIP3   OH233718   5.539   5.932   4.929 -0.0768  0.2579  0.5759
 4076TIP3    H133719   5.506   5.954   4.842 -0.2560  1.3924  0.9209
 4076TIP3    H233720   5.629   5.966   4.930 -0.0965  0.3008  0.8618
 4077TIP3   OH233721   6.011   4.562   0.535 -0.0318 -0.2860  0.3175
 4077TIP3    H133722   5.937   4.520   0.491 -0.5708 -0.0599  0.9860
 4077TIP3    H233723   6.085   4.506   0.517 -0.3316 -0.4357 -0.5037
 4078TIP3   OH233724   5.907   0.225   3.034 -0.2692  0.4515 -0.3034
 4078TIP3    H133725   5.816   0.253   3.043  0.1740  1.9923 -0.3642
 4078TIP3    H233726   5.958   0.306   3.036  1.2486 -0.4766  1.2455
 4079TIP3   OH233727   1.521   6.681  12.532  0.8370  0.6209 -0.6482
 4079TIP3    H133728   1.430   6.678  12.501  1.1333  0.3182 -1.5289
 4079TIP3    H233729   1.570   6.632  12.466  1.3589 -1.0135  0.9026
 4080TIP3   OH233730   1.030   6.284   5.334  0.2855  0.2357  0.4675
 4080TIP3    H133731   1.048   6.319   5.247 -0.4104  1.0946  0.6549
 4080TIP3    H233732   0.943   6.317   5.356 -0.0207 -0.9060  1.0263
 4081TIP3   OH233733   0.508   4.878   4.341  0.2715 -0.0419  0.2368
 4081TIP3    H133734   0.572   4.944   4.315  0.4878 -0.6403 -0.8204
 4081TIP3    H233735   0.507   4.881   4.437  2.5576 -0.6276  0.3425
 4082TIP3   OH233736   5.118   0.155  11.370 -0.5638 -0.0572 -0.0553
 4082TIP3    H133737   5.120   0.196  11.457 -0.8645  1.8165 -0.8740
 4082TIP3    H233738   5.210   0.142  11.348 -0.4524  0.3021  0.1863
 4083TIP3   OH233739   3.468   4.979  12.108 -0.5252  0.1140  0.2847
 4083TIP3    H133740   3.392   4.924  12.089  0.2948 -0.4938 -1.5576
 4083TIP3    H233741   3.522   4.926  12.166 -0.9040  0.0175  0.5539
 4084TIP3   OH233742   5.166   1.810   4.070  0.4132  0.1580 -0.3939
 4084TIP3    H133743   5.074   1.828   4.053  0.3256  0.8389  0.7123
 4084TIP3    H233744   5.169   1.780   4.161  1.2695  0.0240 -0.4520
 4085TIP3   OH233745   3.880   2.587  13.988  0.6842 -0.4734  0.0832
 4085TIP3    H133746   3.914   2.647  14.054 -0.9363  1.2569 -0.5559
 4085TIP3    H233747   3.944   2.590  13.917  0.0830  1.4849 -0.4354
 4086TIP3   OH233748   4.706   3.676  13.381 -0.4932  0.4490  0.1011
 4086TIP3    H133749   4.724   3.586  13.350 -0.2306  0.4402  0.2753
 4086TIP3    H233750   4.784   3.700  13.430  0.6554  1.7786 -2.1885
 4087TIP3   OH233751   3.948   4.740   3.854 -0.0298 -0.5598  0.0165
 4087TIP3    H133752   3.943   4.671   3.921  0.1059  0.9529  1.6578
 4087TIP3    H233753   3.867   4.730   3.804  0.1745 -2.1496 -0.0795
 4088TIP3   OH233754   5.958   0.395  15.890 -0.8296  0.2064 -0.2372
 4088TIP3    H133755   5.972   0.427  15.979  1.8980  0.2407 -0.5785
 4088TIP3    H233756   5.867   0.416  15.870 -0.8257  2.3528  1.6777
 4089TIP3   OH233757   3.514   5.772   5.006 -0.4909  0.4962 -1.0141
 4089TIP3    H133758   3.511   5.686   4.964 -1.6380 -0.0692  0.1773
 4089TIP3    H233759   3.462   5.829   4.948 -1.0588  0.0058 -0.9956
 4090TIP3   OH233760   2.726   6.660   5.716  0.5314  0.4496  0.3474
 4090TIP3    H133761   2.695   6.748   5.736 -0.5794  0.4911 -1.3549
 4090TIP3    H233762   2.819   6.671   5.697  0.6972  1.0173  1.4118
 4091TIP3   OH233763   3.596   0.724   5.323  0.4559 -0.4683  0.4295
 4091TIP3    H133764   3.549   0.797   5.363  1.0576  0.8384 -1.1003
 4091TIP3    H233765   3.536   0.690   5.257  0.2121 -1.3346  1.0801
 4092TIP3   OH233766   1.852   2.560   2.387 -0.0233  0.6232 -0.6174
 4092TIP3    H133767   1.863   2.515   2.471  1.0970  0.6812 -0.7156
 4092TIP3    H233768   1.908   2.511   2.327 -1.0433  0.4036 -1.4106
 4093TIP3   OH233769   5.605   0.770   2.465  0.3752 -0.2171  0.5021
 4093TIP3    H133770   5.667   0.808   2.403  2.6127 -1.9987  1.4940
 4093TIP3    H233771   5.600   0.833   2.536  1.8748 -0.4935  0.8675
 4094TIP3   OH233772   0.194   6.448   6.463  0.4761 -0.1885 -0.4141
 4094TIP3    H133773   0.185   6.537   6.430  1.2405 -0.2510 -0.8048
 4094TIP3    H233774   0.105   6.423   6.490 -0.0350  0.1157 -1.7652
 4095TIP3   OH233775   4.214   4.608  17.116  0.0125 -0.3193  0.3594
 4095TIP3    H133776   4.182   4.668  17.184  3.3574  1.4819  0.5936
 4095TIP3    H233777   4.286   4.560  17.158  0.1987 -1.3772 -1.0738
 4096TIP3   OH233778   0.856   2.246   0.723  0.5261  0.1084  0.0428
 4096TIP3    H133779   0.898   2.323   0.760 -0.7534  0.4704  0.8132
 4096TIP3    H233780   0.766   2.274   0.705 -0.2911 -1.4686  1.3652
 4097TIP3   OH233781   5.502   5.580  14.619  0.4913  0.5177 -0.4068
 4097TIP3    H133782   5.463   5.595  14.532 -0.3581 -0.7536 -0.2727
 4097TIP3    H233783   5.515   5.486  14.623  1.4297  0.6697  0.4961
 4098TIP3   OH233784   6.466   4.978  12.817 -0.1626  0.3053  0.2790
 4098TIP3    H133785   6.391   4.932  12.855  0.0384 -0.1463  0.1369
 4098TIP3    H233786   6.538   4.958  12.877  0.4254 -1.3438 -0.8913
 4099TIP3   OH233787   1.197   1.483  12.981 -0.1765 -0.0554  0.0884
 4099TIP3    H133788   1.253   1.519  13.050  0.9665 -0.7995 -0.4222
 4099TIP3    H233789   1.110   1.479  13.020  0.0512  1.3966  0.8086
 4100TIP3   OH233790   4.245   5.837  16.380  0.4378  0.0569 -0.4138
 4100TIP3    H133791   4.269   5.881  16.299 -1.1832  0.8135 -0.5147
 4100TIP3    H233792   4.252   5.904  16.448  0.9215 -0.3388 -0.0651
 4101TIP3   OH233793   5.696   1.781   1.278 -0.0276 -0.0731  0.0992
 4101TIP3    H133794   5.731   1.691   1.275  2.2400  0.7357  0.0758
 4101TIP3    H233795   5.736   1.819   1.356  3.2665  2.3950 -2.4487
 4102TIP3   OH233796   0.775   0.956   2.267 -0.4561 -0.2072 -0.5993
 4102TIP3    H133797   0.843   0.966   2.201  0.5433  0.6364  0.5053
 4102TIP3    H233798   0.808   0.887   2.325 -1.1220 -0.6464 -0.7343
 4103TIP3   OH233799   1.379   0.338  13.502  0.1944 -0.2258  0.3842
 4103TIP3    H133800   1.350   0.279  13.571 -1.9056  0.5645  0.2384
 4103TIP3    H233801   1.403   0.419  13.548  2.2251 -0.8096  0.4882
 4104TIP3   OH233802   1.076   2.970   4.052 -0.0117  0.2739  0.2734
 4104TIP3    H133803   1.114   2.887   4.082 -1.3219  0.0856  1.4867
 4104TIP3    H233804   0.983   2.951   4.041 -0.5480  1.8714  1.7267
 4105TIP3   OH233805   3.578   2.270   6.110  0.3228  0.0197  0.4849
 4105TIP3    H133806   3.662   2.236   6.081 -0.2687 -0.0019 -1.3470
 4105TIP3    H233807   3.537   2.198   6.157  0.7400 -0.4540  0.1260
 4106TIP3   OH233808   5.408   1.449  13.058 -0.0621 -0.5981  0.2412
 4106TIP3    H133809   5.373   1.366  13.024  2.2397 -2.3166  1.7250
 4106TIP3    H233810   5.502   1.444  13.040  0.7715 -0.1424  3.7944
 4107TIP3   OH233811   0.377   6.005  11.484 -0.1135 -0.4200 -0.2701
 4107TIP3    H133812   0.317   5.932  11.467 -1.1528 -0.0412  1.5533
 4107TIP3    H233813   0.411   5.988  11.572  1.6694 -0.0585 -0.8428
 4108TIP3   OH233814   0.139   2.530  16.031  0.1815 -0.5675 -0.0887
 4108TIP3    H133815   0.213   2.534  16.091 -1.1632  0.1063  1.6366
 4108TIP3    H233816   0.080   2.465  16.071 -1.3764  0.9112  0.1706
 4109TIP3   OH233817   1.260   3.626  11.775 -0.5594  0.0233 -0.9052
 4109TIP3    H133818   1.206   3.591  11.846 -0.6339  0.1438 -0.9005
 4109TIP3    H233819   1.316   3.691  11.818 -0.8310  0.3311 -1.0064
 4110TIP3   OH233820   5.407   1.972   4.953  0.2136  0.2867  0.0870
 4110TIP3    H133821   5.445   1.914   4.887  0.9843  1.0510 -0.1657
 4110TIP3    H233822   5.312   1.963   4.942  0.3289 -0.6532 -0.1718
 4111TIP3   OH233823   1.449   1.612  14.661 -0.5089 -0.2282 -0.2866
 4111TIP3    H133824   1.452   1.517  14.658 -0.6885 -0.2754 -4.3546
 4111TIP3    H233825   1.529   1.640  14.616 -0.1873  1.6114  1.2910
 4112TIP3   OH233826   2.880   1.072   2.123 -0.4547  0.3446 -0.5945
 4112TIP3    H133827   2.876   1.168   2.126  1.9350  0.5377 -1.1726
 4112TIP3    H233828   2.858   1.051   2.032 -2.6854  0.1639 -0.0553
 4113TIP3   OH233829   1.988   2.302   5.742  0.0244  0.1159 -0.4971
 4113TIP3    H133830   2.000   2.289   5.837 -1.2859 -0.7683 -0.4282
 4113TIP3    H233831   1.972   2.396   5.733 -1.8201 -0.0530  0.4353
 4114TIP3   OH233832   2.757   1.928   6.657  0.1171  0.4453 -0.3679
 4114TIP3    H133833   2.744   1.980   6.578 -0.3805  1.1710  0.1695
 4114TIP3    H233834   2.835   1.965   6.698 -0.2825  0.8337  0.0563
 4115TIP3   OH233835   4.291   4.528  12.448 -0.8750  0.0641  0.1879
 4115TIP3    H133836   4.220   4.494  12.503 -0.7672  0.0528  0.3230
 4115TIP3    H233837   4.371   4.504  12.496 -0.7455 -0.6495 -0.3637
 4116TIP3   OH233838   6.508   6.744  12.551  0.3283  0.7807  0.3294
 4116TIP3    H133839   6.526   6.651  12.565 -1.4113  0.2200 -0.8112
 4116TIP3    H233840   6.587   6.777  12.510  1.0581 -0.1421  0.9473
 4117TIP3   OH233841   3.214   3.580   0.380  0.1822  0.1272  0.4396
 4117TIP3    H133842   3.263   3.594   0.461 -0.6096  1.8299  0.6604
 4117TIP3    H233843   3.122   3.573   0.408  0.1990 -3.7533  0.1156
 4118TIP3   OH233844   5.058   2.219  16.280 -0.0871  0.1961  0.0032
 4118TIP3    H133845   5.106   2.301  16.275 -0.0245  0.0640 -2.4129
 4118TIP3    H233846   4.966   2.244  16.271 -0.0165 -0.0152 -1.5938
 4119TIP3   OH233847   3.532   3.132   5.100  0.4248 -0.0363  0.0117
 4119TIP3    H133848   3.523   3.175   5.015  1.9723 -0.7134 -0.5317
 4119TIP3    H233849   3.516   3.201   5.164 -0.4433  0.5569 -0.8120
 4120TIP3   OH233850   4.290   1.435   5.893 -0.5416 -0.6774 -0.1452
 4120TIP3    H133851   4.295   1.510   5.951  0.2011  1.0259 -2.2797
 4120TIP3    H233852   4.323   1.362   5.945 -1.6332  0.3593  2.1127
 4121TIP3   OH233853   4.278   0.269  14.959 -0.0301  0.5378 -0.4143
 4121TIP3    H133854   4.366   0.257  14.994  0.2868  0.3836 -1.2481
 4121TIP3    H233855   4.291   0.311  14.874 -0.7979  1.1152 -0.2623
 4122TIP3   OH233856   5.924   5.948  16.287  0.0715  0.1373 -0.2077
 4122TIP3    H133857   5.838   5.974  16.253  0.6693  0.2022 -1.7065
 4122TIP3    H233858   5.952   6.023  16.340 -0.7387  0.1625  0.2006
 4123TIP3   OH233859   3.361   2.265  12.361  0.4874 -0.6119  0.0145
 4123TIP3    H133860   3.334   2.190  12.308 -1.8367  0.7831 -0.9171
 4123TIP3    H233861   3.279   2.302  12.394  1.3921  2.3853 -0.7899
 4124TIP3   OH233862   0.693   1.571   5.107  0.0091 -0.2036  0.2988
 4124TIP3    H133863   0.737   1.510   5.047  0.7882  0.7242 -0.0837
 4124TIP3    H233864   0.600   1.551   5.096  0.2399 -1.2377  0.0833
 4125TIP3   OH233865   4.909   2.978   6.032  0.8154 -0.0342 -0.1568
 4125TIP3    H133866   4.969   3.028   5.977  0.0698  1.1349  0.0567
 4125TIP3    H233867   4.918   2.887   6.002 -0.3531  0.6857 -2.9985
 4126TIP3   OH233868   3.012   1.674  14.621 -0.3205 -0.3394  0.7292
 4126TIP3    H133869   3.001   1.631  14.706 -0.8212  0.6508  1.1823
 4126TIP3    H233870   2.970   1.614  14.559 -3.5001  0.6440  1.6962
 4127TIP3   OH233871   1.816   3.614   2.268  0.1396 -0.1660 -0.1528
 4127TIP3    H133872   1.749   3.546   2.262 -0.2624  0.2429 -0.3122
 4127TIP3    H233873   1.863   3.594   2.349 -1.0747  0.3576  0.7042
 4128TIP3   OH233874   6.617   1.228   5.827  0.4853  0.5955  0.4502
 4128TIP3    H133875   6.578   1.289   5.765  0.4334 -0.5589 -0.7023
 4128TIP3    H233876   6.711   1.240   5.816  0.4717  0.8265  0.5909
 4129TIP3   OH233877   4.968   2.908   0.666  0.0774 -0.4532  0.2738
 4129TIP3    H133878   5.040   2.855   0.632  0.3857  0.8010 -1.1184
 4129TIP3    H233879   5.005   2.956   0.739  1.1855  1.3680 -1.3797
 4130TIP3   OH233880   3.557   1.291   1.852  0.0505  0.8935 -0.0633
 4130TIP3    H133881   3.536   1.199   1.868 -2.2526  1.3387 -0.2228
 4130TIP3    H233882   3.638   1.288   1.801  0.1275 -1.0314  0.0843
 4131TIP3   OH233883   0.957   0.007   1.012  0.5016 -0.4878  0.1661
 4131TIP3    H133884   1.035   0.026   0.961  1.4924 -1.1568  1.3654
 4131TIP3    H233885   0.978  -0.073   1.060 -1.0576 -0.8795  0.2564
 4132TIP3   OH233886   2.396   1.725   3.640  0.3661 -0.1918 -0.0872
 4132TIP3    H133887   2.311   1.759   3.667 -0.5056  0.5490 -3.2724
 4132TIP3    H233888   2.411   1.649   3.695 -2.1598 -0.0755  0.8648
 4133TIP3   OH233889   1.306   1.264  17.002  0.0023  0.1351  0.0604
 4133TIP3    H133890   1.273   1.239  17.088 -1.8001  1.9431 -0.0276
 4133TIP3    H233891   1.347   1.349  17.015  0.6614 -0.0416 -0.7075
 4134TIP3   OH233892   6.239   5.100  16.329  0.1149 -0.5400 -0.2477
 4134TIP3    H133893   6.197   5.183  16.352  1.0599  0.2290 -1.1822
 4134TIP3    H233894   6.199   5.036  16.387 -3.0821 -0.0789 -1.6981
 4135TIP3   OH233895   4.966   5.330   2.074  0.7204 -0.1464  0.2612
 4135TIP3    H133896   4.986   5.249   2.027  1.4873 -0.1868  0.6570
 4135TIP3    H233897   4.873   5.321   2.096  0.0169  0.3592 -2.1858
 4136TIP3   OH233898   5.861   3.766   0.758 -0.3573  0.1837  0.0512
 4136TIP3    H133899   5.947   3.742   0.722 -0.5724 -2.1388  0.9051
 4136TIP3    H233900   5.881   3.825   0.830  0.5394 -0.3860  0.2920
 4137TIP3   OH233901   5.098   1.002   6.630 -0.0625 -0.3214 -0.7322
 4137TIP3    H133902   5.152   0.928   6.660  1.1789  0.0699 -1.8622
 4137TIP3    H233903   5.108   1.068   6.698  0.9228 -0.2570 -0.9189
 4138TIP3   OH233904   5.044   6.515   3.786 -0.0223  0.2897  0.0294
 4138TIP3    H133905   4.965   6.566   3.770 -0.9375 -0.6624  1.2711
 4138TIP3    H233906   5.013   6.425   3.799  1.3132 -0.2034  0.0384
 4139TIP3   OH233907   1.943   1.123   0.503  0.3115 -0.0878  0.0568
 4139TIP3    H133908   1.960   1.041   0.550  1.2542  0.3562  0.5265
 4139TIP3    H233909   2.024   1.138   0.454  1.1711  1.8697  1.9630
 4140TIP3   OH233910   3.262   4.577   3.107  0.0132 -0.2147  0.4027
 4140TIP3    H133911   3.243   4.501   3.161 -0.6336 -0.3319  0.0263
 4140TIP3    H233912   3.354   4.596   3.123  0.3766 -1.5100 -0.0338
 4141TIP3   OH233913   0.225   2.400   4.188  0.0322 -0.2118 -0.2946
 4141TIP3    H133914   0.268   2.479   4.156 -1.0026  0.5545  0.1477
 4141TIP3    H233915   0.275   2.328   4.150  1.8635  0.6320  0.4161
 4142TIP3   OH233916   0.370   2.004  11.624  0.4189  0.2773  0.1857
 4142TIP3    H133917   0.389   2.031  11.534  1.4402 -1.3756 -0.1347
 4142TIP3    H233918   0.291   2.052  11.648 -1.5919 -1.3471 -2.6223
 4143TIP3   OH233919   1.212   6.734   0.284  0.0081 -0.0905  0.3106
 4143TIP3    H133920   1.184   6.819   0.250  1.1482 -0.5755 -2.0810
 4143TIP3    H233921   1.139   6.675   0.267  0.5460 -0.3174 -1.4434
 4144TIP3   OH233922   0.556   0.437  14.596 -0.1420  0.0863 -0.9139
 4144TIP3    H133923   0.639   0.433  14.549 -0.4268 -1.3967 -1.3196
 4144TIP3    H233924   0.490   0.446  14.528 -0.5552 -2.0413 -0.8419
 4145TIP3   OH233925   0.407   4.046   2.922  0.1438  0.2862 -0.1566
 4145TIP3    H133926   0.320   4.060   2.884  0.4595  0.0713 -0.9765
 4145TIP3    H233927   0.392   3.989   2.996 -0.2857 -0.6911 -0.9751
 4146TIP3   OH233928   2.770   3.478   5.474 -0.4383 -0.1336 -0.2775
 4146TIP3    H133929   2.772   3.572   5.456 -1.3182 -0.1767 -0.6651
 4146TIP3    H233930   2.780   3.471   5.569 -0.0558  0.3331 -0.2810
 4147TIP3   OH233931   4.636   2.687  13.078  0.2722  0.2799 -0.3483
 4147TIP3    H133932   4.588   2.714  13.000 -1.7914  0.0681  0.8054
 4147TIP3    H233933   4.652   2.593  13.065  0.9681  0.4744 -1.0047
 4148TIP3   OH233934   0.821   2.731   5.035  0.3288  0.1638  0.3364
 4148TIP3    H133935   0.846   2.641   5.057 -0.1798  0.8768  4.6589
 4148TIP3    H233936   0.731   2.724   5.005  0.7107 -0.8247 -0.6823
 4149TIP3   OH233937   0.511   3.642   3.719 -0.3809  0.4493  0.2540
 4149TIP3    H133938   0.603   3.624   3.698 -0.3939 -0.8571  1.1876
 4149TIP3    H233939   0.495   3.730   3.685  0.2415 -0.5578 -2.9748
 4150TIP3   OH233940   5.194   5.483   2.035 -0.0457 -0.1372 -0.0528
 4150TIP3    H133941   5.159   5.561   1.991 -0.1040  0.1333  0.4672
 4150TIP3    H233942   5.118   5.437   2.068  0.0936  1.3769  2.6550
 4151TIP3   OH233943   0.804   4.291  16.716 -0.1115 -0.4513 -0.4545
 4151TIP3    H133944   0.764   4.341  16.645  2.5362  0.3223 -1.5325
 4151TIP3    H233945   0.780   4.200  16.698 -1.1010 -0.0579 -1.1924
 4152TIP3   OH233946   0.236   0.319   0.445 -0.5253 -0.0756 -0.0273
 4152TIP3    H133947   0.327   0.346   0.433 -0.3107 -0.0176  1.5145
 4152TIP3    H233948   0.184   0.393   0.412 -0.0448 -0.2193 -1.1678
 4153TIP3   OH233949   0.370   5.597  11.644 -0.5678  0.0522  0.3211
 4153TIP3    H133950   0.446   5.541  11.629 -1.1424 -0.3451 -1.3355
 4153TIP3    H233951   0.361   5.649  11.564 -2.3434 -0.2997  0.2395
 4154TIP3   OH233952   4.584   1.328   4.178  0.1505 -0.8069  0.1967
 4154TIP3    H133953   4.492   1.301   4.180 -0.1081 -0.1431 -1.1590
 4154TIP3    H233954   4.615   1.314   4.267 -2.0140  1.5113  1.4273
 4155TIP3   OH233955   1.940   3.178  12.198 -0.0311 -0.2557 -0.2905
 4155TIP3    H133956   1.930   3.257  12.144 -1.9359 -0.6549 -0.5856
 4155TIP3    H233957   1.851   3.147  12.212  0.5619 -1.3111  1.4270
 4156TIP3   OH233958   0.231   0.874  11.576 -0.4510 -0.1090  0.5366
 4156TIP3    H133959   0.301   0.814  11.602 -1.1122 -1.0002  0.3165
 4156TIP3    H233960   0.183   0.891  11.658 -1.6345 -1.7302  0.2331
 4157TIP3   OH233961   0.281   1.408   0.140 -0.4353 -0.4404  0.7926
 4157TIP3    H133962   0.285   1.497   0.106  1.2807  0.4280  3.0293
 4157TIP3    H233963   0.192   1.379   0.120 -0.5886  1.2105 -1.2412
 4158TIP3   OH233964   5.717   5.616   4.228 -0.0725 -0.2326  0.5974
 4158TIP3    H133965   5.754   5.700   4.256 -1.1401  1.0500 -1.6328
 4158TIP3    H233966   5.623   5.631   4.226 -0.1920 -1.0450 -1.0958
 4159TIP3   OH233967   3.119   3.271  13.223  0.2916  0.2771  0.7212
 4159TIP3    H133968   3.043   3.299  13.172  1.4195  0.2189 -1.0849
 4159TIP3    H233969   3.112   3.175  13.225  0.9856  0.1589 -0.6608
 4160TIP3   OH233970   2.257   2.344  15.712  0.1223  0.6977 -0.1049
 4160TIP3    H133971   2.351   2.329  15.725  0.0388  0.0254 -0.2594
 4160TIP3    H233972   2.215   2.268  15.752 -0.2605 -0.0470 -1.8387
 4161TIP3   OH233973   4.199   2.197  16.225 -0.0132 -0.3362  0.2513
 4161TIP3    H133974   4.281   2.187  16.176  0.9485 -0.4081  1.7856
 4161TIP3    H233975   4.203   2.286  16.260 -0.7350 -0.2420  0.1069
 4162TIP3   OH233976   2.078   5.585   3.700  0.1522  0.4859  0.2436
 4162TIP3    H133977   2.090   5.491   3.690 -2.3751  0.2809 -1.6222
 4162TIP3    H233978   2.026   5.594   3.780 -1.3679  0.0756 -0.6585
 4163TIP3   OH233979   3.120   5.535   2.470 -0.1768 -0.3986 -0.4936
 4163TIP3    H133980   3.030   5.563   2.452  0.0927 -1.2357 -3.8441
 4163TIP3    H233981   3.174   5.599   2.424  1.1693  1.1497  2.9199
 4164TIP3   OH233982   0.581   3.795  16.569  0.2876  0.4505 -0.7671
 4164TIP3    H133983   0.552   3.730  16.634  0.0282  1.6924  0.4004
 4164TIP3    H233984   0.534   3.771  16.489 -0.0195 -0.6273 -0.2768
 4165TIP3   OH233985   1.455   0.635  10.291 -0.6658  0.1357  0.0196
 4165TIP3    H133986   1.534   0.680  10.323  0.5709 -0.0347 -2.5034
 4165TIP3    H233987   1.394   0.639  10.364  1.5334  0.6209  1.9808
 4166TIP3   OH233988   2.687   4.028   6.729 -0.0746  0.0579  0.7464
 4166TIP3    H133989   2.701   4.064   6.641 -1.9932 -0.1511  0.3153
 4166TIP3    H233990   2.775   4.026   6.768  1.3301 -2.4349 -2.1006
 4167TIP3   OH233991   2.889   2.347   1.277  0.0982 -0.2579  0.0585
 4167TIP3    H133992   2.821   2.342   1.209  0.4845 -0.8140 -0.2887
 4167TIP3    H233993   2.944   2.271   1.262  1.5648  0.8549 -0.4605
 4168TIP3   OH233994   3.994   4.453  15.565 -0.0243 -0.0601 -0.0191
 4168TIP3    H133995   3.910   4.471  15.605 -0.6663 -0.1111 -1.2889
 4168TIP3    H233996   4.019   4.535  15.522  0.9663  0.1950  1.0053
 4169TIP3   OH233997   0.838   3.831   3.113 -0.3342  0.0496 -0.3197
 4169TIP3    H133998   0.921   3.825   3.065  0.0906  1.1341  0.2508
 4169TIP3    H233999   0.791   3.903   3.071 -0.8821 -0.3772 -0.4565
 4170TIP3   OH234000   0.710   3.859  16.859 -0.2713 -0.3466 -0.4966
 4170TIP3    H134001   0.634   3.913  16.882 -1.0835 -1.9344  0.7256
 4170TIP3    H234002   0.785   3.911  16.886 -1.0140  0.3642  0.2526
 4171TIP3   OH234003   3.625   3.769   4.515  0.0582 -0.4963  0.0207
 4171TIP3    H134004   3.708   3.784   4.470 -0.2552 -1.6544 -0.9991
 4171TIP3    H234005   3.574   3.849   4.501  1.3971  0.7321  1.6772
 4172TIP3   OH234006   4.977   4.242   4.274 -0.1138  0.2759  0.3500
 4172TIP3    H134007   4.983   4.155   4.314 -0.4341  0.0849 -0.0070
 4172TIP3    H234008   5.027   4.235   4.193 -0.3859  0.3310  0.1732
 4173TIP3   OH234009   3.433   3.931  14.922 -0.3461  0.6271  0.3710
 4173TIP3    H134010   3.428   3.861  14.857  0.0890  2.0323 -1.2673
 4173TIP3    H234011   3.342   3.959  14.933 -0.4350  0.3130  0.4347
 4174TIP3   OH234012   0.918   0.300   3.624 -0.1807  0.3940  0.0455
 4174TIP3    H134013   0.962   0.360   3.684 -1.0815 -0.2306  1.3671
 4174TIP3    H234014   0.859   0.249   3.679 -1.9736  0.6409 -1.5375
 4175TIP3   OH234015   5.091   6.274  14.642 -0.0832  0.2413 -0.1209
 4175TIP3    H134016   5.112   6.219  14.567 -2.9140  0.2549 -1.0245
 4175TIP3    H234017   5.111   6.219  14.718  1.2296 -0.3793 -0.8659
 4176TIP3   OH234018   4.120   6.396   0.134  0.0499  0.1523 -0.3803
 4176TIP3    H134019   4.063   6.350   0.073  0.8416 -0.3765 -0.7403
 4176TIP3    H234020   4.193   6.336   0.149  0.9157  1.1204 -0.5588
 4177TIP3   OH234021   0.821   5.256   5.679 -0.3127 -0.1704 -0.8164
 4177TIP3    H134022   0.872   5.206   5.615 -1.3106 -1.3433 -0.7344
 4177TIP3    H234023   0.729   5.235   5.659 -0.7000  0.4860  0.1602
 4178TIP3   OH234024   0.600   2.691   4.878 -0.0941 -0.3001 -0.1017
 4178TIP3    H134025   0.506   2.686   4.864 -0.1211 -0.6253  0.1773
 4178TIP3    H234026   0.638   2.651   4.800 -0.1208  1.6355 -1.1601
 4179TIP3   OH234027   5.191   6.211   2.393 -0.5077  0.8553  0.1155
 4179TIP3    H134028   5.231   6.137   2.347  1.1103  1.6269  0.1943
 4179TIP3    H234029   5.151   6.264   2.324  1.6628  1.8593 -0.4440
 4180TIP3   OH234030   1.305   0.690  11.557 -0.2012  0.1108  0.6000
 4180TIP3    H134031   1.222   0.658  11.592 -1.4936  1.6062 -0.8999
 4180TIP3    H234032   1.323   0.770  11.607 -1.7621  1.9394 -1.5489
 4181TIP3   OH234033   3.908   6.234   6.634  0.0037 -0.4181  0.0484
 4181TIP3    H134034   3.868   6.148   6.625  0.3302 -0.6515  0.7457
 4181TIP3    H234035   3.872   6.285   6.561  0.2463 -1.3070 -0.7264
 4182TIP3   OH234036   6.213   3.816   3.201  0.0973  0.5560 -0.2270
 4182TIP3    H134037   6.305   3.824   3.176  0.8732  3.2581  2.7318
 4182TIP3    H234038   6.215   3.805   3.296 -2.6584 -1.8856 -0.3347
 4183TIP3   OH234039   1.406   0.573   1.148 -0.1423 -0.5414 -0.4184
 4183TIP3    H134040   1.414   0.497   1.207  0.2162  0.8894  1.4724
 4183TIP3    H234041   1.428   0.648   1.203  1.3159  0.8118 -2.6978
 4184TIP3   OH234042   2.175   4.415  10.547 -0.0320  0.3478  0.2513
 4184TIP3    H134043   2.244   4.435  10.610 -1.0636  2.3955  0.8246
 4184TIP3    H234044   2.094   4.419  10.598 -0.6180 -3.1569 -0.1395
 4185TIP3   OH234045   2.383   1.735   3.014  0.9191 -0.3292 -0.1792
 4185TIP3    H134046   2.405   1.781   3.094  1.9962 -0.4556 -0.3862
 4185TIP3    H234047   2.315   1.672   3.040  0.8829 -0.0115  0.5118
 4186TIP3   OH234048   3.090   2.674   0.699  0.1509  0.2150  0.5814
 4186TIP3    H134049   3.100   2.758   0.655 -0.1128  0.2315  0.5516
 4186TIP3    H234050   3.029   2.691   0.771  0.2421  0.0914  0.6897
 4187TIP3   OH234051   0.641   1.848   6.282 -0.1406 -0.3175 -0.3466
 4187TIP3    H134052   0.650   1.939   6.251 -2.2824 -0.0564 -0.3583
 4187TIP3    H234053   0.675   1.850   6.371  1.6633  0.0146 -1.0006
 4188TIP3   OH234054   6.389   5.804  14.734  0.2587  0.6234  0.8994
 4188TIP3    H134055   6.364   5.741  14.666  0.2610  0.5259  0.9886
 4188TIP3    H234056   6.389   5.889  14.689 -0.6996  0.6917  1.0094
 4189TIP3   OH234057   3.740   1.380  16.778  0.4111  0.2244 -0.1432
 4189TIP3    H134058   3.829   1.355  16.806  0.8056 -0.1405 -1.6527
 4189TIP3    H234059   3.705   1.301  16.738 -0.6328  0.3634  0.4741
 4190TIP3   OH234060   2.566   0.535   2.208 -0.4189  0.2883  0.8628
 4190TIP3    H134061   2.474   0.549   2.232 -1.0186 -0.3486 -0.8548
 4190TIP3    H234062   2.573   0.571   2.119  0.9292  0.0710  0.8562
 4191TIP3   OH234063   2.957   4.099  12.823  0.2222 -0.4413  0.4996
 4191TIP3    H134064   3.017   4.024  12.816  0.8235 -0.1758  2.2946
 4191TIP3    H234065   2.970   4.131  12.913 -1.3564  0.6960  0.3490
 4192TIP3   OH234066   2.722   5.283   5.730 -0.7760 -0.1770 -0.1933
 4192TIP3    H134067   2.721   5.334   5.811 -0.4472  0.6267 -0.6823
 4192TIP3    H234068   2.794   5.221   5.742  0.7392  1.4074 -0.7299
 4193TIP3   OH234069   4.781   4.265  16.708  0.2884 -0.2450 -0.8738
 4193TIP3    H134070   4.696   4.222  16.711 -0.0164  0.3078 -1.2911
 4193TIP3    H234071   4.829   4.218  16.640  0.0599 -0.1167 -1.1273
 4194TIP3   OH234072   3.688   6.340  16.383 -0.9001  0.5691  0.0605
 4194TIP3    H134073   3.687   6.419  16.436 -1.2903  0.0551  0.8348
 4194TIP3    H234074   3.729   6.273  16.438  0.9124  0.5996 -1.1652
 4195TIP3   OH234075   6.579   1.457   6.500  0.4630 -0.6126  0.3060
 4195TIP3    H134076   6.512   1.441   6.567 -1.5002  0.3234 -1.3183
 4195TIP3    H234077   6.535   1.438   6.417  1.3729  2.4132 -1.0044
 4196TIP3   OH234078   4.741   6.484   2.162 -0.2412 -0.2895  0.3969
 4196TIP3    H134079   4.816   6.536   2.192  0.3353 -1.5398  1.1685
 4196TIP3    H234080   4.691   6.545   2.107  1.5174  0.4736 -0.4469
 4197TIP3   OH234081   4.879   2.093  14.912 -0.3892  0.3734  0.3651
 4197TIP3    H134082   4.920   2.161  14.858  1.2080 -0.4239  0.5091
 4197TIP3    H234083   4.951   2.033  14.933 -1.7150 -1.2699  0.3917
 4198TIP3   OH234084   0.027   1.097   5.661 -0.8025 -0.1929 -0.6962
 4198TIP3    H134085   0.076   1.100   5.578  0.1693 -0.8441 -0.1628
 4198TIP3    H234086   0.062   1.170   5.712  0.5853 -1.4354  0.1928
 4199TIP3   OH234087   3.035   4.529  13.518  0.4629 -0.4014 -0.7181
 4199TIP3    H134088   3.098   4.488  13.577 -0.3502 -1.0694 -0.2876
 4199TIP3    H234089   2.950   4.510  13.557  0.0221  1.2102 -0.8279
 4200TIP3   OH234090   4.173   2.265   3.786  0.0598 -0.1398 -0.1214
 4200TIP3    H134091   4.159   2.326   3.858 -0.0151  1.3844 -1.3531
 4200TIP3    H234092   4.230   2.198   3.821 -0.8894 -0.0658  1.6599
 4201TIP3   OH234093   0.479   4.960  16.024  0.3182 -0.0413  0.6980
 4201TIP3    H134094   0.469   4.899  15.951 -0.4165 -0.6789  1.3190
 4201TIP3    H234095   0.475   4.905  16.102  1.6759  0.5621  1.2228
 4202TIP3   OH234096   4.032   6.328  15.104 -0.1030  0.1912  0.2476
 4202TIP3    H134097   4.091   6.272  15.154 -0.9419  0.2925  1.4050
 4202TIP3    H234098   4.089   6.389  15.058  0.6930  2.2170  3.6016
 4203TIP3   OH234099   0.569   5.347  12.215  0.1177  0.7465 -0.0228
 4203TIP3    H134100   0.553   5.284  12.144 -0.4281 -0.5556  1.1990
 4203TIP3    H234101   0.490   5.344  12.268  1.2141  0.2812  1.6696
 4204TIP3   OH234102   1.249   6.416  14.624  0.6919  0.0172 -0.6254
 4204TIP3    H134103   1.172   6.372  14.589 -0.9558  1.0617  1.5070
 4204TIP3    H234104   1.247   6.503  14.585  0.8337  0.0485 -0.5646
 4205TIP3   OH234105   5.922   2.846   0.606  0.1057 -0.4965 -0.2542
 4205TIP3    H134106   5.830   2.866   0.623  0.3254  0.4690 -0.1464
 4205TIP3    H234107   5.924   2.821   0.514 -0.3223 -0.9025 -0.1578
 4206TIP3   OH234108   3.256   3.929   1.026 -0.3326  0.6228 -0.1512
 4206TIP3    H134109   3.306   3.847   1.024 -0.2366  0.6500  0.7510
 4206TIP3    H234110   3.184   3.914   0.965 -0.4614 -0.2364  0.1910
 4207TIP3   OH234111   4.070   2.848   0.120 -0.5914 -0.1407 -0.4022
 4207TIP3    H134112   4.019   2.805   0.052  0.4477 -0.8437 -0.7645
 4207TIP3    H234113   4.160   2.847   0.087  0.0592 -1.1171  1.2644
 4208TIP3   OH234114   6.002   6.826  12.072  0.0410  0.1116  0.4915
 4208TIP3    H134115   5.971   6.777  11.996 -0.5643 -2.1248  2.0908
 4208TIP3    H234116   6.012   6.761  12.141  3.4579  1.5131  1.5627
 4209TIP3   OH234117   6.239   1.942  11.831  0.0990  0.1739  0.2256
 4209TIP3    H134118   6.324   1.901  11.813  0.6266  1.3764 -0.1204
 4209TIP3    H234119   6.254   1.994  11.910 -0.3669  0.2529  0.2642
 4210TIP3   OH234120   0.555   1.267   5.092  0.3842  0.3993 -0.6361
 4210TIP3    H134121   0.478   1.320   5.070 -0.3663 -0.9573 -1.3922
 4210TIP3    H234122   0.542   1.243   5.184 -1.1606 -1.4423 -1.2647
 4211TIP3   OH234123   1.301   3.357  15.600  0.2408  0.2396  0.1620
 4211TIP3    H134124   1.303   3.350  15.696 -0.3398  0.9061  0.2271
 4211TIP3    H234125   1.393   3.358  15.575  0.4404  1.8765  0.8639
 4212TIP3   OH234126   1.568   3.916   1.411 -0.1477  0.1115  0.3813
 4212TIP3    H134127   1.538   4.006   1.426  0.7809  0.4605  0.2310
 4212TIP3    H234128   1.539   3.895   1.322 -1.1220 -0.0673  0.7243
 4213TIP3   OH234129   0.041   6.180  11.328  0.2973 -0.2149  0.5321
 4213TIP3    H134130   0.114   6.193  11.267  0.5294 -0.4061  0.7653
 4213TIP3    H234131   0.025   6.266  11.365 -1.3670  0.4225 -1.4765
 4214TIP3   OH234132   3.935   5.839  14.414 -0.1698  0.0692 -0.7952
 4214TIP3    H134133   3.849   5.859  14.451  0.8885  3.9394 -0.0393
 4214TIP3    H234134   3.998   5.877  14.475  2.1139 -1.7541 -1.8174
 4215TIP3   OH234135   6.022   0.083  13.856  0.6219  0.0145 -0.6614
 4215TIP3    H134136   6.070   0.032  13.921 -0.2175  0.3675  0.2516
 4215TIP3    H234137   6.070   0.068  13.774 -0.3418 -3.3631 -0.7645
 4216TIP3   OH234138   1.545   4.995   4.202 -0.1074  1.1690  0.0696
 4216TIP3    H134139   1.635   5.013   4.228 -0.0347  1.2201 -0.2160
 4216TIP3    H234140   1.553   4.951   4.118 -0.2306 -1.0821  1.1694
 4217TIP3   OH234141   4.675   5.881  16.526  0.2780  0.1063 -0.9361
 4217TIP3    H134142   4.743   5.819  16.552 -0.2365  0.2968  1.0326
 4217TIP3    H234143   4.722   5.963  16.512  0.5857 -0.0043 -0.5678
 4218TIP3   OH234144   0.799   2.577   4.700 -0.1206 -0.0742 -0.4567
 4218TIP3    H134145   0.731   2.526   4.656 -1.1867  2.6473 -2.2282
 4218TIP3    H234146   0.844   2.624   4.630  1.3483  0.8062  0.9816
 4219TIP3   OH234147   3.852   2.355   3.986  0.0407  0.4851 -0.1040
 4219TIP3    H134148   3.830   2.354   4.080  1.5038  2.2804  0.3286
 4219TIP3    H234149   3.873   2.264   3.965 -1.5816 -0.1804  0.9729
 4220TIP3   OH234150   5.850   0.375  12.742  0.7362  0.2082 -0.1167
 4220TIP3    H134151   5.931   0.400  12.698  0.6767  0.5098 -0.0564
 4220TIP3    H234152   5.866   0.286  12.775  1.2209  0.4619  0.3437
 4221TIP3   OH234153   2.193   1.707   0.695  0.5604  0.1974 -0.3618
 4221TIP3    H134154   2.110   1.671   0.666  0.3361 -0.8175  1.3536
 4221TIP3    H234155   2.259   1.646   0.661  0.2879 -1.0931  1.2884
 4222TIP3   OH234156   5.659   1.343  14.036 -0.4601 -0.4088 -0.0078
 4222TIP3    H134157   5.648   1.248  14.039 -0.4900 -0.3943  0.3489
 4222TIP3    H234158   5.569   1.377  14.037 -0.4685 -0.3963 -0.8610
 4223TIP3   OH234159   3.284   2.149  15.285  0.4151  0.0719 -0.4015
 4223TIP3    H134160   3.346   2.104  15.343 -0.0658 -1.1114 -0.7665
 4223TIP3    H234161   3.293   2.241  15.307 -0.0462 -0.3483  1.8781
 4224TIP3   OH234162   0.405   2.870   1.795 -0.2479  0.0688 -0.1102
 4224TIP3    H134163   0.355   2.927   1.737 -0.7649  0.3097  0.5640
 4224TIP3    H234164   0.477   2.925   1.826  0.6012 -0.3397 -1.2484
 4225TIP3   OH234165   5.470   0.014   6.651 -0.2634  0.5507 -0.3873
 4225TIP3    H134166   5.450   0.105   6.627 -2.6872  0.0657 -0.5115
 4225TIP3    H234167   5.384  -0.025   6.670  0.6182 -1.9504 -1.1408
 4226TIP3   OH234168   3.857   4.695   4.675 -0.0592  0.1678  0.3901
 4226TIP3    H134169   3.776   4.648   4.692  1.2206 -2.0450  0.9097
 4226TIP3    H234170   3.861   4.763   4.743 -1.1108 -0.2047  0.8365
 4227TIP3   OH234171   6.074   3.888   4.009  0.0456  0.3475  0.0731
 4227TIP3    H134172   6.059   3.920   4.098 -0.0693  0.7885 -0.1029
 4227TIP3    H234173   6.128   3.810   4.021 -1.2778 -0.4993  0.6207
 4228TIP3   OH234174   5.954   5.963   3.037 -0.6919 -0.2261 -0.1145
 4228TIP3    H134175   5.932   5.912   2.959 -1.9571 -0.3838  0.3251
 4228TIP3    H234176   6.050   5.965   3.038 -0.6448 -0.1323 -1.7255
 4229TIP3   OH234177   5.511   1.666   4.468  0.4161  0.1027  0.8674
 4229TIP3    H134178   5.554   1.698   4.388  0.5549 -0.5557  0.6702
 4229TIP3    H234179   5.450   1.735   4.492 -1.4885 -0.7193 -1.2276
 4230TIP3   OH234180   1.062   1.920  13.857 -0.2371 -0.2418  0.4780
 4230TIP3    H134181   1.062   1.887  13.767  0.6760 -0.9609  0.7215
 4230TIP3    H234182   1.056   2.015  13.848 -0.5670 -0.3332 -0.3285
 4231TIP3   OH234183   2.050   2.888   2.307 -0.2067 -0.0899  0.1314
 4231TIP3    H134184   2.106   2.868   2.382  0.7308  1.1880 -0.1790
 4231TIP3    H234185   2.086   2.835   2.236 -0.7432 -0.8770  0.4352
 4232TIP3   OH234186   0.691   2.755   1.556  0.1547 -0.4044 -0.9487
 4232TIP3    H134187   0.730   2.679   1.598 -1.1500 -0.7775 -0.3480
 4232TIP3    H234188   0.635   2.718   1.488 -0.0691  0.0496 -1.0162
 4233TIP3   OH234189   6.215   1.857   1.993  0.2796 -0.2405  0.3129
 4233TIP3    H134190   6.171   1.790   1.940  1.3146 -0.6919 -0.0104
 4233TIP3    H234191   6.188   1.838   2.083  1.4627 -1.8658  0.3750
 4234TIP3   OH234192   3.270   6.839   0.933 -0.6747 -0.0359 -0.1711
 4234TIP3    H134193   3.200   6.820   0.995 -0.2777  1.2172  0.7033
 4234TIP3    H234194   3.233   6.906   0.875  0.2571  1.8097  1.2697
 4235TIP3   OH234195   5.066   2.728   2.702 -0.1943  0.8439 -0.1964
 4235TIP3    H134196   5.115   2.788   2.758  0.7387 -1.5817  1.7423
 4235TIP3    H234197   5.125   2.712   2.628 -0.8457  2.9449 -1.2545
 4236TIP3   OH234198   3.048   2.283   0.183 -0.1593  0.5558 -0.3924
 4236TIP3    H134199   3.111   2.264   0.113 -0.0282  0.3514 -0.2198
 4236TIP3    H234200   2.999   2.202   0.193  0.6969  0.1414  0.6532
 4237TIP3   OH234201   3.231   0.448   5.815  0.0109  0.1857 -0.1043
 4237TIP3    H134202   3.200   0.474   5.902 -2.4518 -0.7745 -0.6010
 4237TIP3    H234203   3.279   0.367   5.830  1.3581  1.0660  0.5520
 4238TIP3   OH234204   6.362   5.323  17.021  0.0888 -0.0063  0.5490
 4238TIP3    H134205   6.272   5.290  17.023  0.5079 -2.1714 -3.7987
 4238TIP3    H234206   6.407   5.276  17.091 -1.2980 -2.2423  0.0358
 4239TIP3   OH234207   2.111   2.717   0.586  0.2397  0.3322 -0.3482
 4239TIP3    H134208   2.116   2.741   0.679 -0.0844  1.9959 -0.7395
 4239TIP3    H234209   2.023   2.743   0.559  0.1798 -0.5194 -1.0463
 4240TIP3   OH234210   4.966   6.193  16.707  0.1803 -0.2610 -0.0711
 4240TIP3    H134211   4.886   6.241  16.727  0.3713 -0.5898  1.5836
 4240TIP3    H234212   5.035   6.260  16.709  0.3869 -0.4885  1.8152
 4241TIP3   OH234213   6.036   0.447   5.459  0.0418  0.4777  0.1469
 4241TIP3    H134214   6.002   0.532   5.432  0.0183 -0.5770 -3.7502
 4241TIP3    H234215   5.957   0.393   5.470  0.0456 -0.3700 -2.9496
 4242TIP3   OH234216   4.677   0.219  13.996  0.2927  0.1759 -0.0070
 4242TIP3    H134217   4.763   0.178  14.007  0.7234  0.5600 -1.6075
 4242TIP3    H234218   4.685   0.271  13.916 -1.2682  0.6649  0.1108
 4243TIP3   OH234219   3.550   0.763   1.247 -0.6689  0.4258 -0.2103
 4243TIP3    H134220   3.578   0.712   1.171  2.1835  0.5362  0.6436
 4243TIP3    H234221   3.511   0.698   1.306  0.4666 -0.3527 -0.2695
 4244TIP3   OH234222   4.583   2.390  15.499  0.1467 -0.0341  0.2623
 4244TIP3    H134223   4.552   2.446  15.428 -2.4177 -1.5993  0.0453
 4244TIP3    H234224   4.547   2.428  15.578  2.7256  1.5101  0.8294
 4245TIP3   OH234225   5.161   0.811   1.336 -0.1642  0.2034 -0.6048
 4245TIP3    H134226   5.154   0.906   1.340  1.9199  0.3834  3.3171
 4245TIP3    H234227   5.250   0.794   1.304  0.4604 -0.2525  1.2414
 4246TIP3   OH234228   5.410   4.314  15.872  0.0178  0.2310 -0.3975
 4246TIP3    H134229   5.369   4.327  15.787 -0.4229  0.4181 -0.1586
 4246TIP3    H234230   5.405   4.400  15.914 -1.1301 -0.2105  0.4171
 4247TIP3   OH234231   5.217   4.745  10.561  0.9052 -0.1313  0.1616
 4247TIP3    H134232   5.311   4.763  10.555  0.6776  1.0343 -0.1560
 4247TIP3    H234233   5.179   4.828  10.590 -0.1086 -0.3452 -0.5340
 4248TIP3   OH234234   5.259   4.126  17.060  0.3004 -0.2289 -0.0582
 4248TIP3    H134235   5.207   4.186  17.114  0.7407  0.1679 -0.0715
 4248TIP3    H234236   5.294   4.180  16.989  0.2042 -0.6279 -0.4191
 4249TIP3   OH234237   0.983   5.666  10.987 -0.0492 -0.2455  0.1615
 4249TIP3    H134238   0.994   5.571  10.989 -1.1434 -0.4157 -0.7404
 4249TIP3    H234239   0.922   5.681  10.915  1.1089  1.2532 -0.5537
 4250TIP3   OH234240   3.232   5.354  13.445 -0.5169 -0.5471 -0.5110
 4250TIP3    H134241   3.219   5.411  13.521  1.2811 -2.2245  1.1641
 4250TIP3    H234242   3.279   5.409  13.382  0.7615  0.0298  0.8716
 4251TIP3   OH234243   4.850   1.410  14.179  0.0937  0.0512  0.7309
 4251TIP3    H134244   4.893   1.417  14.265  1.6162  1.6219 -0.1031
 4251TIP3    H234245   4.796   1.489  14.174 -0.3644 -0.2797  0.4233
 4252TIP3   OH234246   6.579   3.567   4.710 -0.2266  0.1920 -0.1122
 4252TIP3    H134247   6.655   3.541   4.659  0.9340  0.2061  1.5420
 4252TIP3    H234248   6.612   3.579   4.799 -1.7754  2.0453  0.2914
 4253TIP3   OH234249   0.462   2.253   1.723 -0.2536 -0.3324  0.6890
 4253TIP3    H134250   0.393   2.319   1.716 -0.0215  0.0129  1.5216
 4253TIP3    H234251   0.472   2.239   1.817 -0.6681 -1.9479  0.5284
 4254TIP3   OH234252   0.313   2.245  13.411  0.2253 -0.0425 -0.2812
 4254TIP3    H134253   0.234   2.215  13.368  0.7595 -1.2298 -0.4753
 4254TIP3    H234254   0.319   2.339  13.389 -1.6565  0.3209  0.6234
 4255TIP3   OH234255   5.525   4.501  14.007  0.0130 -0.2833 -0.1217
 4255TIP3    H134256   5.463   4.570  14.033  0.0145 -0.1261 -0.5220
 4255TIP3    H234257   5.495   4.473  13.920 -0.2125 -1.0591  0.2053
 4256TIP3   OH234258   4.855   4.428  11.340 -0.1918 -0.2738 -0.4200
 4256TIP3    H134259   4.947   4.456  11.335 -0.3257  0.2781  0.0868
 4256TIP3    H234260   4.808   4.490  11.284 -0.4335  0.3058  0.3945
 4257TIP3   OH234261   0.252   3.215   5.562 -0.1470  0.3973  0.3267
 4257TIP3    H134262   0.243   3.310   5.546 -0.3556  0.2357 -0.6118
 4257TIP3    H234263   0.314   3.186   5.495  0.1249 -0.0901  0.7888
 4258TIP3   OH234264   6.035   3.760   0.198 -0.2856 -0.0950 -0.6818
 4258TIP3    H134265   6.001   3.672   0.178 -2.1525  0.4925 -0.3236
 4258TIP3    H234266   6.021   3.769   0.292 -0.5031  0.7370 -0.7919
 4259TIP3   OH234267   3.622   2.225  12.117 -0.0617  0.4505  0.4073
 4259TIP3    H134268   3.688   2.156  12.130  0.8950  1.4516  1.0048
 4259TIP3    H234269   3.645   2.265  12.033 -0.9996 -0.3459 -0.2486
 4260TIP3   OH234270   6.509   2.293   5.564  0.2927 -0.2771 -0.1825
 4260TIP3    H134271   6.571   2.241   5.512 -0.7315 -1.1173 -0.5884
 4260TIP3    H234272   6.426   2.286   5.516 -0.2223  0.4682  0.5890
 4261TIP3   OH234273   0.549   0.307  10.633 -0.4038 -0.0354 -0.2908
 4261TIP3    H134274   0.553   0.247  10.559 -0.5630 -0.8012  0.3064
 4261TIP3    H234275   0.626   0.362  10.623 -0.7523  0.2802 -1.3598
 4262TIP3   OH234276   4.916   3.658   0.716  0.5676 -0.2575  0.3948
 4262TIP3    H134277   4.990   3.714   0.694  0.6136 -0.0398  1.0798
 4262TIP3    H234278   4.945   3.570   0.692  0.9794 -0.1502  0.4931
 4263TIP3   OH234279   3.283   3.709   5.579 -0.4186 -0.6222  0.4799
 4263TIP3    H134280   3.337   3.678   5.652 -0.4429  0.8417  1.1563
 4263TIP3    H234281   3.247   3.630   5.540  0.6116 -1.5042  1.2740
 4264TIP3   OH234282   0.794   4.012   2.909 -0.0721 -0.3142  0.2056
 4264TIP3    H134283   0.819   4.099   2.878  0.7109 -0.9110 -0.9198
 4264TIP3    H234284   0.729   3.982   2.844 -0.6258 -0.4227  0.8008
 4265TIP3   OH234285   5.070   4.024  11.306 -0.4162 -0.3023 -0.1573
 4265TIP3    H134286   5.124   3.997  11.231 -0.1605 -1.3265  0.3912
 4265TIP3    H234287   5.133   4.054  11.371 -0.5153 -1.2477  0.3842
 4266TIP3   OH234288   4.739   0.904  16.021 -0.1851 -0.0688 -0.4757
 4266TIP3    H134289   4.699   0.966  15.960  0.8243  0.1262 -0.9608
 4266TIP3    H234290   4.700   0.820  16.000  1.7846 -0.4826 -3.0171
 4267TIP3   OH234291   2.851   5.611  12.373  0.2515  0.1656 -0.0864
 4267TIP3    H134292   2.756   5.625  12.367  0.3513  0.2546 -1.8854
 4267TIP3    H234293   2.860   5.515  12.376  0.1303  0.1008 -1.2029
 4268TIP3   OH234294   2.389   1.721  15.949 -0.1925  0.1235  0.3035
 4268TIP3    H134295   2.407   1.701  15.857  1.1140  2.3552  0.0091
 4268TIP3    H234296   2.467   1.690  15.996 -1.1968 -1.7602  0.8477
 4269TIP3   OH234297   3.016   6.409  11.374  0.6568  0.0026 -0.4223
 4269TIP3    H134298   2.948   6.374  11.432 -0.0999  0.9289 -0.7180
 4269TIP3    H234299   2.993   6.502  11.365  1.5725  0.1717 -1.0885
 4270TIP3   OH234300   4.144   2.992  13.653  0.0316 -0.0253 -0.0121
 4270TIP3    H134301   4.151   2.986  13.558 -0.3962  2.1297 -0.2141
 4270TIP3    H234302   4.069   3.050  13.669 -0.6145 -1.2201  1.6728
 4271TIP3   OH234303   1.053   0.472  12.300 -0.0669  0.0342  0.0621
 4271TIP3    H134304   1.026   0.418  12.374 -0.9393  0.9740  0.4655
 4271TIP3    H234305   0.977   0.473  12.242 -0.0971  0.8731  0.0985
 4272TIP3   OH234306   4.422   3.013   4.706 -0.7682 -0.2522 -0.1834
 4272TIP3    H134307   4.416   3.083   4.772 -1.7566  0.5157 -1.0377
 4272TIP3    H234308   4.352   3.034   4.643 -0.7487 -1.7388 -0.7369
 4273TIP3   OH234309   5.292   4.972  13.293  0.0882 -0.0136 -0.3236
 4273TIP3    H134310   5.387   4.963  13.297  0.0810 -0.6172 -1.1863
 4273TIP3    H234311   5.259   4.882  13.301 -0.4119  0.1936 -0.0166
 4274TIP3   OH234312   2.321   3.821   5.736  0.2807  0.3493 -0.1343
 4274TIP3    H134313   2.411   3.831   5.705 -0.2132  0.2767 -1.6781
 4274TIP3    H234314   2.272   3.889   5.691 -0.3794  0.6772  1.0305
 4275TIP3   OH234315   1.922   6.499  16.995  0.0531  0.0464  0.8317
 4275TIP3    H134316   1.968   6.415  16.997 -0.2092 -0.0979  0.8677
 4275TIP3    H234317   1.942   6.539  17.080 -0.9448 -0.5930  1.3944
 4276TIP3   OH234318   6.649   0.409  12.516  0.2110  0.3369  0.1161
 4276TIP3    H134319   6.613   0.456  12.591  1.2378  2.8854 -0.8496
 4276TIP3    H234320   6.739   0.441  12.509 -0.0663  0.8139 -2.5957
 4277TIP3   OH234321   0.652   4.301  13.116 -0.3119 -0.2556 -0.2528
 4277TIP3    H134322   0.647   4.217  13.162  1.7378 -0.7063 -0.7748
 4277TIP3    H234323   0.568   4.344  13.136 -0.1305 -1.0436  2.6723
 4278TIP3   OH234324   5.953   1.009   5.384 -0.7217  0.1448 -0.1433
 4278TIP3    H134325   6.040   0.994   5.421  0.4073  3.5524 -1.0504
 4278TIP3    H234326   5.950   0.952   5.307  0.2356 -0.8083  0.4860
 4279TIP3   OH234327   0.107   0.771  12.134  0.6793  0.4634  0.0944
 4279TIP3    H134328   0.055   0.756  12.055 -0.1982  1.5813  0.4294
 4279TIP3    H234329   0.113   0.866  12.141 -0.0297  0.4275  1.8331
 4280TIP3   OH234330   0.906   1.955  12.617  0.4022  0.3866  0.2321
 4280TIP3    H134331   0.860   1.982  12.696  0.4612  1.8255 -0.1946
 4280TIP3    H234332   0.967   1.887  12.647  0.8578  1.3305  1.5475
 4281TIP3   OH234333   2.024   5.046  16.800 -0.2009  0.2999  0.2493
 4281TIP3    H134334   1.963   4.992  16.748  0.8499  1.7450 -2.7289
 4281TIP3    H234335   2.103   4.994  16.806 -0.3975  0.0391  0.6291
 4282TIP3   OH234336   3.996   3.028   3.789  0.5030 -0.0709 -0.6374
 4282TIP3    H134337   3.966   2.971   3.860 -1.7838  1.0800 -0.5927
 4282TIP3    H234338   4.040   2.969   3.728  3.1923 -1.0237  1.9467
 4283TIP3   OH234339   2.054   1.921  14.540 -0.1428 -0.2175 -0.2800
 4283TIP3    H134340   2.046   1.972  14.460 -0.0375 -1.5329 -1.1551
 4283TIP3    H234341   1.990   1.850  14.531 -1.9073  0.9617  1.9049
 4284TIP3   OH234342   0.607   2.398  12.324  0.1457 -0.1712 -0.0802
 4284TIP3    H134343   0.680   2.411  12.385 -0.7911 -1.8283  1.4913
 4284TIP3    H234344   0.561   2.482  12.324  0.8157  0.2096  0.6077
 4285TIP3   OH234345   0.858   3.847  11.159 -0.1356  0.3791  0.2877
 4285TIP3    H134346   0.888   3.900  11.232  0.5055  1.1741 -0.5353
 4285TIP3    H234347   0.880   3.898  11.081 -0.2011 -0.7440 -0.4899
 4286TIP3   OH234348   1.757   2.583  15.992  0.1280 -0.6188  0.1371
 4286TIP3    H134349   1.786   2.497  15.961 -0.1585 -1.1428  1.2777
 4286TIP3    H234350   1.711   2.621  15.917 -0.7254 -1.9355 -0.0514
 4287TIP3   OH234351   6.566   5.655   0.759  0.3192 -0.1619 -0.3788
 4287TIP3    H134352   6.587   5.726   0.698  1.3428 -0.6001 -0.5628
 4287TIP3    H234353   6.650   5.633   0.799 -0.1828 -0.5195  0.5023
 4288TIP3   OH234354   6.596   3.845  16.070  0.5751 -0.5099  0.0483
 4288TIP3    H134355   6.557   3.859  15.984  1.0224  1.2710  0.1016
 4288TIP3    H234356   6.674   3.900  16.071  0.9503 -1.0199  1.3619
 4289TIP3   OH234357   1.866   3.470  15.475  0.0240  0.4490  0.2218
 4289TIP3    H134358   1.828   3.552  15.507 -0.9506  0.0920 -0.0025
 4289TIP3    H234359   1.847   3.406  15.544  0.5809  0.3528  0.2925
 4290TIP3   OH234360   4.856   1.958   3.580 -0.2111  0.1296  0.8648
 4290TIP3    H134361   4.924   1.921   3.523 -0.7443  0.0964  0.2371
 4290TIP3    H234362   4.806   1.883   3.610 -0.3379  0.2062  0.8450
 4291TIP3   OH234363   1.273   1.820  12.543  0.1474 -0.0017 -0.5182
 4291TIP3    H134364   1.205   1.759  12.570 -0.7048  0.8278 -0.7549
 4291TIP3    H234365   1.338   1.766  12.499  1.1166 -1.2881  2.2372
 4292TIP3   OH234366   6.113   0.900   6.569  0.4879 -0.2818 -0.0995
 4292TIP3    H134367   6.023   0.871   6.558  1.0027 -1.4477 -1.6243
 4292TIP3    H234368   6.112   0.992   6.542 -0.2589 -0.2478  0.0177
 4293TIP3   OH234369   6.686   4.300   2.554  0.2800 -0.5189  0.3930
 4293TIP3    H134370   6.598   4.295   2.594  0.4106 -1.3385  0.6097
 4293TIP3    H234371   6.683   4.236   2.483  0.8647 -0.9450  0.7395
 4294TIP3   OH234372   2.039   1.423   5.589 -0.1991  0.1186  0.5998
 4294TIP3    H134373   2.108   1.488   5.596 -0.1161 -0.1217  2.6146
 4294TIP3    H234374   2.021   1.397   5.680 -2.6320 -0.1463  0.1044
 4295TIP3   OH234375   6.244   2.325  11.310 -0.2497  0.1178  0.2730
 4295TIP3    H134376   6.222   2.418  11.317 -1.0563  0.0867 -1.3804
 4295TIP3    H234377   6.301   2.319  11.234  2.1832 -0.4099  2.0196
 4296TIP3   OH234378   4.099   2.532   3.617  0.3171 -0.0897 -0.3315
 4296TIP3    H134379   4.132   2.442   3.625 -0.4494 -0.3479  0.0969
 4296TIP3    H234380   4.100   2.566   3.707  1.4346  0.6453 -0.6095
 4297TIP3   OH234381   4.238   6.532   3.660 -0.4251  0.4917  0.6917
 4297TIP3    H134382   4.167   6.468   3.654  0.0459 -0.2429  2.2462
 4297TIP3    H234383   4.249   6.546   3.754  1.6249  0.4309  0.5042
 4298TIP3   OH234384   4.318   2.751  13.402 -0.5427  0.0213 -0.0857
 4298TIP3    H134385   4.329   2.798  13.320 -0.4083 -0.8644 -0.5975
 4298TIP3    H234386   4.226   2.760  13.424 -0.4216  0.8997  0.0664
 4299TIP3   OH234387   1.964   2.961   1.884 -0.2800  0.4410  0.2810
 4299TIP3    H134388   1.977   3.005   1.800 -0.3926 -0.1006 -0.0237
 4299TIP3    H234389   2.046   2.914   1.899 -0.5497 -0.0915  0.0941
 4300TIP3   OH234390   4.075   5.425   5.619 -0.6371  0.2452 -0.1168
 4300TIP3    H134391   4.136   5.352   5.618 -1.9840 -0.9509 -1.6871
 4300TIP3    H234392   4.130   5.503   5.622  0.8658 -0.8053  0.5713
 4301TIP3   OH234393   4.188   5.216   3.046  0.0565  0.0363 -0.6899
 4301TIP3    H134394   4.121   5.269   3.089 -0.3633 -0.3194 -0.8961
 4301TIP3    H234395   4.196   5.138   3.101  1.3048  0.6918  0.0983
 4302TIP3   OH234396   1.876   0.052  14.084 -0.2733  0.1559  0.3902
 4302TIP3    H134397   1.838  -0.032  14.112 -0.2895 -0.1035 -0.3857
 4302TIP3    H234398   1.970   0.042  14.100 -0.3218  0.1531  0.6887
 4303TIP3   OH234399   4.696   3.730  14.581  0.1038  0.7896 -0.3949
 4303TIP3    H134400   4.760   3.796  14.555  1.0495 -0.7992 -2.3825
 4303TIP3    H234401   4.734   3.647  14.552 -0.8232 -0.7429  2.3731
 4304TIP3   OH234402   6.040   1.045  12.999  0.2888 -0.0723  0.2070
 4304TIP3    H134403   6.072   1.134  12.985  0.0893  0.2173  1.4813
 4304TIP3    H234404   6.059   1.027  13.091  0.9942 -1.6291 -0.2062
 4305TIP3   OH234405   4.973   6.036   3.480 -0.5532  0.1786  0.5262
 4305TIP3    H134406   4.898   6.010   3.533  0.3165 -1.7771  0.8757
 4305TIP3    H234407   4.947   6.020   3.390 -1.2751  1.5197  0.4665
 4306TIP3   OH234408   0.946   1.125  14.531 -0.3226 -0.7332  0.1357
 4306TIP3    H134409   0.967   1.099  14.441  0.8244 -0.7198  0.3786
 4306TIP3    H234410   0.852   1.110  14.539 -0.5851 -0.0273 -1.2988
 4307TIP3   OH234411   5.196   1.482   6.148  0.6535  0.2978  0.2864
 4307TIP3    H134412   5.162   1.431   6.075  0.8406 -0.5890  0.7928
 4307TIP3    H234413   5.145   1.453   6.223  0.6298  1.0123  0.5560
 4308TIP3   OH234414   0.999   5.248  14.409  0.4765  0.3216  0.7870
 4308TIP3    H134415   1.083   5.284  14.439  1.5930 -0.0984 -1.6252
 4308TIP3    H234416   0.960   5.318  14.357 -0.8535  0.6060  2.0905
 4309TIP3   OH234417   4.838   0.279   5.552  0.2750 -0.0857  0.3611
 4309TIP3    H134418   4.770   0.312   5.494  0.1666  0.9751  1.0646
 4309TIP3    H234419   4.919   0.284   5.500  0.2028  0.9967  0.3430
 4310TIP3   OH234420   1.055   4.963   0.830  0.0500  0.1172 -0.1454
 4310TIP3    H134421   0.979   4.930   0.780  0.0727 -0.1058 -0.0325
 4310TIP3    H234422   1.075   4.893   0.892  0.2720  0.2293 -0.0912
 4311TIP3   OH234423   3.108   0.816   3.930  0.3883 -0.2565  0.4754
 4311TIP3    H134424   3.095   0.822   3.836  1.0410 -1.1509  0.3184
 4311TIP3    H234425   3.184   0.759   3.941  1.9328  1.8398  1.4608
 4312TIP3   OH234426   6.101   2.009   2.242  0.1316 -0.1179  0.3212
 4312TIP3    H134427   6.012   2.045   2.248  0.6261  1.1049  0.6102
 4312TIP3    H234428   6.101   1.937   2.305 -1.2650 -1.5122 -1.2009
 4313TIP3   OH234429   2.994   6.669  12.833 -0.0260 -0.6433 -0.0132
 4313TIP3    H134430   2.915   6.689  12.783 -0.1427 -3.2103 -0.9838
 4313TIP3    H234431   2.962   6.649  12.921 -0.2684 -0.1989  0.0067
 4314TIP3   OH234432   0.771   5.952   5.374 -0.1543 -0.2776  0.2715
 4314TIP3    H134433   0.791   6.042   5.400  0.8074 -0.0751 -1.0186
 4314TIP3    H234434   0.698   5.926   5.430  0.4372  0.8181  1.6128
 4315TIP3   OH234435   1.563   4.089  13.058 -0.0805 -0.0188 -0.2648
 4315TIP3    H134436   1.584   4.001  13.029 -0.3569 -0.5849  1.1850
 4315TIP3    H234437   1.473   4.083  13.090  0.4335  0.3811  1.3500
 4316TIP3   OH234438   5.346   3.690   5.208  0.1182  0.5051  0.0574
 4316TIP3    H134439   5.411   3.712   5.141 -0.5814  1.1567 -0.4169
 4316TIP3    H234440   5.279   3.640   5.162  0.4461 -0.4789  0.6201
 4317TIP3   OH234441   4.074   3.426  16.076 -0.2449  0.0844 -0.7439
 4317TIP3    H134442   4.066   3.518  16.048 -1.3469 -0.1004 -1.0765
 4317TIP3    H234443   3.990   3.386  16.051 -1.0331 -0.2690  2.1328
 4318TIP3   OH234444   1.638   2.145   2.934  0.1093  0.3075  0.1284
 4318TIP3    H134445   1.720   2.194   2.935  0.0866  0.4021 -1.2568
 4318TIP3    H234446   1.663   2.058   2.901 -0.2220  0.0666  0.4994
 4319TIP3   OH234447   2.225   6.635  16.505  0.3835  0.1269  0.3900
 4319TIP3    H134448   2.195   6.697  16.439 -1.8723 -1.2743 -0.0283
 4319TIP3    H234449   2.145   6.603  16.546  1.5893 -0.9528  2.0375
 4320TIP3   OH234450   0.795   3.516   3.585  0.8108 -0.0366  0.1724
 4320TIP3    H134451   0.791   3.459   3.661  0.7768  0.8489  0.8576
 4320TIP3    H234452   0.784   3.458   3.510 -1.4173 -0.6594  0.9288
 4321TIP3   OH234453   4.888   1.043   1.304 -0.8283 -0.1305  0.3987
 4321TIP3    H134454   4.981   1.067   1.295 -0.8427  0.4153  1.4779
 4321TIP3    H234455   4.867   0.996   1.223  0.2175  0.3005 -0.1470
 4322TIP3   OH234456   3.027   5.466  11.091 -0.3312 -0.1385 -0.3686
 4322TIP3    H134457   3.005   5.494  11.003 -0.9496  2.1610  0.4450
 4322TIP3    H234458   3.006   5.541  11.146  1.2574 -1.0352  1.5894
 4323TIP3   OH234459   2.048   1.920   4.638 -0.6815  0.3075  0.6021
 4323TIP3    H134460   2.047   1.967   4.721 -0.4354  3.2095 -0.8938
 4323TIP3    H234461   2.133   1.940   4.600  0.0725 -2.7075  0.4883
 4324TIP3   OH234462   5.700   5.063  17.016 -0.5071 -0.4378 -0.3659
 4324TIP3    H134463   5.705   4.995  17.083  2.5081 -0.4669 -0.4854
 4324TIP3    H234464   5.787   5.064  16.976 -0.7407  2.7978 -1.0827
 4325TIP3   OH234465   3.657   2.547  14.144 -0.0815 -0.5802 -0.3336
 4325TIP3    H134466   3.740   2.557  14.097  0.7921 -2.2650  0.7545
 4325TIP3    H234467   3.656   2.619  14.208  0.1416 -0.0812 -0.8834
 4326TIP3   OH234468   2.649   2.013  14.840  0.0714 -0.1044  0.4036
 4326TIP3    H134469   2.661   1.996  14.746 -0.1316 -1.0573  0.5417
 4326TIP3    H234470   2.716   1.958  14.883  1.6016  1.9037  0.7489
 4327TIP3   OH234471   4.088   2.593  15.558  0.2077 -0.2080 -0.0784
 4327TIP3    H134472   4.182   2.587  15.576  0.2032  0.0933  0.0598
 4327TIP3    H234473   4.075   2.536  15.482  0.1647 -1.7166  1.0317
 4328TIP3   OH234474   4.402   1.875  14.330  0.4277  0.1099 -0.6291
 4328TIP3    H134475   4.325   1.821  14.316 -1.1921  1.9905  0.4550
 4328TIP3    H234476   4.444   1.837  14.408 -1.5564  1.2087  1.0863
 4329TIP3   OH234477   3.100   1.675   0.676 -0.2571 -0.4765  0.1556
 4329TIP3    H134478   3.046   1.740   0.632  0.5268  0.3614  0.4068
 4329TIP3    H234479   3.150   1.634   0.605 -0.0681 -0.1541  0.1021
 4330TIP3   OH234480   6.609   5.487  10.712  0.2176  0.4986 -0.1686
 4330TIP3    H134481   6.698   5.519  10.698  0.3429 -0.0092 -0.5487
 4330TIP3    H234482   6.570   5.549  10.774  0.8092  0.7680 -0.0675
 4331TIP3   OH234483   0.939   1.329  16.534 -0.4229  0.0376  0.1895
 4331TIP3    H134484   1.016   1.348  16.480  0.6069  0.2820  1.6907
 4331TIP3    H234485   0.903   1.415  16.554  1.4878  0.3125  3.0513
 4332TIP3   OH234486   1.217   5.330  13.154 -0.4113  0.5616 -0.5507
 4332TIP3    H134487   1.292   5.361  13.104 -0.8419  1.0939 -0.8712
 4332TIP3    H234488   1.244   5.245  13.189  0.8134  1.3124  0.3927
 4333TIP3   OH234489   3.646   5.013   1.704  0.0917 -0.0713 -0.4288
 4333TIP3    H134490   3.606   4.950   1.644 -1.9846  0.5779  0.1851
 4333TIP3    H234491   3.610   5.098   1.677  0.9516  0.5391  0.2859
 4334TIP3   OH234492   2.234   5.534  12.053  0.2916 -0.4374 -0.1383
 4334TIP3    H134493   2.282   5.552  11.972  0.6672 -2.4280 -0.4337
 4334TIP3    H234494   2.167   5.470  12.028 -1.9173  1.5217  0.4814
 4335TIP3   OH234495   5.197   6.367  16.759  0.0723 -0.9283  0.3457
 4335TIP3    H134496   5.224   6.360  16.667  2.2760  0.7287  0.7852
 4335TIP3    H234497   5.272   6.337  16.809 -0.5210 -0.3613  1.6302
 4336TIP3   OH234498   0.732   5.366  17.055  0.4366  0.0896 -0.3985
 4336TIP3    H134499   0.735   5.341  17.147 -0.5767 -1.8213 -0.8339
 4336TIP3    H234500   0.824   5.375  17.029  0.7231  1.2461  0.9184
 4337TIP3   OH234501   1.114   0.808  16.889 -0.3259  0.4238  0.3146
 4337TIP3    H134502   1.147   0.825  16.977  0.6234  1.0879 -0.1562
 4337TIP3    H234503   1.185   0.834  16.830 -1.0942  0.3850 -0.6681
 4338TIP3   OH234504   0.219   3.111  15.260  0.0395  0.0223  0.2505
 4338TIP3    H134505   0.274   3.119  15.182  0.5283 -1.1944  0.4569
 4338TIP3    H234506   0.258   3.171  15.324 -0.6222  1.3627 -0.5581
 4339TIP3   OH234507   3.695   3.713  12.602  0.9131 -0.0980 -0.3534
 4339TIP3    H134508   3.673   3.728  12.510 -0.9210 -0.2488  0.0178
 4339TIP3    H234509   3.613   3.683  12.642  0.8821  2.5236  1.9023
 4340TIP3   OH234510   1.334   6.750   2.095  0.5438 -0.6017 -0.2388
 4340TIP3    H134511   1.375   6.698   2.164  0.4930 -1.5902 -0.9403
 4340TIP3    H234512   1.349   6.700   2.015 -1.4912 -0.6882 -0.6119
 4341TIP3   OH234513   4.257   3.715  16.482 -0.4628  0.6630  0.3712
 4341TIP3    H134514   4.274   3.791  16.537  1.3390 -0.3595  1.3263
 4341TIP3    H234515   4.168   3.687  16.507 -1.0490  2.2760  0.1698
 4342TIP3   OH234516   1.259   2.258  16.251  0.4451  0.2973  0.2613
 4342TIP3    H134517   1.287   2.312  16.326  1.2727  1.2332 -0.6927
 4342TIP3    H234518   1.179   2.300  16.220  1.4453  1.4641 -0.8972
 4343TIP3   OH234519   0.981   5.852  14.501 -0.1892 -0.6268  0.1613
 4343TIP3    H134520   0.894   5.871  14.537 -0.3569 -2.0805  0.6128
 4343TIP3    H234521   1.036   5.835  14.578  0.3376 -0.3056 -0.1418
 4344TIP3   OH234522   5.810   1.424   2.288  0.2372  0.4708 -0.3624
 4344TIP3    H134523   5.900   1.439   2.260  0.5867  0.7771  0.8696
 4344TIP3    H234524   5.785   1.504   2.333  0.7559 -1.0159  2.8251
 4345TIP3   OH234525   4.882   5.334  15.544  0.2200  0.0437 -0.1311
 4345TIP3    H134526   4.846   5.422  15.528 -1.1863 -0.6504 -0.9581
 4345TIP3    H234527   4.911   5.336  15.635 -1.1165  0.9194  0.2951
 4346TIP3   OH234528   0.955   5.830  15.544  0.0763 -0.2487  0.4836
 4346TIP3    H134529   0.881   5.793  15.591  0.2000  0.6234  1.3916
 4346TIP3    H234530   1.030   5.819  15.602  0.2308  0.8476  0.5210
 4347TIP3   OH234531   3.044   0.446   0.755 -0.5681 -0.2791 -0.4027
 4347TIP3    H134532   2.973   0.509   0.758 -0.2594  0.0541 -0.1034
 4347TIP3    H234533   3.119   0.492   0.792  0.1344 -0.2081 -1.8563
 4348TIP3   OH234534   4.869   3.048   5.550  0.6795 -0.3447 -0.6487
 4348TIP3    H134535   4.806   3.048   5.478 -0.3437  0.6158  0.2181
 4348TIP3    H234536   4.922   3.126   5.535 -2.1069  2.2752  1.7103
 4349TIP3   OH234537   3.821   4.550  12.755 -0.5488  0.5918 -0.1542
 4349TIP3    H134538   3.764   4.622  12.729 -1.0952  0.8291  1.5792
 4349TIP3    H234539   3.851   4.574  12.843  0.3272 -0.6627 -0.0870
 4350TIP3   OH234540   4.055   4.711  13.295  0.3109  0.5437  0.2817
 4350TIP3    H134541   4.020   4.798  13.274 -2.3026 -0.7462 -1.1534
 4350TIP3    H234542   3.981   4.652  13.281  1.5952 -1.7922  2.5707
 4351TIP3   OH234543   1.036   2.499   2.200 -0.2125  0.9196  0.3373
 4351TIP3    H134544   0.980   2.463   2.270 -1.8215  0.7395 -0.9680
 4351TIP3    H234545   1.124   2.500   2.237 -0.9345  0.3261  2.1697
 4352TIP3   OH234546   5.799   4.046  13.196  0.0913 -0.6922 -0.7552
 4352TIP3    H134547   5.782   3.964  13.150  0.0726 -1.0311 -0.1501
 4352TIP3    H234548   5.804   4.022  13.289 -1.2712  0.1968 -0.4214
 4353TIP3   OH234549   2.248   0.097   0.088  0.5709 -0.8168 -0.0732
 4353TIP3    H134550   2.160   0.066   0.066 -0.4779  0.7167  1.7260
 4353TIP3    H234551   2.291   0.106   0.003 -1.2132 -0.9782 -1.0637
 4354TIP3   OH234552   2.052   2.565  11.199  0.2340 -0.1251 -0.7387
 4354TIP3    H134553   2.073   2.594  11.110 -0.1902 -2.5215 -1.6974
 4354TIP3    H234554   1.997   2.487  11.186  2.3752 -2.1674  1.5542
 4355TIP3   OH234555   6.035   2.658  16.563  0.2525 -0.2430 -0.6590
 4355TIP3    H134556   5.941   2.669  16.577  0.4835 -0.3914  1.3143
 4355TIP3    H234557   6.043   2.575  16.516 -0.5561 -0.8961  0.3157
 4356TIP3   OH234558   1.065   3.988  15.427 -0.3003  0.0305  0.0772
 4356TIP3    H134559   1.053   4.063  15.369 -2.2671 -1.3677 -1.4561
 4356TIP3    H234560   1.112   4.023  15.503  1.0779  2.2427 -1.6842
 4357TIP3   OH234561   4.498   5.688   1.450  0.5005  0.3474 -0.1798
 4357TIP3    H134562   4.463   5.680   1.362  2.2698  1.3286 -1.0265
 4357TIP3    H234563   4.586   5.651   1.444  1.0669  1.4584  0.8949
 4358TIP3   OH234564   1.097   0.291   5.503  0.3424 -0.2050 -0.1415
 4358TIP3    H134565   1.027   0.319   5.563  0.5191  0.6563 -0.3226
 4358TIP3    H234566   1.178   0.315   5.548  0.4640  2.3823 -1.5736
 4359TIP3   OH234567   5.352   0.406   1.665  0.1597  0.1107  0.1155
 4359TIP3    H134568   5.326   0.315   1.652 -1.0390  0.4267  0.1205
 4359TIP3    H234569   5.306   0.454   1.596  1.5621  0.6012 -0.5103
 4360TIP3   OH234570   5.529   4.953  16.113 -0.1736 -0.7186  0.1777
 4360TIP3    H134571   5.496   4.896  16.043 -1.7551  1.2345 -0.7838
 4360TIP3    H234572   5.609   4.990  16.077 -1.2431  0.6670 -0.8984
 4361TIP3   OH234573   2.154   0.060  16.615 -0.0437 -0.2331 -0.3875
 4361TIP3    H134574   2.154  -0.033  16.637  0.0526 -0.2901 -0.6215
 4361TIP3    H234575   2.072   0.094  16.650  0.2546 -0.2505  0.3417
 4362TIP3   OH234576   6.198   1.461   5.490 -0.2582 -0.7982 -0.1317
 4362TIP3    H134577   6.233   1.420   5.411 -0.0304 -0.9819  0.0626
 4362TIP3    H234578   6.265   1.446   5.557  1.2042  2.3336 -0.7092
 4363TIP3   OH234579   2.952   3.726   5.663  0.3695 -0.1706 -0.3777
 4363TIP3    H134580   2.998   3.798   5.620  1.0450 -0.3729 -0.0137
 4363TIP3    H234581   3.019   3.658   5.672  0.2018 -0.1870  0.8643
 4364TIP3   OH234582   6.725   5.128   2.718  0.7088 -0.1378  0.8916
 4364TIP3    H134583   6.699   5.152   2.629  0.8525  0.5299  1.0229
 4364TIP3    H234584   6.707   5.206   2.770  1.5578 -0.1771  1.2623
 4365TIP3   OH234585   1.687   1.373  14.016  0.1556  0.1815 -0.1726
 4365TIP3    H134586   1.676   1.439  13.948 -2.2030  0.5130  0.4558
 4365TIP3    H234587   1.700   1.291  13.969  0.0823  0.6442 -1.0022
 4366TIP3   OH234588   2.534   0.867  11.599 -0.0799 -0.6539 -0.1589
 4366TIP3    H134589   2.594   0.916  11.655  1.0257 -0.8777 -1.1174
 4366TIP3    H234590   2.465   0.837  11.659 -0.3527  1.3389  0.5865
 4367TIP3   OH234591   3.215   1.601   6.065 -0.1001  0.3055  0.1904
 4367TIP3    H134592   3.259   1.564   6.142  1.2091 -1.0337 -1.1352
 4367TIP3    H234593   3.128   1.626   6.096 -0.7934 -3.1583  1.3990
 4368TIP3   OH234594   0.618   2.119   2.934  0.3535  0.4167 -0.0202
 4368TIP3    H134595   0.556   2.177   2.978  0.2730  0.1125  0.2752
 4368TIP3    H234596   0.672   2.084   3.005  0.4187  0.1512 -0.1985
 4369TIP3   OH234597   2.111   5.339  11.917 -0.4531 -0.1063 -0.1353
 4369TIP3    H134598   2.132   5.384  11.835 -0.1136  0.7088  0.3920
 4369TIP3    H234599   2.142   5.249  11.904  0.3349  0.2278 -0.5968
 4370TIP3   OH234600   6.786   2.275   1.042 -0.7358 -0.3602 -0.2408
 4370TIP3    H134601   6.789   2.297   1.135  3.5783  1.4973 -0.5712
 4370TIP3    H234602   6.719   2.333   1.005  1.0666  2.7687  1.0348
 4371TIP3   OH234603   4.791   1.749  12.001 -0.6228  0.0907 -0.0834
 4371TIP3    H134604   4.856   1.686  12.032 -2.5042 -0.1245  4.1550
 4371TIP3    H234605   4.831   1.835  12.016  0.2747  0.0117 -1.7654
 4372TIP3   OH234606   6.560   1.064  14.125  0.2540  0.1880 -0.2259
 4372TIP3    H134607   6.549   0.974  14.095  1.0560  0.4662 -1.3941
 4372TIP3    H234608   6.620   1.104  14.062 -0.5568  1.7163 -0.0918
 4373TIP3   OH234609   6.019   2.272   0.078 -0.9593 -0.6694  0.4602
 4373TIP3    H134610   6.086   2.340   0.077 -2.5895  1.0615  1.8045
 4373TIP3    H234611   5.959   2.296   0.009 -0.6788 -1.7409 -0.1809
 4374TIP3   OH234612   3.798   3.675   5.116  0.4063 -0.2550 -0.4624
 4374TIP3    H134613   3.736   3.747   5.102  0.2571 -0.6586 -2.0925
 4374TIP3    H234614   3.877   3.717   5.150  0.3563  0.7217 -1.4773
 4375TIP3   OH234615   2.760   6.519   0.315 -0.1579 -0.0042  0.2135
 4375TIP3    H134616   2.770   6.482   0.403 -0.7258 -0.3091  0.1571
 4375TIP3    H234617   2.787   6.610   0.324 -1.7751  0.4277  1.0916
 4376TIP3   OH234618   1.854   4.523  14.788 -0.3436  0.0274  0.6745
 4376TIP3    H134619   1.770   4.527  14.743 -0.8565 -2.9608  1.1524
 4376TIP3    H234620   1.858   4.604  14.839 -1.5756  1.5710 -1.4993
 4377TIP3   OH234621   0.059   6.811   2.608 -0.5380  0.0218 -0.2131
 4377TIP3    H134622   0.088   6.892   2.651 -0.4760 -0.0553 -0.1109
 4377TIP3    H234623   0.020   6.841   2.525 -1.2020  0.2236  0.1633
 4378TIP3   OH234624   1.736   5.046  15.297  0.0953  0.0972 -0.0140
 4378TIP3    H134625   1.811   5.043  15.356  0.6619 -0.7455 -0.7496
 4378TIP3    H234626   1.743   4.965  15.246 -1.4352 -0.0879  0.0484
 4379TIP3   OH234627   6.552   5.528  12.460  0.7115  0.0644  0.4047
 4379TIP3    H134628   6.537   5.543  12.553 -0.1785 -1.5113  0.5535
 4379TIP3    H234629   6.629   5.472  12.456 -0.2330 -1.2736  0.3258
 4380TIP3   OH234630   5.370   2.796   0.354 -0.1586  0.0664  0.1241
 4380TIP3    H134631   5.323   2.713   0.360 -0.0786  0.1081  1.5616
 4380TIP3    H234632   5.443   2.778   0.295 -0.2806 -0.8157  0.2334
 4381TIP3   OH234633   1.169   1.238   2.390 -0.0759  0.8892  0.7196
 4381TIP3    H134634   1.093   1.245   2.448 -0.7053 -0.6773  0.1345
 4381TIP3    H234635   1.242   1.214   2.449 -0.6328 -0.3294  0.9496
 4382TIP3   OH234636   5.181   6.343   1.606 -0.5113  0.0029 -0.1737
 4382TIP3    H134637   5.216   6.429   1.583 -0.9863  0.2780  0.1191
 4382TIP3    H234638   5.258   6.293   1.633 -0.2395  0.3513 -0.2812
 4383TIP3   OH234639   6.098   2.901  13.012 -0.5821  0.5946 -0.2099
 4383TIP3    H134640   6.084   2.820  12.963 -0.4967 -0.3165  1.2259
 4383TIP3    H234641   6.155   2.876  13.085  0.0975  2.1154 -0.1723
 4384TIP3   OH234642   0.527   2.985  11.504  0.0504  0.6405  0.1685
 4384TIP3    H134643   0.528   3.035  11.423 -2.1624  2.5046  1.1779
 4384TIP3    H234644   0.438   2.950  11.510 -0.2939  1.7162  2.3890
 4385TIP3   OH234645   0.693   1.830   0.372  0.6882 -0.8098 -0.0141
 4385TIP3    H134646   0.758   1.887   0.330 -0.7118  0.1444 -0.9643
 4385TIP3    H234647   0.672   1.874   0.454  1.5372 -1.3482  0.5067
 4386TIP3   OH234648   1.801   1.374   0.469 -0.2319  0.8346 -0.1015
 4386TIP3    H134649   1.849   1.297   0.439  2.2950  1.6597  1.4489
 4386TIP3    H234650   1.734   1.340   0.527  1.2118 -0.2346  1.0265
 4387TIP3   OH234651   0.892   3.562  13.101  0.0197  0.5835  0.1250
 4387TIP3    H134652   0.807   3.539  13.139  1.0354  0.6127  2.5953
 4387TIP3    H234653   0.907   3.653  13.127  0.7952  0.5917 -0.3068
 4388TIP3   OH234654   6.469   2.420  11.646  0.5460  0.1540 -0.2771
 4388TIP3    H134655   6.401   2.368  11.604  0.6420 -2.9618  2.9536
 4388TIP3    H234656   6.425   2.461  11.720  1.5810  0.5577  0.1377
 4389TIP3   OH234657   2.961   6.670   6.828  0.3144  0.3398  1.2916
 4389TIP3    H134658   2.940   6.757   6.863  0.4382  0.2811  1.5102
 4389TIP3    H234659   2.887   6.615   6.854  0.3124  0.3426  1.2921
 4390TIP3   OH234660   0.976   2.596  10.360  0.6977  0.0537 -0.3699
 4390TIP3    H134661   0.900   2.566  10.410 -1.2669  1.8486 -2.0886
 4390TIP3    H234662   0.974   2.691  10.370  3.2134  0.1312  0.1000
 4391TIP3   OH234663   6.240   4.128  11.295 -0.3265 -0.3117 -0.1175
 4391TIP3    H134664   6.174   4.198  11.295 -0.2560 -0.2458 -0.7009
 4391TIP3    H234665   6.286   4.138  11.212  1.9590  1.0735  1.1946
 4392TIP3   OH234666   3.457   3.706  12.776 -0.4169  0.3462 -0.8854
 4392TIP3    H134667   3.419   3.791  12.795  0.8984  0.4031  2.1446
 4392TIP3    H234668   3.384   3.644  12.785 -0.7862  0.8954 -0.0008
 4393TIP3   OH234669   3.088   0.535   3.675 -0.0375 -0.3872 -0.0890
 4393TIP3    H134670   3.007   0.518   3.626  0.1113  0.0160 -0.4873
 4393TIP3    H234671   3.091   0.631   3.682  1.7208 -0.1837 -2.4170
 4394TIP3   OH234672   5.707   3.361  12.100 -0.5514  0.3125  0.5103
 4394TIP3    H134673   5.731   3.437  12.153  0.8253  1.1563 -1.2184
 4394TIP3    H234674   5.724   3.388  12.009  1.5374 -2.5340 -0.1009
 4395TIP3   OH234675   2.689   3.876   1.995 -0.5862  0.7008  0.1705
 4395TIP3    H134676   2.781   3.854   2.003 -0.2443  1.2436 -1.8160
 4395TIP3    H234677   2.677   3.953   2.052  0.2757  0.8625  0.1415
 4396TIP3   OH234678   3.834   2.091   1.863 -0.3204 -0.3608  0.3664
 4396TIP3    H134679   3.873   2.178   1.854 -2.8780  0.7045 -1.9135
 4396TIP3    H234680   3.780   2.096   1.941  0.3595 -0.2759  0.8355
 4397TIP3   OH234681   2.376   4.763   5.657 -0.0087 -0.4060 -0.2178
 4397TIP3    H134682   2.293   4.804   5.680  0.1598 -0.0987 -0.1433
 4397TIP3    H234683   2.431   4.836   5.627  0.5342 -0.4594  0.5925
 4398TIP3   OH234684   4.280   6.591  16.267  0.2481 -0.1968  0.1140
 4398TIP3    H134685   4.210   6.645  16.230  0.4334 -1.8338 -3.0105
 4398TIP3    H234686   4.358   6.617  16.218  1.0930 -0.7929  1.1084
 4399TIP3   OH234687   4.494   6.274  15.385  0.1267  0.0371  0.3379
 4399TIP3    H134688   4.572   6.277  15.331 -1.3485 -1.6187 -2.0828
 4399TIP3    H234689   4.516   6.213  15.455  1.3678  0.5308  0.4011
 4400TIP3   OH234690   1.207   1.467   2.974 -0.5877  0.0017  0.0554
 4400TIP3    H134691   1.117   1.450   3.000 -0.7108  0.6887  0.0925
 4400TIP3    H234692   1.245   1.380   2.960 -1.5067 -0.2757 -0.8251
 4401TIP3   OH234693   5.384   0.685  16.298 -0.1074 -0.2023 -0.0931
 4401TIP3    H134694   5.370   0.670  16.392 -0.8878  0.3743 -0.1109
 4401TIP3    H234695   5.350   0.773  16.282  0.4261 -0.1209 -0.8366
 4402TIP3   OH234696   5.886   0.730   6.498  0.2171 -0.0183 -0.4173
 4402TIP3    H134697   5.849   0.718   6.585  0.2228 -0.1096 -0.4280
 4402TIP3    H234698   5.900   0.642   6.465 -0.7301 -0.0018 -0.9146
 4403TIP3   OH234699   2.998   3.865   0.375 -0.0776 -0.1943 -0.4419
 4403TIP3    H134700   3.001   3.894   0.284  1.3755 -0.0672 -0.3851
 4403TIP3    H234701   3.063   3.920   0.419  0.1077 -1.0797  0.4151
 4404TIP3   OH234702   6.715   2.223   2.531  0.4218  0.6151 -0.4009
 4404TIP3    H134703   6.734   2.130   2.547 -1.3062  0.1672 -0.6587
 4404TIP3    H234704   6.689   2.257   2.616  1.0610  0.8742 -0.3058
 4405TIP3   OH234705   3.357   0.223   3.481 -0.3302 -0.2710 -0.2002
 4405TIP3    H134706   3.407   0.230   3.562 -0.4019 -0.0623 -0.1729
 4405TIP3    H234707   3.266   0.232   3.509 -0.2803  2.7242 -0.5872
 4406TIP3   OH234708   0.153   1.281  16.690  0.4305  0.1978  0.0272
 4406TIP3    H134709   0.121   1.290  16.600  2.2427  0.1759 -0.6637
 4406TIP3    H234710   0.195   1.366  16.708 -0.3184  0.3689  1.0382
 4407TIP3   OH234711   2.633   3.939  11.567 -0.5794 -0.3676  0.9297
 4407TIP3    H134712   2.641   4.033  11.553 -0.3026 -0.4356  0.6134
 4407TIP3    H234713   2.550   3.915  11.527 -0.1319 -0.4402  0.0326
 4408TIP3   OH234714   6.610   6.225   0.013 -0.1490 -0.4461 -0.9327
 4408TIP3    H134715   6.594   6.285   0.085 -0.5152 -2.9514  1.2309
 4408TIP3    H234716   6.705   6.209   0.015  0.0293  0.4225 -1.8482
 4409TIP3   OH234717   5.492   5.452   4.705  0.3925  0.1323  0.0751
 4409TIP3    H134718   5.400   5.467   4.683  0.4517  2.4439  1.1325
 4409TIP3    H234719   5.541   5.477   4.627  0.1956  0.5458  0.0823
 4410TIP3   OH234720   0.890   0.433   6.161  0.1835 -0.1930  0.2836
 4410TIP3    H134721   0.922   0.475   6.081  1.7814  0.0355  1.0117
 4410TIP3    H234722   0.836   0.361   6.130  0.6444 -0.0144 -1.0063
 4411TIP3   OH234723   2.545   0.255  16.066  0.1782 -0.3519  0.1617
 4411TIP3    H134724   2.595   0.288  15.990  0.1516 -0.2060  0.2082
 4411TIP3    H234725   2.474   0.318  16.076  0.2107 -0.3454  0.3396
 4412TIP3   OH234726   4.453   1.654   1.477 -0.0718 -0.1078  0.1809
 4412TIP3    H134727   4.515   1.717   1.511  0.2115 -0.3861  0.1900
 4412TIP3    H234728   4.451   1.584   1.542 -0.1132 -0.2750  0.0024
 4413TIP3   OH234729   5.520   2.486  15.517  0.3674  0.0585 -0.1993
 4413TIP3    H134730   5.542   2.577  15.494  2.4783 -0.7899 -1.9047
 4413TIP3    H234731   5.425   2.480  15.505 -0.1025  2.4214  1.5672
 4414TIP3   OH234732   0.760   5.003   3.011 -0.6191 -0.3789  0.0909
 4414TIP3    H134733   0.833   5.024   3.070 -2.1493  0.7122  1.7115
 4414TIP3    H234734   0.802   4.985   2.927  1.3922  3.3370  0.0737
 4415TIP3   OH234735   5.632   4.420  12.448 -0.4661  0.4380 -0.2103
 4415TIP3    H134736   5.567   4.413  12.518 -1.1641  1.4457 -0.7390
 4415TIP3    H234737   5.684   4.497  12.472 -0.3386  0.4466 -0.5148
 4416TIP3   OH234738   3.299   6.386   6.379  0.6851  0.1109 -0.2417
 4416TIP3    H134739   3.385   6.425   6.364  2.5489 -2.2496  3.0070
 4416TIP3    H234740   3.280   6.339   6.297  2.6616  0.4219 -0.9464
 4417TIP3   OH234741   5.468   5.160   0.976  0.1797  0.1244 -0.0428
 4417TIP3    H134742   5.383   5.116   0.976  0.3846 -0.2745 -0.0810
 4417TIP3    H234743   5.450   5.247   1.011 -0.5054  0.5463 -1.3656
 4418TIP3   OH234744   6.356   6.111   0.907  0.9369  0.2213 -0.3076
 4418TIP3    H134745   6.422   6.067   0.960 -0.3875  1.1686  2.3444
 4418TIP3    H234746   6.383   6.203   0.906  0.1065  0.4867  0.1667
 4419TIP3   OH234747   0.213   4.424   3.919 -0.3101 -0.5742  0.3209
 4419TIP3    H134748   0.202   4.490   3.988 -0.5638  0.1283 -0.3837
 4419TIP3    H234749   0.145   4.444   3.855 -0.0646 -1.2082 -0.1455
 4420TIP3   OH234750   3.274   2.698   2.940 -0.0331  0.1177  0.0339
 4420TIP3    H134751   3.238   2.729   2.857  0.1570  1.1729  0.3318
 4420TIP3    H234752   3.214   2.630   2.968  1.3940 -2.3068 -2.3375
 4421TIP3   OH234753   1.945   3.868   3.523  0.2280 -0.1797  0.1190
 4421TIP3    H134754   1.925   3.914   3.441 -1.2939 -1.2213 -0.1260
 4421TIP3    H234755   2.036   3.892   3.542  0.0430  1.5256 -0.9094
 4422TIP3   OH234756   5.882   5.711  10.545 -0.2047  0.0415  0.3201
 4422TIP3    H134757   5.833   5.767  10.484  0.2178  0.5252  0.4154
 4422TIP3    H234758   5.950   5.671  10.491 -0.9696 -0.9818  0.0934
 4423TIP3   OH234759   1.427   6.491  12.076 -0.1427  0.2609  0.0793
 4423TIP3    H134760   1.355   6.552  12.094 -0.8837 -0.7443  0.6198
 4423TIP3    H234761   1.491   6.543  12.028 -1.2770  1.1625 -0.5086
 4424TIP3   OH234762   6.407   0.548   0.570  0.0393  0.3602  0.1013
 4424TIP3    H134763   6.321   0.576   0.537 -0.8003 -2.8420 -0.8198
 4424TIP3    H234764   6.455   0.523   0.491  2.0579  2.4399  0.5700
 4425TIP3   OH234765   0.186   0.888   3.586 -0.1327 -0.0596  0.8865
 4425TIP3    H134766   0.249   0.913   3.654  0.0244 -0.7957  1.0167
 4425TIP3    H234767   0.162   0.971   3.544 -0.5612  0.4679  2.1258
 4426TIP3   OH234768   5.063   3.743  11.555 -0.2047 -0.0090 -0.0610
 4426TIP3    H134769   5.006   3.714  11.627 -1.1745  0.5304 -0.6016
 4426TIP3    H234770   5.142   3.775  11.600  0.5836 -2.6052  0.6121
 4427TIP3   OH234771   0.106   3.287  14.432 -0.3443  0.2140  0.3633
 4427TIP3    H134772   0.117   3.248  14.346  0.0727 -1.9642  1.3239
 4427TIP3    H234773   0.176   3.352  14.438  0.7180 -0.8362 -0.3078
 4428TIP3   OH234774   3.602   6.129   2.783  0.5847  0.0733  0.2495
 4428TIP3    H134775   3.675   6.185   2.809  0.4414 -0.2483  1.3909
 4428TIP3    H234776   3.643   6.055   2.737  0.9164  0.2262  0.2988
 4429TIP3   OH234777   0.297   6.673   5.664 -0.3037  0.5763  0.3392
 4429TIP3    H134778   0.226   6.666   5.600 -1.3828  1.3537  1.4075
 4429TIP3    H234779   0.319   6.766   5.666  0.1570  0.4674  0.6603
 4430TIP3   OH234780   4.806   4.766  16.268  0.3536 -0.3839 -0.3735
 4430TIP3    H134781   4.742   4.772  16.197  1.2465  0.6877 -1.1296
 4430TIP3    H234782   4.872   4.704  16.236  0.8257  0.2008 -0.5461
 4431TIP3   OH234783   4.687   0.413  11.947 -0.4105  0.1417  0.5980
 4431TIP3    H134784   4.675   0.343  12.012  0.2775 -0.7095 -0.1619
 4431TIP3    H234785   4.693   0.366  11.864 -0.7560  1.1824 -0.0192
 4432TIP3   OH234786   2.084   2.489   2.572  0.6312  0.5758  0.5041
 4432TIP3    H134787   2.111   2.398   2.578  1.3502  0.8233  1.3494
 4432TIP3    H234788   2.156   2.532   2.526 -0.4909  0.4345 -1.4881
 4433TIP3   OH234789   0.201   1.495  12.541 -0.1458  0.8658 -0.3576
 4433TIP3    H134790   0.181   1.544  12.620 -1.1588  2.6569 -1.6376
 4433TIP3    H234791   0.116   1.483  12.498  0.4524  0.5860 -1.5233
 4434TIP3   OH234792   5.315   2.610   3.095 -0.1049 -0.2044  0.0106
 4434TIP3    H134793   5.290   2.531   3.142 -1.2510  0.5223  0.6838
 4434TIP3    H234794   5.358   2.664   3.162  1.7147 -0.6895 -0.7063
 4435TIP3   OH234795   2.352   6.352  16.749 -0.0850 -0.0853  0.5811
 4435TIP3    H134796   2.354   6.418  16.680 -0.8980 -0.5878  0.0646
 4435TIP3    H234797   2.442   6.317  16.750 -0.3026 -0.8101 -0.9753
 4436TIP3   OH234798   5.630   3.223   4.704  0.2603 -0.1536 -0.5098
 4436TIP3    H134799   5.647   3.129   4.701  0.9809 -0.1267  1.1439
 4436TIP3    H234800   5.538   3.231   4.728 -0.0652 -0.4167 -1.6549
 4437TIP3   OH234801   5.821   5.764  15.727  0.4350  0.2445 -0.4897
 4437TIP3    H134802   5.808   5.696  15.661  1.8461 -1.1403  0.5805
 4437TIP3    H234803   5.778   5.730  15.806 -0.9388  1.7199 -0.5410
 4438TIP3   OH234804   3.667   0.597   1.570  0.6544 -0.1891  0.3383
 4438TIP3    H134805   3.696   0.680   1.610  3.0739  0.4583 -2.4458
 4438TIP3    H234806   3.691   0.530   1.635  1.3840  1.0537  1.4127
 4439TIP3   OH234807   2.785   3.644   3.191 -1.0022  0.1445  0.1834
 4439TIP3    H134808   2.777   3.580   3.119  1.0793  0.8695 -0.7947
 4439TIP3    H234809   2.704   3.694   3.188 -1.2670 -0.3110 -1.2327
 4440TIP3   OH234810   3.873   5.932  16.794 -0.3595  0.0909  0.0900
 4440TIP3    H134811   3.962   5.901  16.780  0.0952  1.0704  0.7358
 4440TIP3    H234812   3.819   5.853  16.789  0.4696 -0.4391 -0.8290
 4441TIP3   OH234813   5.473   5.168  12.630  0.1713 -0.1262  0.1026
 4441TIP3    H134814   5.406   5.181  12.563  1.8763  1.1043 -1.4805
 4441TIP3    H234815   5.546   5.128  12.583  1.1428  0.0614  1.3985
 4442TIP3   OH234816   1.584   4.762   4.504  0.0691  0.3036 -0.1723
 4442TIP3    H134817   1.640   4.837   4.484  1.9723 -0.7549  0.9165
 4442TIP3    H234818   1.595   4.704   4.429 -1.4618  1.0697 -1.0501
 4443TIP3   OH234819   4.669   0.140   3.321 -0.4473 -0.3373  0.2952
 4443TIP3    H134820   4.628   0.208   3.268  0.4421 -0.0177  0.0075
 4443TIP3    H234821   4.595   0.097   3.366 -0.9814  1.1263  0.8712
 4444TIP3   OH234822   2.295   4.293  14.171 -0.3147  0.6588 -0.3455
 4444TIP3    H134823   2.223   4.231  14.158 -0.7427  0.8900  0.8421
 4444TIP3    H234824   2.373   4.245  14.140 -0.8293  0.0327 -0.6930
 4445TIP3   OH234825   3.728   6.786  11.265  0.6373 -0.1082 -0.2595
 4445TIP3    H134826   3.745   6.694  11.243  0.8966 -0.3512  0.9086
 4445TIP3    H234827   3.811   6.831  11.249  0.4577 -0.0333 -1.0140
 4446TIP3   OH234828   2.898   1.725  11.565  0.7684 -0.2789  0.3228
 4446TIP3    H134829   2.834   1.714  11.494  1.2729 -0.4122 -0.1179
 4446TIP3    H234830   2.938   1.810  11.548  0.1028  0.2101  1.1053
 4447TIP3   OH234831   3.441   1.962   4.185  0.3614  0.5207  0.0221
 4447TIP3    H134832   3.369   1.997   4.133  0.7347  0.2307 -0.7225
 4447TIP3    H234833   3.403   1.892   4.237  0.1494  0.2012 -0.5563
 4448TIP3   OH234834   4.548   5.353  15.094 -0.3765 -0.3066  0.5179
 4448TIP3    H134835   4.634   5.372  15.131 -0.3070  0.7314 -0.1442
 4448TIP3    H234836   4.499   5.435  15.102  0.0300  0.4062 -2.6887
 4449TIP3   OH234837   3.308   1.932   3.914  0.3303 -0.4094  0.1485
 4449TIP3    H134838   3.270   1.974   3.837  0.0790  2.2538  1.6005
 4449TIP3    H234839   3.257   1.851   3.925 -0.1828 -0.4251 -1.9344
 4450TIP3   OH234840   4.658   2.607  14.589  0.5610  0.1266 -0.4792
 4450TIP3    H134841   4.710   2.684  14.565  0.9684  0.6159  1.6981
 4450TIP3    H234842   4.721   2.534  14.588  0.6128  0.1722 -0.6577
 4451TIP3   OH234843   1.412   1.934  11.338  0.2371  0.0507 -0.4916
 4451TIP3    H134844   1.447   2.021  11.361  0.0567 -0.5053  2.2443
 4451TIP3    H234845   1.328   1.952  11.297  0.7480  1.1897 -1.0923
 4452TIP3   OH234846   3.749   3.319  16.624  0.2511 -0.3637  0.2009
 4452TIP3    H134847   3.843   3.330  16.636  0.1040  1.7415 -0.2075
 4452TIP3    H234848   3.719   3.403  16.588 -2.1202 -0.1383  2.4152
 4453TIP3   OH234849   4.146   1.996   2.634 -0.3964 -0.2884  0.3790
 4453TIP3    H134850   4.164   1.952   2.718 -0.5138  0.9435  1.0815
 4453TIP3    H234851   4.233   2.015   2.599 -0.3449 -0.7308  0.2696
 4454TIP3   OH234852   6.778   6.499  15.276 -0.3749 -0.1945  0.0074
 4454TIP3    H134853   6.685   6.478  15.278 -0.2283 -0.8445  0.1212
 4454TIP3    H234854   6.821   6.418  15.248  0.1307  0.1987 -0.3874
 4455TIP3   OH234855   4.019   1.795   2.498 -0.0560  0.3203 -0.3051
 4455TIP3    H134856   4.061   1.863   2.551  0.5691  0.9993 -1.6260
 4455TIP3    H234857   3.965   1.844   2.435 -0.4158 -0.4403 -0.6002
 4456TIP3   OH234858   0.871   0.406  12.928  0.2009  0.0006 -0.2460
 4456TIP3    H134859   0.901   0.435  12.841 -0.9828 -1.2831 -1.1287
 4456TIP3    H234860   0.915   0.322  12.941 -0.5600 -0.3952 -0.1673
 4457TIP3   OH234861   1.666   2.661  15.477 -0.2989 -0.3299  0.4952
 4457TIP3    H134862   1.693   2.599  15.410  1.1566 -0.2366  0.9386
 4457TIP3    H234863   1.576   2.638  15.497  0.2628 -2.4690  0.8075
 4458TIP3   OH234864   3.522   2.583   3.580 -0.1974  0.3893  0.1900
 4458TIP3    H134865   3.586   2.529   3.533 -1.4310 -1.2282  0.2987
 4458TIP3    H234866   3.573   2.657   3.613  1.4651 -0.4629 -0.3674
 4459TIP3   OH234867   4.508   1.810   2.179 -0.4659  0.2207  0.0436
 4459TIP3    H134868   4.508   1.905   2.192  0.5718  0.2425 -0.0100
 4459TIP3    H234869   4.431   1.779   2.227  0.5116  0.8280  2.0980
 4460TIP3   OH234870   0.047   5.425   4.435  0.1296  0.6821 -0.0498
 4460TIP3    H134871   0.036   5.520   4.434 -0.8081  0.5833  0.2939
 4460TIP3    H234872   0.118   5.409   4.372  1.1258  1.7042  0.7673
 4461TIP3   OH234873   4.123   4.711  14.916  0.0884  0.3511 -0.5053
 4461TIP3    H134874   4.094   4.626  14.880  0.1415  0.5524 -1.0367
 4461TIP3    H234875   4.196   4.689  14.973 -0.4756 -0.0590  0.0657
 4462TIP3   OH234876   6.427   6.131   5.749  0.0492  0.2300 -0.1315
 4462TIP3    H134877   6.512   6.116   5.791 -0.4612 -2.2341  0.1630
 4462TIP3    H234878   6.374   6.055   5.774 -1.8269  1.0465 -1.4020
 4463TIP3   OH234879   5.350   0.173   4.013  0.6707 -0.0647 -0.4953
 4463TIP3    H134880   5.395   0.258   4.014  0.0681  0.2542 -0.1573
 4463TIP3    H234881   5.382   0.128   4.092 -0.4148  0.6034  0.3543
 4464TIP3   OH234882   4.325   4.630   4.769  0.0530 -0.0378  0.1797
 4464TIP3    H134883   4.240   4.594   4.743  0.7538 -1.9295  0.3483
 4464TIP3    H234884   4.322   4.630   4.865  1.4442 -3.4708  0.3595
 4465TIP3   OH234885   3.261   3.368  15.683 -0.8377 -0.4058 -0.1761
 4465TIP3    H134886   3.346   3.391  15.646 -0.9030  0.3084  0.1010
 4465TIP3    H234887   3.259   3.412  15.768 -1.1215 -1.1528  0.2140
 4466TIP3   OH234888   1.517   0.358   3.019 -0.3925  0.1282 -0.4262
 4466TIP3    H134889   1.603   0.338   3.057 -0.2586  0.2922 -0.6407
 4466TIP3    H234890   1.503   0.451   3.040 -1.2121 -0.2677  0.9644
 4467TIP3   OH234891   4.762   6.618   3.941 -0.0811  0.3579 -0.0522
 4467TIP3    H134892   4.794   6.704   3.969 -2.0106  1.3889 -0.8453
 4467TIP3    H234893   4.676   6.610   3.983  0.2080 -1.3536  0.2637
 4468TIP3   OH234894   6.677   2.109  16.358 -0.2456 -0.4104  0.5867
 4468TIP3    H134895   6.705   2.173  16.292 -1.2703 -0.0759  0.4609
 4468TIP3    H234896   6.707   2.146  16.441  1.3304 -0.9869  0.3106
 4469TIP3   OH234897   2.093   1.079  15.610  0.1255 -0.2495 -0.6226
 4469TIP3    H134898   2.009   1.113  15.643 -0.9071 -1.2190 -2.1399
 4469TIP3    H234899   2.145   1.157  15.593 -0.4315  0.3726  0.3941
 4470TIP3   OH234900   0.631   5.154   0.361 -0.4125  0.2971 -0.5015
 4470TIP3    H134901   0.567   5.120   0.423 -1.1147  1.1904 -0.7205
 4470TIP3    H234902   0.581   5.214   0.306  0.7677  1.6191 -0.1811
 4471TIP3   OH234903   4.033   4.664   0.582 -0.1957 -0.0042 -0.0887
 4471TIP3    H134904   4.056   4.756   0.570  0.7926  0.0415  1.7217
 4471TIP3    H234905   3.946   4.665   0.622 -0.0333  0.1799  0.2681
 4472TIP3   OH234906   2.552   0.280  13.202  0.8070  0.0670  0.0762
 4472TIP3    H134907   2.561   0.359  13.255 -1.2873 -0.4868  1.4176
 4472TIP3    H234908   2.553   0.208  13.266  3.3218 -1.1060 -1.1675
 4473TIP3   OH234909   2.664   2.061   0.739  0.2234 -0.0917  0.4886
 4473TIP3    H134910   2.620   2.141   0.710 -1.4768 -1.3503 -0.5739
 4473TIP3    H234911   2.673   2.009   0.659  2.0987 -0.6353  0.9966
 4474TIP3   OH234912   2.407   5.270   4.827 -0.4233 -0.7548  0.0107
 4474TIP3    H134913   2.415   5.364   4.843  0.4349 -0.8590  0.2257
 4474TIP3    H234914   2.436   5.258   4.737 -2.7203 -0.5305 -0.8409
 4475TIP3   OH234915   4.512   3.035   1.573 -0.0352  0.2168 -0.0780
 4475TIP3    H134916   4.429   2.990   1.556  0.0283  0.0945 -0.0653
 4475TIP3    H234917   4.533   3.012   1.664 -0.1691  0.5407  0.0336
 4476TIP3   OH234918   5.658   1.912   0.526  0.0044 -0.9267  0.3484
 4476TIP3    H134919   5.733   1.890   0.582  0.0395  0.4165  0.8744
 4476TIP3    H234920   5.678   1.872   0.442  2.0058  0.4998  0.0547
 4477TIP3   OH234921   2.670   5.812  16.356 -0.2101 -0.0153 -0.1460
 4477TIP3    H134922   2.582   5.826  16.391  0.4799  0.4058  1.4797
 4477TIP3    H234923   2.683   5.718  16.359 -0.0638  0.0352  0.9918
 4478TIP3   OH234924   6.441   3.713   2.116 -0.4337  0.2799 -0.2684
 4478TIP3    H134925   6.456   3.714   2.022 -0.6753 -1.1459 -0.3404
 4478TIP3    H234926   6.529   3.713   2.155 -0.3334  0.0531 -0.5005
 4479TIP3   OH234927   2.324   2.627   2.516 -0.6965  0.6991  0.0482
 4479TIP3    H134928   2.394   2.608   2.579 -1.7756 -1.8289  0.6192
 4479TIP3    H234929   2.357   2.700   2.464  1.7196  0.5495  1.2535
 4480TIP3   OH234930   0.198   3.308   4.827 -0.3063 -0.5381 -0.3267
 4480TIP3    H134931   0.238   3.227   4.859  1.4853  0.2531 -0.4309
 4480TIP3    H234932   0.267   3.350   4.775 -1.1691  1.0809 -0.2333
 4481TIP3   OH234933   3.540   3.317  13.942  0.0028 -0.0833 -0.0690
 4481TIP3    H134934   3.544   3.235  13.991  0.4989 -1.1488 -1.8048
 4481TIP3    H234935   3.487   3.297  13.865  0.0961  1.2414 -0.5168
 4482TIP3   OH234936   5.757   6.070   0.582 -0.5665 -0.3329 -0.5185
 4482TIP3    H134937   5.684   6.033   0.631 -0.3651 -0.4537 -0.3109
 4482TIP3    H234938   5.729   6.160   0.562  0.4749  0.7431  2.2898
 4483TIP3   OH234939   0.759   4.405   0.074 -0.3420 -0.1188 -0.0659
 4483TIP3    H134940   0.743   4.346   0.000  1.6260  2.0920 -2.4647
 4483TIP3    H234941   0.854   4.416   0.075 -0.5793  2.4244  0.7275
 4484TIP3   OH234942   6.518   4.362   1.134  0.2371 -0.2708  0.7282
 4484TIP3    H134943   6.540   4.337   1.223 -0.3584 -1.8421  0.4528
 4484TIP3    H234944   6.599   4.350   1.085  0.3607 -0.1542  0.9034
 4485TIP3   OH234945   0.639   3.072  12.125 -0.0530 -0.0278  0.0892
 4485TIP3    H134946   0.548   3.064  12.156 -0.2553  2.7936  0.4747
 4485TIP3    H234947   0.691   3.030  12.193 -0.8671  1.5183  1.7414
 4486TIP3   OH234948   4.997   5.988  13.832 -0.6338 -0.1008 -0.1679
 4486TIP3    H134949   4.918   5.985  13.778 -0.7392 -0.2685 -0.0074
 4486TIP3    H234950   4.968   6.031  13.913 -0.0472  1.8793 -0.9495
 4487TIP3   OH234951   3.204   3.734   2.718  0.2698 -0.1274 -0.4523
 4487TIP3    H134952   3.258   3.663   2.753  0.7267  0.3782 -0.1166
 4487TIP3    H234953   3.229   3.740   2.626  3.0627  2.0778  0.3151
 4488TIP3   OH234954   0.664   0.760   6.068  0.0037  0.6526  0.1082
 4488TIP3    H134955   0.621   0.697   6.010  1.0508  0.3953 -0.3977
 4488TIP3    H234956   0.601   0.832   6.076 -1.2209 -0.4433  0.7051
 4489TIP3   OH234957   5.061   5.042  15.969  0.0295 -0.0887  0.0365
 4489TIP3    H134958   5.089   4.980  16.036 -3.0326  0.1034  1.6693
 4489TIP3    H234959   4.970   5.061  15.991  0.2039  3.3799 -1.6203
 4490TIP3   OH234960   1.221   3.319  14.832  0.1290  0.3099  0.0051
 4490TIP3    H134961   1.275   3.341  14.756  1.0596 -0.7386  0.3310
 4490TIP3    H234962   1.284   3.298  14.900 -0.6368  2.9291  1.6597
 4491TIP3   OH234963   4.836   6.192  12.080  0.0559  0.1721 -0.4927
 4491TIP3    H134964   4.771   6.245  12.126  0.1096 -1.9423  2.2346
 4491TIP3    H234965   4.890   6.255  12.033 -2.0150  2.2145 -0.2812
 4492TIP3   OH234966   1.234   3.262  14.428 -0.0845  0.4170  0.4996
 4492TIP3    H134967   1.156   3.318  14.435 -0.5493 -0.1510  0.0064
 4492TIP3    H234968   1.219   3.210  14.349  0.2924 -0.4696  0.9957
 4493TIP3   OH234969   3.160   2.374  14.307 -0.6205  0.9203 -0.0288
 4493TIP3    H134970   3.249   2.360  14.275 -1.1269 -1.9287 -0.4907
 4493TIP3    H234971   3.171   2.404  14.397  0.8523 -0.5088  0.3205
 4494TIP3   OH234972   0.392   4.123   0.024 -0.2139  0.3699 -0.1979
 4494TIP3    H134973   0.343   4.165  -0.048 -0.2712 -0.8887 -0.9273
 4494TIP3    H234974   0.440   4.194   0.065 -1.4507  1.3966 -0.4484
 4495TIP3   OH234975   5.356   2.902  16.654 -0.0517  0.2301  0.4868
 4495TIP3    H134976   5.386   2.917  16.743  1.2318  1.2564 -0.0838
 4495TIP3    H234977   5.329   2.988  16.623 -2.4894 -0.4427  0.5391
 4496TIP3   OH234978   6.683   1.843   2.210  0.1178  0.3422 -0.0191
 4496TIP3    H134979   6.717   1.878   2.128  0.2823  3.0791  1.1034
 4496TIP3    H234980   6.626   1.912   2.244 -0.5552 -1.0163  1.8344
 4497TIP3   OH234981   6.697   5.994  11.431  0.0764 -0.0867 -0.0495
 4497TIP3    H134982   6.606   6.006  11.403  0.1594  0.6445 -0.0406
 4497TIP3    H234983   6.748   6.047  11.370  0.2889  1.3288  1.2791
 4498TIP3   OH234984   4.973   2.428  12.300 -0.3128  0.5610 -0.2760
 4498TIP3    H134985   5.018   2.477  12.369  1.1305  1.9689 -2.1181
 4498TIP3    H234986   4.885   2.466  12.297  0.3995  2.2443 -0.8398
 4499TIP3   OH234987   3.498   1.707  15.306  0.1396  0.7837  0.5731
 4499TIP3    H134988   3.510   1.798  15.277  0.5665  0.0479 -1.7979
 4499TIP3    H234989   3.417   1.679  15.262  1.9286 -1.0383 -1.8317
 4500TIP3   OH234990   6.490   2.840  13.993 -0.3626  0.4154 -1.3185
 4500TIP3    H134991   6.471   2.774  14.060  1.3710  2.5847  1.5578
 4500TIP3    H234992   6.428   2.911  14.011  0.2901  1.1471 -1.8581
 4501TIP3   OH234993   6.217   4.094  15.067  0.0575  0.6303 -0.1987
 4501TIP3    H134994   6.269   4.132  14.996  1.5313  0.3067  0.6626
 4501TIP3    H234995   6.126   4.111  15.043  0.4971  0.1710 -2.3705
 4502TIP3   OH234996   0.139   2.921  15.440  0.2039  0.1107  0.1834
 4502TIP3    H134997   0.134   3.010  15.404  0.7164  0.1833  0.2854
 4502TIP3    H234998   0.222   2.887  15.407  0.2879 -0.1165  0.6246
 4503TIP3   OH234999   5.492   5.191   3.533  0.1663  0.3739  0.0223
 4503TIP3    H135000   5.553   5.208   3.461 -0.0314  2.0582  0.2160
 4503TIP3    H235001   5.414   5.241   3.510 -0.2451  0.1800  0.9612
 4504TIP3   OH235002   3.415   3.153  16.973 -0.2301 -0.4663  0.6853
 4504TIP3    H135003   3.335   3.198  16.943 -0.9613 -2.0855  0.1055
 4504TIP3    H235004   3.486   3.205  16.936 -0.9866  0.9933  1.1746
 4505TIP3   OH235005   6.762   6.671   3.767 -0.2430 -0.3732 -0.2410
 4505TIP3    H135006   6.849   6.632   3.774  0.3986  0.9669 -0.4372
 4505TIP3    H235007   6.711   6.629   3.836  0.8344 -0.4723  0.5169
 4506TIP3   OH235008   4.337   4.858  13.728  0.0231  0.2758 -0.0126
 4506TIP3    H135009   4.262   4.894  13.776  0.1815  2.7692 -1.4972
 4506TIP3    H235010   4.330   4.763  13.741 -1.7336  0.6237  2.2290
 4507TIP3   OH235011   4.230   6.224   1.544 -0.0146  0.6845  0.1050
 4507TIP3    H135012   4.213   6.316   1.566  0.6854  0.8269  0.0537
 4507TIP3    H235013   4.313   6.203   1.586  1.8011  1.1876 -2.9274
 4508TIP3   OH235014   5.020   5.375   1.347  0.1258  0.6505 -0.0409
 4508TIP3    H135015   5.028   5.381   1.252 -1.5234  1.9491 -0.1532
 4508TIP3    H235016   5.110   5.360   1.378  0.2816 -3.9431 -1.9537
 4509TIP3   OH235017   0.399   1.340   5.384 -0.2824 -0.1650 -0.4791
 4509TIP3    H135018   0.474   1.298   5.426 -1.1289 -3.0474 -1.6105
 4509TIP3    H235019   0.401   1.430   5.416  1.2968 -1.1692  2.6688
 4510TIP3   OH235020   2.422   0.325   0.453  0.2557 -0.0452  0.3236
 4510TIP3    H135021   2.482   0.285   0.390  0.7008  0.4226  0.4438
 4510TIP3    H235022   2.335   0.296   0.425  0.6460 -3.0386  1.7579
 4511TIP3   OH235023   1.822   3.555   3.193  0.3308 -1.0973 -0.1665
 4511TIP3    H135024   1.884   3.611   3.147 -0.5222  0.3684  0.3914
 4511TIP3    H235025   1.854   3.555   3.284 -0.5207 -0.2618  0.1394
 4512TIP3   OH235026   1.459   1.781   2.055  0.7781 -0.3363 -0.4355
 4512TIP3    H135027   1.543   1.813   2.021  1.5501  1.0513  2.4859
 4512TIP3    H235028   1.410   1.860   2.078 -0.1855 -1.1605  0.4723
 4513TIP3   OH235029   4.265   3.900   1.134  0.2439  0.4558 -0.6931
 4513TIP3    H135030   4.319   3.979   1.127  1.0112  0.1111  0.8539
 4513TIP3    H235031   4.316   3.832   1.090  1.7560 -0.1492  1.7868
 4514TIP3   OH235032   4.126   0.979  11.111  0.3318  0.0865 -0.1699
 4514TIP3    H135033   4.194   0.967  11.177 -1.2628 -0.0576  1.5114
 4514TIP3    H235034   4.045   0.952  11.154 -1.3244  3.2484 -0.9939
 4515TIP3   OH235035   5.388   3.972  12.210  0.1935  0.3482  0.4630
 4515TIP3    H135036   5.438   4.019  12.276 -1.1755  2.3559  0.1438
 4515TIP3    H235037   5.357   4.039  12.149 -2.1691 -0.8602  0.1855
 4516TIP3   OH235038   0.627   4.995   4.974  0.4372  0.0217 -0.5119
 4516TIP3    H135039   0.681   4.927   5.014 -0.1354 -0.1395  0.0022
 4516TIP3    H235040   0.662   5.077   5.008 -0.5966 -0.1527  1.0406
 4517TIP3   OH235041   4.558   2.257   5.596  0.1845 -0.1897 -0.1818
 4517TIP3    H135042   4.626   2.195   5.570  1.9759  1.3583  0.6027
 4517TIP3    H235043   4.570   2.332   5.538  0.8459  1.1381  1.5668
 4518TIP3   OH235044   0.040   3.302   0.762 -0.1737  0.6892  0.0433
 4518TIP3    H135045   0.047   3.397   0.764  0.9859  0.6087  0.7249
 4518TIP3    H235046   0.128   3.272   0.738 -0.4448 -0.2169  0.1478
 4519TIP3   OH235047   4.568   5.572   2.245  0.3967  0.5073  0.4221
 4519TIP3    H135048   4.507   5.618   2.187  0.4359 -0.9323 -0.8180
 4519TIP3    H235049   4.642   5.633   2.254  0.1095  1.0219 -0.5271
 4520TIP3   OH235050   5.661   5.709   0.394 -0.0924 -0.0207  0.2312
 4520TIP3    H135051   5.747   5.742   0.367 -0.9487  0.7307 -1.7523
 4520TIP3    H235052   5.599   5.773   0.359 -1.6328 -1.9741 -0.8146
 4521TIP3   OH235053   2.612   5.474   0.741 -0.0100 -0.4900 -0.3571
 4521TIP3    H135054   2.700   5.507   0.759  0.6276 -1.0503 -2.1928
 4521TIP3    H235055   2.572   5.542   0.686 -1.1395  0.2327  1.2699
 4522TIP3   OH235056   2.281   6.730  12.926  0.0845  0.3619  0.2400
 4522TIP3    H135057   2.195   6.756  12.959 -0.2262 -1.0682  0.6089
 4522TIP3    H235058   2.341   6.797  12.960 -0.5934  0.2999  1.6242
 4523TIP3   OH235059   3.547   5.530  14.074 -0.4640 -0.5091 -0.0296
 4523TIP3    H135060   3.509   5.610  14.040  0.2008 -0.5409 -0.8712
 4523TIP3    H235061   3.628   5.559  14.117  2.2995 -1.1033 -4.2722
 4524TIP3   OH235062   0.913   3.811   4.134 -0.1250  0.2692 -0.6063
 4524TIP3    H135063   0.918   3.904   4.113 -0.4006  0.2642 -0.6952
 4524TIP3    H235064   0.871   3.808   4.220  1.6862  0.3323  0.3265
 4525TIP3   OH235065   4.941   4.081  13.562 -0.5315  0.0332  0.0322
 4525TIP3    H135066   4.876   4.150  13.577 -0.0369  0.5512 -0.1889
 4525TIP3    H235067   4.969   4.055  13.650  1.1014  1.8630  0.1012
 4526TIP3   OH235068   0.563   5.955  11.964 -0.0257  0.3943  1.1362
 4526TIP3    H135069   0.652   5.985  11.978 -0.3106  1.3523  0.9486
 4526TIP3    H235070   0.549   5.890  12.033  1.5254 -1.3793 -0.1333
 4527TIP3   OH235071   4.039   3.220   1.124  0.2189 -0.0157 -0.1665
 4527TIP3    H135072   4.034   3.160   1.049 -0.1379 -0.1534 -0.0384
 4527TIP3    H235073   4.123   3.263   1.114  0.0236  0.2317 -0.8479
 4528TIP3   OH235074   4.671   2.631  15.291  0.3621 -0.3235 -0.1371
 4528TIP3    H135075   4.743   2.678  15.334 -0.5288 -0.2142  1.2995
 4528TIP3    H235076   4.594   2.687  15.304 -0.4617 -1.5484  0.4983
 4529TIP3   OH235077   2.018   1.760  14.276  0.3815  0.4602  0.0656
 4529TIP3    H135078   2.076   1.808  14.217  0.7828 -3.0579 -2.7770
 4529TIP3    H235079   1.930   1.771  14.239  0.3052  0.0767  0.1223
 4530TIP3   OH235080   0.196   6.013  15.690 -0.1601  0.3692 -0.0118
 4530TIP3    H135081   0.144   6.085  15.726 -0.0716  0.5314 -0.2051
 4530TIP3    H235082   0.153   5.934  15.722 -1.8986  0.4163 -2.0048
 4531TIP3   OH235083   3.307   5.578   3.079 -0.4060  0.6311  0.6718
 4531TIP3    H135084   3.378   5.618   3.029  0.1224 -1.5991 -0.4493
 4531TIP3    H235085   3.346   5.555   3.163  0.2688 -0.6469  0.0355
 4532TIP3   OH235086   6.048   2.533  10.621  0.2608  0.2313  0.0086
 4532TIP3    H135087   5.967   2.584  10.617 -0.0845 -0.2208  0.9885
 4532TIP3    H235088   6.115   2.597  10.645  0.6604  1.0786 -3.0087
 4533TIP3   OH235089   5.147   3.420  11.721  0.6004 -0.7405  0.3752
 4533TIP3    H135090   5.152   3.500  11.774 -0.9097 -0.0371 -0.4995
 4533TIP3    H235091   5.076   3.370  11.761 -0.4794 -0.2541 -0.8837
 4534TIP3   OH235092   1.702   4.689   3.444 -0.0249 -0.3220  0.4191
 4534TIP3    H135093   1.632   4.624   3.452 -0.8284 -0.2850 -3.7714
 4534TIP3    H235094   1.782   4.637   3.442 -0.4725 -1.0141 -0.6304
 4535TIP3   OH235095   3.542   4.988  11.577  0.0258  0.3398  0.2122
 4535TIP3    H135096   3.523   4.950  11.663 -2.6403 -0.6805 -0.7213
 4535TIP3    H235097   3.458   5.022  11.546 -0.0430 -2.4806 -3.4187
 4536TIP3   OH235098   4.867   0.073   0.407 -0.3788  0.6241 -0.0803
 4536TIP3    H135099   4.893   0.160   0.378 -0.9128  1.1959  1.0660
 4536TIP3    H235100   4.858   0.082   0.502 -1.5757 -0.3811 -0.0812
 4537TIP3   OH235101   1.673   0.250   0.117  0.2140 -0.2580 -0.1452
 4537TIP3    H135102   1.703   0.336   0.087  0.1205 -0.9811 -2.5576
 4537TIP3    H235103   1.581   0.263   0.140  0.4677  0.4938  0.4596
 4538TIP3   OH235104   4.871   0.485   1.803  0.3389 -0.7438  0.5436
 4538TIP3    H135105   4.789   0.449   1.837  0.9094 -0.8724  1.8421
 4538TIP3    H235106   4.924   0.502   1.881  0.9920  0.7206 -0.1824
 4539TIP3   OH235107   6.732   2.754   1.986 -0.0984  0.2483  0.7762
 4539TIP3    H135108   6.700   2.725   2.072 -0.1021  1.2159  1.1082
 4539TIP3    H235109   6.662   2.810   1.952  0.1804  0.3817  0.4190
 4540TIP3   OH235110   1.669   4.680  13.241  0.3299  0.5711  0.4426
 4540TIP3    H135111   1.653   4.643  13.155  1.1415 -0.9110  0.8922
 4540TIP3    H235112   1.762   4.662  13.258  0.0293  0.2576  1.8891
 4541TIP3   OH235113   0.772   5.942   4.191  0.3168 -0.2242  0.3192
 4541TIP3    H135114   0.819   5.893   4.124  0.0569 -0.1078  0.0544
 4541TIP3    H235115   0.772   5.883   4.267  0.6670 -0.3281  0.2430
 4542TIP3   OH235116   2.837   5.851  12.069  0.5211  0.0231 -0.1138
 4542TIP3    H135117   2.848   5.939  12.104 -0.0327 -0.1121  0.4082
 4542TIP3    H235118   2.903   5.798  12.113 -1.0822 -0.4542  1.8427
 4543TIP3   OH235119   6.636   1.638  15.303 -0.0702  0.5878  0.6148
 4543TIP3    H135120   6.650   1.711  15.363  1.1465  0.7857  0.1288
 4543TIP3    H235121   6.547   1.609  15.320  0.0387  1.0404  2.0613
 4544TIP3   OH235122   3.458   5.186  15.907 -0.3106  0.6755 -0.0137
 4544TIP3    H135123   3.412   5.182  15.823 -0.8569 -0.2610  0.3166
 4544TIP3    H235124   3.431   5.269  15.945 -1.0893  0.5081 -0.1883
 4545TIP3   OH235125   1.606   4.168  10.442 -0.3572  0.0514 -0.5068
 4545TIP3    H135126   1.613   4.236  10.509  1.6883 -0.1874 -0.4110
 4545TIP3    H235127   1.679   4.185  10.382  0.0884 -1.8879 -0.5990
 4546TIP3   OH235128   3.377   4.586  16.922  0.6928  0.2353 -0.1993
 4546TIP3    H135129   3.406   4.495  16.915  2.9453  1.0056 -2.5549
 4546TIP3    H235130   3.312   4.595  16.854  1.7215  0.7568 -1.1432
 4547TIP3   OH235131   3.034   2.464   3.925  0.4499  0.9148 -0.5022
 4547TIP3    H135132   3.112   2.457   3.979 -0.1363 -3.3653  0.1990
 4547TIP3    H235133   2.977   2.393   3.956 -2.3892  1.8364 -3.0521
 4548TIP3   OH235134   3.366   3.617  14.469  0.3349  0.3957 -0.1616
 4548TIP3    H135135   3.397   3.695  14.422  0.5570  0.3713 -0.0549
 4548TIP3    H235136   3.414   3.545  14.429  1.3678  0.4984  0.8699
 4549TIP3   OH235137   4.336   2.431   0.260 -0.0141 -0.2857 -0.5404
 4549TIP3    H135138   4.417   2.387   0.233 -0.3069 -0.8571 -0.5046
 4549TIP3    H235139   4.282   2.361   0.298 -0.1465  0.2619  0.3112
 4550TIP3   OH235140   6.337   5.739  14.152 -0.4484  0.9103  0.6538
 4550TIP3    H135141   6.320   5.693  14.234 -0.0337  1.8357  1.2779
 4550TIP3    H235142   6.432   5.729  14.138 -0.5310  0.6809  0.2353
 4551TIP3   OH235143   0.650   0.955  16.045 -0.5471  0.0775 -0.1344
 4551TIP3    H135144   0.691   0.885  16.094 -0.1394  0.6817  0.3971
 4551TIP3    H235145   0.722   0.997  15.998 -0.5064  1.2309  0.9142
 4552TIP3   OH235146   6.067   4.478  16.560  0.3507 -0.0230 -0.1500
 4552TIP3    H135147   6.138   4.502  16.619  0.1623 -0.2588  0.1729
 4552TIP3    H235148   6.103   4.493  16.472  1.0309 -0.7830 -0.0151
 4553TIP3   OH235149   5.451   5.856   5.227  0.1458  0.0387  0.1008
 4553TIP3    H135150   5.541   5.882   5.247  0.3849  0.2766 -1.1883
 4553TIP3    H235151   5.438   5.774   5.274  0.7782  0.3947  0.9038
 4554TIP3   OH235152   3.366   1.877   1.400 -0.0878 -0.4022 -0.4165
 4554TIP3    H135153   3.456   1.846   1.387 -0.7158 -1.7578 -1.7353
 4554TIP3    H235154   3.370   1.970   1.378  1.0398 -0.3840 -0.2065
 4555TIP3   OH235155   0.222   3.185  15.988  0.2175  0.0376  0.4944
 4555TIP3    H135156   0.127   3.183  15.994  0.1674 -0.2233 -0.2841
 4555TIP3    H235157   0.248   3.095  15.969  0.7687 -0.2500  2.3898
 4556TIP3   OH235158   2.005   2.218   4.572  0.3860 -0.0991  0.1838
 4556TIP3    H135159   1.964   2.132   4.573 -0.1545  0.1277  2.3241
 4556TIP3    H235160   1.932   2.279   4.581  0.9161  0.4745  0.6468
 4557TIP3   OH235161   2.614   0.089  11.095 -0.2128 -0.0554  0.1736
 4557TIP3    H135162   2.634   0.182  11.102 -1.5029  0.1735  1.3112
 4557TIP3    H235163   2.630   0.067  11.003 -0.2615  1.3747 -0.1904
 4558TIP3   OH235164   0.583   3.634  12.269 -0.4607 -0.8061  0.9541
 4558TIP3    H135165   0.550   3.703  12.326 -2.1740 -0.9866  0.2483
 4558TIP3    H235166   0.604   3.678  12.187 -0.4368 -0.9293  0.8926
 4559TIP3   OH235167   5.127   2.235  13.835  0.0903  0.4138  0.0768
 4559TIP3    H135168   5.065   2.290  13.787 -1.1776 -1.1453 -0.1596
 4559TIP3    H235169   5.200   2.222  13.773 -0.3104  0.5668 -0.4335
 4560TIP3   OH235170   4.489   3.129   6.254 -0.4025 -0.3046 -0.7372
 4560TIP3    H135171   4.505   3.214   6.213  0.2556 -0.7667 -1.4631
 4560TIP3    H235172   4.576   3.090   6.263 -0.7201 -1.0110 -0.6561
 4561TIP3   OH235173   0.741   0.542   2.461  0.5395  0.0731 -0.2743
 4561TIP3    H135174   0.782   0.503   2.384 -1.8503 -1.8387 -0.6908
 4561TIP3    H235175   0.649   0.516   2.455  0.0599  0.7818  2.6558
 4562TIP3   OH235176   5.761   3.276  15.142  0.5620 -0.3647  0.5622
 4562TIP3    H135177   5.668   3.266  15.163  0.6355  1.5028  2.0478
 4562TIP3    H235178   5.806   3.241  15.219  1.0014  0.7092  0.8144
 4563TIP3   OH235179   2.722   1.995   2.019  0.5358  0.7836 -0.1147
 4563TIP3    H135180   2.629   1.997   2.042  0.6694  1.5599  0.3907
 4563TIP3    H235181   2.728   2.046   1.938  0.1739 -1.3375 -1.5441
 4564TIP3   OH235182   3.515   2.465   6.285  0.1846 -0.6289 -0.6056
 4564TIP3    H135183   3.498   2.394   6.224  0.5477 -2.3262  1.1679
 4564TIP3    H235184   3.435   2.518   6.284  0.1168 -0.7278 -2.3563
 4565TIP3   OH235185   0.838   4.901   2.021  0.2270 -0.5603 -0.0526
 4565TIP3    H135186   0.902   4.955   1.973 -1.2720  1.6157  0.2523
 4565TIP3    H235187   0.883   4.880   2.104  0.6410  0.8098  0.1034
 4566TIP3   OH235188   3.803   3.937  15.210  0.1518  0.0660  0.1907
 4566TIP3    H135189   3.896   3.939  15.190 -0.0477 -1.8379 -1.2842
 4566TIP3    H235190   3.766   3.875  15.146 -2.0758  0.5470  0.9038
 4567TIP3   OH235191   4.794   3.870  15.064 -0.3315  0.1556  0.2615
 4567TIP3    H135192   4.833   3.784  15.076  0.7489  0.7470  1.2404
 4567TIP3    H235193   4.770   3.873  14.971 -1.4710 -1.6083  0.4516
 4568TIP3   OH235194   5.267   0.198   0.307 -0.0459  0.5379 -0.4936
 4568TIP3    H135195   5.266   0.286   0.344  0.2017  0.2598  0.2025
 4568TIP3    H235196   5.340   0.154   0.352 -0.8707 -0.3646  0.0025
 4569TIP3   OH235197   3.453   0.935   4.479 -0.8756  0.4388 -0.2211
 4569TIP3    H135198   3.469   0.983   4.397 -0.1086 -0.8798 -0.8785
 4569TIP3    H235199   3.495   0.989   4.546 -1.5708  1.5747 -0.6761
 4570TIP3   OH235200   1.128   4.763   1.711  0.1913 -0.9292 -0.2526
 4570TIP3    H135201   1.047   4.713   1.700  0.3947 -0.6834 -4.4743
 4570TIP3    H235202   1.197   4.697   1.704  0.4488 -0.9119  1.6561
 4571TIP3   OH235203   4.475   3.296  16.788 -0.3102  0.1119 -0.4682
 4571TIP3    H135204   4.520   3.377  16.811  0.6178  0.0660 -1.9790
 4571TIP3    H235205   4.397   3.323  16.741 -0.3838  0.1380 -0.3317
 4572TIP3   OH235206   1.867   0.226  15.496  0.1294  0.4359  0.0153
 4572TIP3    H135207   1.873   0.192  15.406  2.3889  0.9532 -0.0926
 4572TIP3    H235208   1.805   0.299  15.490 -0.1684  0.1190 -1.0086
 4573TIP3   OH235209   6.541   2.053  16.824  0.3702 -0.5233 -0.4476
 4573TIP3    H135210   6.454   2.061  16.865 -0.1986 -2.2153 -1.2488
 4573TIP3    H235211   6.545   2.126  16.762  0.1660  0.4831  0.6928
 4574TIP3   OH235212   6.659   5.850   3.133  0.1164  0.1812  0.5190
 4574TIP3    H135213   6.643   5.888   3.219  0.2211 -1.0824  1.1292
 4574TIP3    H235214   6.660   5.755   3.148  2.1588 -0.0244 -0.5033
 4575TIP3   OH235215   2.220   0.398  11.175 -0.2971 -0.5774  0.1092
 4575TIP3    H135216   2.244   0.409  11.083 -0.1328 -1.3376  0.0545
 4575TIP3    H235217   2.126   0.411  11.177 -0.0967  1.0974  0.1097
 4576TIP3   OH235218   4.261   6.545  11.337  0.2388 -0.3179  0.0026
 4576TIP3    H135219   4.218   6.625  11.305 -0.8499 -0.7263  0.3950
 4576TIP3    H235220   4.190   6.482  11.346  0.5570 -0.4166  2.6366
 4577TIP3   OH235221   1.652   0.802   5.735  0.5699 -0.2752 -0.0238
 4577TIP3    H135222   1.637   0.872   5.672 -3.1672 -0.9918 -0.1918
 4577TIP3    H235223   1.589   0.819   5.805 -0.3854 -3.3048  0.0002
 4578TIP3   OH235224   4.917   3.343   2.900 -0.2283  0.1332 -0.0202
 4578TIP3    H135225   4.947   3.367   2.812 -1.1752  0.8060 -0.1829
 4578TIP3    H235226   4.858   3.269   2.885 -0.1203  0.0224  0.0967
 4579TIP3   OH235227   6.012   5.305  14.122  0.4181  0.4680  0.0299
 4579TIP3    H135228   6.042   5.324  14.033  2.0898  0.2030  0.4890
 4579TIP3    H235229   5.920   5.329  14.123  0.8092  2.1816 -1.2744
 4580TIP3   OH235230   4.434   2.552   3.517  0.5000 -0.5150  0.0449
 4580TIP3    H135231   4.456   2.596   3.600  0.0678 -0.5174  0.1619
 4580TIP3    H235232   4.357   2.599   3.485 -0.5282 -1.7504  0.6235
 4581TIP3   OH235233   5.981   5.428   2.386  0.8691  0.0292 -0.1991
 4581TIP3    H135234   5.917   5.358   2.370  1.1113 -0.6813  1.6275
 4581TIP3    H235235   6.065   5.388   2.366  1.0088 -0.2298  0.8556
 4582TIP3   OH235236   2.064   3.608   0.802  0.0677  0.0227  0.5693
 4582TIP3    H135237   1.982   3.644   0.766  1.2819  1.9388 -0.4308
 4582TIP3    H235238   2.084   3.533   0.746 -0.6894 -0.1049  0.4562
 4583TIP3   OH235239   0.520   3.445   5.746  0.4216  0.4140  0.4265
 4583TIP3    H135240   0.468   3.525   5.751  1.5490  1.1119  1.7645
 4583TIP3    H235241   0.608   3.475   5.723  0.5851 -0.5933 -0.3729
 4584TIP3   OH235242   5.104   3.606  11.312 -0.1973  1.0648 -0.3545
 4584TIP3    H135243   5.181   3.639  11.265 -0.0307  0.1717 -0.7145
 4584TIP3    H235244   5.085   3.675  11.376  1.5142  0.8740  0.4372
 4585TIP3   OH235245   3.075   1.290  14.510 -0.1769 -0.4956 -0.6615
 4585TIP3    H135246   3.003   1.233  14.539  1.0704 -2.1455 -0.6360
 4585TIP3    H235247   3.110   1.326  14.592 -2.2850  2.1419 -0.7732
 4586TIP3   OH235248   4.686   3.633  14.861 -0.0115  0.2470  0.3716
 4586TIP3    H135249   4.601   3.668  14.889 -0.8169 -1.0251 -0.3214
 4586TIP3    H235250   4.668   3.598  14.773  1.0123 -0.7930  0.5586
 4587TIP3   OH235251   2.623   5.566   2.593  0.0429  0.3386 -0.0329
 4587TIP3    H135252   2.606   5.618   2.671  0.1756  0.3082  0.0167
 4587TIP3    H235253   2.566   5.603   2.526 -0.9443 -0.3854  0.3848
 4588TIP3   OH235254   0.826   5.708  14.290 -0.0842 -0.0216 -0.0082
 4588TIP3    H135255   0.773   5.786  14.306  0.6348  0.6906 -0.9675
 4588TIP3    H235256   0.890   5.707  14.361 -0.1510  0.1950  0.0536
 4589TIP3   OH235257   3.538   0.179   1.573 -0.4236 -0.6002 -0.7338
 4589TIP3    H135258   3.497   0.223   1.499 -2.1607 -0.5546  0.2017
 4589TIP3    H235259   3.629   0.206   1.569 -0.9206  1.1373 -1.6090
 4590TIP3   OH235260   0.734   0.631   6.309 -0.1725 -0.3379  0.0031
 4590TIP3    H135261   0.791   0.565   6.269  1.7574  0.9908  0.3857
 4590TIP3    H235262   0.685   0.668   6.236  2.6210  1.4110 -1.1737
 4591TIP3   OH235263   6.843   2.206   3.677  0.4853  0.1768  0.0716
 4591TIP3    H135264   6.923   2.181   3.632  1.1979  0.6389  1.0292
 4591TIP3    H235265   6.851   2.166   3.764 -0.4635 -0.0277  0.0706
 4592TIP3   OH235266   4.615   1.374   2.660  0.3097  0.0648 -0.5031
 4592TIP3    H135267   4.559   1.441   2.700  0.2886 -0.5703  0.5802
 4592TIP3    H235268   4.620   1.398   2.568 -0.2358  1.1794 -0.2570
 4593TIP3   OH235269   0.773   1.579  11.357  0.1623 -0.1023  0.0710
 4593TIP3    H135270   0.694   1.556  11.309 -0.1500  1.6089 -0.3050
 4593TIP3    H235271   0.747   1.652  11.414  1.2122 -0.2136  0.7247
 4594TIP3   OH235272   1.441   3.022   6.210  0.1238  0.5548  0.3753
 4594TIP3    H135273   1.447   3.118   6.209 -1.9710  0.7381  0.7416
 4594TIP3    H235274   1.422   3.001   6.302 -0.5236 -0.1196  0.0922
 4595TIP3   OH235275   0.945   6.164   2.600 -1.1473  0.0319  0.0709
 4595TIP3    H135276   0.850   6.156   2.595 -1.1174 -0.5458  0.3767
 4595TIP3    H235277   0.960   6.257   2.617 -1.6271  0.2482 -0.6259
 4596TIP3   OH235278   4.758   0.258   1.408  0.3748  0.4902  0.3593
 4596TIP3    H135279   4.727   0.313   1.480  2.3503  1.3861  0.6158
 4596TIP3    H235280   4.777   0.320   1.338 -0.8132 -0.2982 -0.6833
 4597TIP3   OH235281   2.879   3.153  13.700  0.0703 -0.3721  0.0321
 4597TIP3    H135282   2.802   3.175  13.647 -0.4539 -1.0614  0.4940
 4597TIP3    H235283   2.853   3.173  13.790  0.3831 -0.7506  0.2084
 4598TIP3   OH235284   5.661   1.323  15.809  0.5473 -0.2447 -0.6283
 4598TIP3    H135285   5.617   1.403  15.837 -1.6434 -1.7970  0.7785
 4598TIP3    H235286   5.593   1.275  15.760  1.5723 -1.5473 -0.8224
 4599TIP3   OH235287   3.879   0.630   2.723  0.0587  0.7452  0.3047
 4599TIP3    H135288   3.895   0.573   2.647 -0.3847 -0.0380  0.7888
 4599TIP3    H235289   3.907   0.717   2.694  2.3892 -0.0029  0.1143
 4600TIP3   OH235290   5.995   6.379   1.479 -0.2141 -0.5931 -0.2131
 4600TIP3    H135291   6.074   6.414   1.520  0.2565 -2.7211  0.8485
 4600TIP3    H235292   5.935   6.365   1.552 -1.8397  1.4503 -1.0518
 4601TIP3   OH235293   3.163   3.047  16.269  0.3168 -0.1139  0.6366
 4601TIP3    H135294   3.134   2.972  16.217  2.6165 -0.0394 -0.8835
 4601TIP3    H235295   3.096   3.056  16.337 -1.8651 -1.3876 -1.1759
 4602TIP3   OH235296   0.562   0.834   2.764  0.5044 -0.6499  0.5016
 4602TIP3    H135297   0.606   0.918   2.753  2.6201 -1.4578  2.1528
 4602TIP3    H235298   0.469   0.857   2.773  0.9925  1.4566  0.6690
 4603TIP3   OH235299   1.080   5.819   4.378  0.1230  0.5182 -0.1489
 4603TIP3    H135300   1.125   5.749   4.331 -0.3380 -0.1370  0.3664
 4603TIP3    H235301   1.144   5.891   4.382  0.7208  0.0022 -0.3817
 4604TIP3   OH235302   0.587   0.888   1.296 -0.2177 -0.0874  0.3984
 4604TIP3    H135303   0.659   0.825   1.289 -0.0924 -0.2041  2.3557
 4604TIP3    H235304   0.624   0.970   1.266  0.7347 -0.1604  1.3286
 4605TIP3   OH235305   5.739   2.011   1.104 -0.1839 -0.2798  0.0110
 4605TIP3    H135306   5.694   1.943   1.154 -0.3481 -0.2588 -0.1066
 4605TIP3    H235307   5.678   2.084   1.102 -0.5500 -0.5861 -0.9594
 4606TIP3   OH235308   6.663   1.386   3.107  0.1735 -0.0027 -0.1916
 4606TIP3    H135309   6.567   1.378   3.106  0.1694 -0.0352 -1.1485
 4606TIP3    H235310   6.686   1.398   3.014  1.1680 -0.8294 -0.0641
 4607TIP3   OH235311   3.744   1.769  12.713  0.2877 -0.4167 -0.4032
 4607TIP3    H135312   3.670   1.802  12.661  0.5605  1.0498  0.0903
 4607TIP3    H235313   3.811   1.836  12.703  1.0575 -1.0707  0.2781
 4608TIP3   OH235314   0.104   4.252   4.585 -0.4261  0.2765 -0.1634
 4608TIP3    H135315   0.105   4.345   4.558 -1.4222  0.2240 -0.4053
 4608TIP3    H235316   0.015   4.237   4.616  0.2564 -0.1099  1.7162
 4609TIP3   OH235317   5.940   2.696   5.317 -0.0826 -0.8916  0.2252
 4609TIP3    H135318   5.993   2.713   5.239  0.1255 -1.5480  0.2160
 4609TIP3    H235319   5.922   2.782   5.353  1.0194 -0.6618  0.2502
 4610TIP3   OH235320   2.755   4.479  13.619 -0.1473  0.4061  0.4004
 4610TIP3    H135321   2.745   4.550  13.682  0.5676  0.6223  0.2686
 4610TIP3    H235322   2.707   4.509  13.541 -0.7081  0.3003  0.6997
 4611TIP3   OH235323   3.536   6.820   5.746  0.4732  0.5550  0.3775
 4611TIP3    H135324   3.465   6.805   5.807  0.8093  0.7777  0.8307
 4611TIP3    H235325   3.610   6.772   5.783  1.1267  1.9801  1.0217
 4612TIP3   OH235326   0.330   4.631  12.265 -0.2002 -0.0674 -0.0999
 4612TIP3    H135327   0.386   4.633  12.342 -0.4074 -1.2665  0.0918
 4612TIP3    H235328   0.368   4.564  12.208 -2.3679 -2.2076  0.7960
 4613TIP3   OH235329   5.482   2.444  13.594  0.3908 -0.5675  0.1126
 4613TIP3    H135330   5.436   2.519  13.557  2.9277  1.4792  0.8036
 4613TIP3    H235331   5.514   2.395  13.519  1.5298  0.9719 -0.4642
 4614TIP3   OH235332   4.713   6.076   3.879 -0.3461  0.4769 -0.5093
 4614TIP3    H135333   4.709   6.026   3.961 -2.9422 -0.6295 -1.1910
 4614TIP3    H235334   4.688   6.165   3.905 -1.3940  0.0808 -0.0732
 4615TIP3   OH235335   0.271   4.988  10.924 -0.2092 -0.2441  0.0434
 4615TIP3    H135336   0.246   4.976  10.833  0.4359  1.2357 -0.3474
 4615TIP3    H235337   0.268   4.900  10.961 -1.8016 -0.6900 -1.0446
 4616TIP3   OH235338   0.890   4.067  15.820 -0.0090  0.3652 -0.2203
 4616TIP3    H135339   0.816   4.018  15.854  1.0693 -1.2580 -0.1187
 4616TIP3    H235340   0.914   4.128  15.890 -1.9144  1.7492 -0.6864
 4617TIP3   OH235341   4.142   2.337   3.181  0.6918 -0.1960  0.7042
 4617TIP3    H135342   4.083   2.377   3.244 -2.0046 -0.6534 -1.3143
 4617TIP3    H235343   4.123   2.243   3.188  0.4889 -0.2671 -0.5898
 4618TIP3   OH235344   1.583   1.124   0.542 -0.4291  0.2410 -0.1443
 4618TIP3    H135345   1.667   1.103   0.501 -0.1521  0.2648  0.4053
 4618TIP3    H235346   1.521   1.130   0.469 -0.5633 -2.5617 -0.3763
 4619TIP3   OH235347   1.776   6.371   1.455  0.0517 -0.1090 -0.1277
 4619TIP3    H135348   1.799   6.310   1.525  2.6102  1.7666  0.8431
 4619TIP3    H235349   1.738   6.446   1.501 -0.0938  0.3300 -0.9467
 4620TIP3   OH235350   4.930   5.483   5.896  0.8313 -0.5952  0.2546
 4620TIP3    H135351   4.881   5.429   5.835  1.5810  0.0705 -0.9744
 4620TIP3    H235352   4.942   5.566   5.850  0.4585  0.3274  1.7475
 4621TIP3   OH235353   2.012   2.488  15.759  0.4383 -0.0226  0.1206
 4621TIP3    H135354   1.959   2.452  15.830  1.0209  0.8899  1.0434
 4621TIP3    H235355   2.091   2.434  15.757  1.1549  0.9371  1.2744
 4622TIP3   OH235356   2.574   3.803   3.129 -0.6370 -0.6251  0.3053
 4622TIP3    H135357   2.581   3.858   3.052  0.3544  0.2342  0.9798
 4622TIP3    H235358   2.573   3.864   3.203 -2.5793 -1.3683  0.9556
 4623TIP3   OH235359   2.251   6.559  15.733  0.0439 -0.1054 -0.3450
 4623TIP3    H135360   2.321   6.580  15.794 -1.4072  1.5145  0.8966
 4623TIP3    H235361   2.176   6.609  15.765 -1.7332 -1.8539 -1.5160
 4624TIP3   OH235362   1.554   0.076  12.314 -0.1304  0.2744  0.1743
 4624TIP3    H135363   1.580   0.074  12.406 -0.0241 -0.7386  0.1337
 4624TIP3    H235364   1.471   0.029  12.311  0.1408 -0.1859 -0.3198
 4625TIP3   OH235365   3.680   0.006   2.449 -1.1067  0.1110  0.3115
 4625TIP3    H135366   3.731  -0.012   2.528 -0.4194 -3.1309 -0.7360
 4625TIP3    H235367   3.737  -0.021   2.377 -1.8547  2.6428 -1.3692
 4626TIP3   OH235368   1.485   1.448  15.753 -0.1650 -0.8246 -0.1327
 4626TIP3    H135369   1.524   1.362  15.772  1.0057 -0.0030  1.3499
 4626TIP3    H235370   1.474   1.489  15.838 -1.5164  0.1995 -0.7534
 4627TIP3   OH235371   1.966   4.914  11.833  0.3694  0.5988  0.1678
 4627TIP3    H135372   1.956   4.985  11.769  0.5667  0.7443  0.2967
 4627TIP3    H235373   1.978   4.959  11.916  1.8303  0.4347  0.0672
 4628TIP3   OH235374   3.527   0.562   6.013 -0.3934 -0.6186 -0.0999
 4628TIP3    H135375   3.505   0.587   6.103  1.3867 -2.1222  0.8308
 4628TIP3    H235376   3.443   0.538   5.974 -1.1326 -0.5937  1.3954
 4629TIP3   OH235377   2.097   3.795  12.444 -0.1176  0.1655 -1.0810
 4629TIP3    H135378   2.052   3.857  12.386 -2.1631  0.6885  0.9159
 4629TIP3    H235379   2.161   3.849  12.491 -1.9415  0.9359  0.7050
 4630TIP3   OH235380   2.077   3.481  13.076 -0.7535 -0.2641  0.2092
 4630TIP3    H135381   2.161   3.468  13.120 -0.5208 -0.6294 -0.3272
 4630TIP3    H235382   2.024   3.530  13.139  0.4244  1.5069 -0.0839
 4631TIP3   OH235383   3.573   6.558  11.390 -0.1091 -0.8116 -0.3354
 4631TIP3    H135384   3.635   6.517  11.330 -1.1212 -0.5149 -1.6204
 4631TIP3    H235385   3.552   6.642  11.350 -0.4863 -0.4095  0.6602
 4632TIP3   OH235386   5.898   6.421  11.516  0.2743 -0.0224 -0.7304
 4632TIP3    H135387   5.890   6.515  11.496  0.0215 -0.5311 -3.2628
 4632TIP3    H235388   5.983   6.413  11.559  0.8506  1.2102 -1.5842
 4633TIP3   OH235389   5.765   5.808   0.017  0.0216 -0.2649 -0.1706
 4633TIP3    H135390   5.815   5.729   0.035 -0.3004 -0.3675  0.2982
 4633TIP3    H235391   5.827   5.868  -0.023  0.6780 -0.1572  0.9776
 4634TIP3   OH235392   5.289   6.523  13.697  0.4169  0.1554 -0.0718
 4634TIP3    H135393   5.244   6.598  13.736  1.5948  1.0685 -0.4249
 4634TIP3    H235394   5.381   6.537  13.715  0.7148 -0.9131 -0.6527
 4635TIP3   OH235395   1.005   4.356   4.577 -0.3535  0.4525 -0.1916
 4635TIP3    H135396   0.988   4.374   4.670  0.0195  2.5044 -0.4645
 4635TIP3    H235397   0.969   4.269   4.562  0.9950 -0.6310  2.2628
 4636TIP3   OH235398   4.805   5.760   1.790  0.3915  0.2598  0.3440
 4636TIP3    H135399   4.801   5.836   1.848 -0.9178  0.5901 -0.1368
 4636TIP3    H235400   4.714   5.747   1.762  0.8513 -0.4665 -0.8796
 4637TIP3   OH235401   1.227   1.356   6.443  0.3961 -0.3389  0.1376
 4637TIP3    H135402   1.264   1.332   6.528 -2.4037 -2.3625  0.9107
 4637TIP3    H235403   1.239   1.279   6.389 -2.5774 -1.1481  0.4664
 4638TIP3   OH235404   3.476   6.244   0.994  0.6767  0.2512  0.6360
 4638TIP3    H135405   3.388   6.265   0.962  1.5766  0.6411 -1.7578
 4638TIP3    H235406   3.461   6.211   1.083 -2.1622 -2.0415 -0.5065
 4639TIP3   OH235407   3.974   6.446   4.928  1.1245 -0.2542 -0.3933
 4639TIP3    H135408   4.040   6.452   4.859  2.4766 -0.3931  0.8466
 4639TIP3    H235409   3.985   6.525   4.980  0.1253 -0.1519 -0.3052
 4640TIP3   OH235410   0.818   0.378   3.183  0.1356 -0.0772 -0.5822
 4640TIP3    H135411   0.903   0.368   3.141  0.6322  0.4592  0.2712
 4640TIP3    H235412   0.804   0.295   3.229 -1.1191 -1.3014 -2.9764
 4641TIP3   OH235413   0.730   1.544   6.535 -0.2402  0.5175 -0.0840
 4641TIP3    H135414   0.678   1.470   6.504  1.0107 -0.3038 -0.2936
 4641TIP3    H235415   0.820   1.521   6.514  0.3237  1.4650  1.1406
 4642TIP3   OH235416   6.222   3.380  16.534 -0.4186 -0.1216  0.0762
 4642TIP3    H135417   6.309   3.343  16.518 -0.0375  1.3009 -1.3959
 4642TIP3    H235418   6.236   3.443  16.605 -0.2771  0.0100 -0.0686
 4643TIP3   OH235419   3.151   2.540  16.999  0.0364  0.0275  0.6386
 4643TIP3    H135420   3.147   2.551  17.094  0.8294 -2.0820  0.9828
 4643TIP3    H235421   3.239   2.570  16.975 -0.1682  0.5710  0.5673
 4644TIP3   OH235422   5.643   0.845   1.577 -0.3998  0.0629 -0.0955
 4644TIP3    H135423   5.592   0.902   1.634 -0.3586  0.4772 -0.4685
 4644TIP3    H235424   5.663   0.768   1.631 -3.2852 -1.1567 -0.5666
 4645TIP3   OH235425   3.658   1.594   3.951 -0.0356  0.1290 -0.3218
 4645TIP3    H135426   3.582   1.607   4.007 -0.8124  2.5003 -1.7500
 4645TIP3    H235427   3.702   1.679   3.950  0.3301 -0.0026 -2.6481
 4646TIP3   OH235428   0.536   5.859  14.013 -0.1878  0.1195 -0.1379
 4646TIP3    H135429   0.625   5.824  14.011 -0.0688  0.1522  2.3645
 4646TIP3    H235430   0.482   5.786  13.981  0.5936 -0.3609 -0.4054
 4647TIP3   OH235431   0.490   3.605   0.529 -0.6330  0.1522 -0.0994
 4647TIP3    H135432   0.507   3.581   0.438  1.1185  0.4300  0.1271
 4647TIP3    H235433   0.570   3.648   0.558 -0.6586 -1.0974  1.9677
 4648TIP3   OH235434   2.069   0.574  16.008  0.6971 -0.2654  0.0544
 4648TIP3    H135435   2.083   0.501  15.948 -0.3048 -1.9357  1.6933
 4648TIP3    H235436   2.108   0.650  15.965  0.7040 -1.5095 -2.2950
 4649TIP3   OH235437   1.823   4.640  12.433 -0.1475  0.3741  0.2800
 4649TIP3    H135438   1.810   4.598  12.518  0.3429  2.0622  1.2372
 4649TIP3    H235439   1.774   4.722  12.439  0.9303  1.1121 -0.5954
 4650TIP3   OH235440   3.708   2.468   1.597 -0.1304 -0.7440  0.4166
 4650TIP3    H135441   3.799   2.451   1.572  0.1589 -1.9141  2.0870
 4650TIP3    H235442   3.660   2.390   1.569 -1.1527  0.8024 -2.5679
 4651TIP3   OH235443   2.665   3.480   1.550 -0.0678  0.2190 -0.7110
 4651TIP3    H135444   2.598   3.446   1.610 -0.6378  2.6470  0.1246
 4651TIP3    H235445   2.748   3.447   1.586 -0.5773 -0.3635 -0.0286
 4652TIP3   OH235446   3.365   4.304  15.665 -0.6155  0.2493  0.6323
 4652TIP3    H135447   3.275   4.308  15.698 -0.0642  1.6801  2.0847
 4652TIP3    H235448   3.417   4.350  15.731  0.8888  1.3068 -1.1985
 4653TIP3   OH235449   4.581   4.946   4.415  0.1931  1.0120 -0.0971
 4653TIP3    H135450   4.549   4.993   4.492  0.4497  0.7780  0.1560
 4653TIP3    H235451   4.666   4.986   4.396  0.4400  0.6230  0.1546
 4654TIP3   OH235452   2.832   2.609   5.256 -0.4069 -0.6559  0.3064
 4654TIP3    H135453   2.827   2.695   5.297 -0.7034 -1.1125  1.2598
 4654TIP3    H235454   2.792   2.549   5.320  1.2082 -1.7353  0.3628
 4655TIP3   OH235455   2.798   2.150  14.216 -0.0072 -0.5593 -0.0269
 4655TIP3    H135456   2.848   2.214  14.166  0.1359  0.9188  1.9121
 4655TIP3    H235457   2.861   2.081  14.237 -0.4386 -2.1125 -3.1579
 4656TIP3   OH235458   0.838   5.513   4.508  0.6529  0.2556  1.1323
 4656TIP3    H135459   0.907   5.447   4.510 -1.1881 -1.9546 -1.2669
 4656TIP3    H235460   0.779   5.489   4.579 -0.1445 -0.9217  0.1076
 4657TIP3   OH235461   6.160   1.546  15.352 -0.7065  0.3279  0.1687
 4657TIP3    H135462   6.198   1.615  15.407 -0.6624  2.2537 -2.1117
 4657TIP3    H235463   6.077   1.582  15.323 -0.8104 -0.7009 -0.8604
 4658TIP3   OH235464   3.708   1.065   0.782  0.7276 -0.3536  0.0175
 4658TIP3    H135465   3.753   0.988   0.817  1.0979  0.1155  0.5960
 4658TIP3    H235466   3.753   1.139   0.823 -0.8149  0.1286  0.9254
 4659TIP3   OH235467   1.362   4.231   6.355  0.7698  0.1007 -0.2747
 4659TIP3    H135468   1.328   4.200   6.439 -1.2123  0.9323 -0.7123
 4659TIP3    H235469   1.337   4.323   6.352  0.4422 -0.0247 -1.9528
 4660TIP3   OH235470   0.987   1.817  11.382 -0.4018 -0.0597  0.2064
 4660TIP3    H135471   1.059   1.775  11.429 -1.6240  0.3712  2.6205
 4660TIP3    H235472   0.933   1.745  11.351  0.7392 -0.3713 -1.1618
 4661TIP3   OH235473   5.741   0.784   3.666 -0.0285 -0.3211  0.4432
 4661TIP3    H135474   5.834   0.767   3.679  0.1003  0.5610  0.7389
 4661TIP3    H235475   5.706   0.703   3.630  1.2219 -0.0403 -1.5121
 4662TIP3   OH235476   6.009   6.006  15.176  0.3558 -0.0424 -0.0252
 4662TIP3    H135477   5.941   6.049  15.124 -1.8402  0.0647  2.7261
 4662TIP3    H235478   5.992   5.913  15.166  0.2756 -0.0385  0.0751
 4663TIP3   OH235479   4.893   2.947   4.968  0.0595 -0.2342  0.3070
 4663TIP3    H135480   4.957   2.998   5.018  1.8537 -1.0461 -1.0686
 4663TIP3    H235481   4.945   2.898   4.905 -1.9787 -0.5409 -1.2342
 4664TIP3   OH235482   2.704   4.439   5.473  0.1528  0.2148  0.2404
 4664TIP3    H135483   2.799   4.441   5.479  0.3221  0.9267 -1.8077
 4664TIP3    H235484   2.679   4.356   5.512  1.6243 -0.0554  0.6582
 4665TIP3   OH235485   0.932   3.370  13.494  0.1645 -0.8138 -0.3587
 4665TIP3    H135486   0.910   3.359  13.587  1.8361 -0.7079  0.0759
 4665TIP3    H235487   0.873   3.310  13.448 -3.0273  1.4504  0.4092
 4666TIP3   OH235488   1.757   3.975   0.247  0.0889 -0.1721 -0.1918
 4666TIP3    H135489   1.664   3.996   0.254 -0.0928 -0.6808 -1.0836
 4666TIP3    H235490   1.770   3.902   0.308  0.1002  0.4808  0.6085
 4667TIP3   OH235491   2.941   6.332   4.781  0.0474 -0.0053  0.0015
 4667TIP3    H135492   2.909   6.374   4.861  1.3479 -0.7265  0.9488
 4667TIP3    H235493   2.918   6.393   4.711 -0.8757  0.7818  0.9500
 4668TIP3   OH235494   6.783   1.718   0.219 -0.4922  0.0398  0.2076
 4668TIP3    H135495   6.773   1.711   0.314  0.9139 -0.2584  0.3497
 4668TIP3    H235496   6.703   1.680   0.184 -1.0950  0.2899  1.2690
 4669TIP3   OH235497   5.443   5.340   1.902 -0.0776 -0.5795 -0.3097
 4669TIP3    H135498   5.395   5.421   1.882  0.1821 -0.2547  0.3522
 4669TIP3    H235499   5.502   5.329   1.828  2.0159  1.4821  0.9118
 4670TIP3   OH235500   4.887   2.609   1.040  0.1361  0.1085 -0.4793
 4670TIP3    H135501   4.948   2.679   1.020 -0.2074  0.4850 -0.2154
 4670TIP3    H235502   4.842   2.592   0.957 -2.3071  2.6410  0.1813
 4671TIP3   OH235503   6.439   2.503  15.227 -0.3573 -0.1072  0.9343
 4671TIP3    H135504   6.391   2.438  15.277 -0.3163 -0.3837  0.6188
 4671TIP3    H235505   6.406   2.493  15.137 -1.1880  1.0728  1.0752
 4672TIP3   OH235506   5.653   0.689  15.752 -0.7272 -0.1960 -0.5921
 4672TIP3    H135507   5.666   0.594  15.754 -2.0328 -0.3891  0.9641
 4672TIP3    H235508   5.574   0.704  15.805 -1.5393  1.6176 -2.1874
 4673TIP3   OH235509   1.683   5.022  10.574 -0.2953 -0.0750  0.0132
 4673TIP3    H135510   1.686   4.972  10.492  1.7187 -1.5262  0.8849
 4673TIP3    H235511   1.606   5.077  10.565 -0.3142 -0.3864 -2.7385
 4674TIP3   OH235512   0.279   2.891   0.569 -0.1178  0.1302  0.4716
 4674TIP3    H135513   0.241   2.846   0.645  1.1850 -0.4962  0.7731
 4674TIP3    H235514   0.369   2.860   0.565 -0.3111 -0.3188 -1.6999
 4675TIP3   OH235515   1.410   6.341  12.301 -0.7760  0.1792  0.5833
 4675TIP3    H135516   1.500   6.365  12.325 -0.8424  0.9127  0.1250
 4675TIP3    H235517   1.391   6.393  12.223 -0.7171 -1.8394 -0.8549
 4676TIP3   OH235518   3.537   1.659   4.765 -0.2587 -0.8244 -0.3587
 4676TIP3    H135519   3.472   1.613   4.817 -0.3561  0.7664  1.0273
 4676TIP3    H235520   3.600   1.693   4.829  0.2150  0.2975 -1.3621
 4677TIP3   OH235521   2.941   4.899  14.471 -0.3476  0.0596  0.4426
 4677TIP3    H135522   2.952   4.821  14.526 -0.7248 -1.4804 -1.5704
 4677TIP3    H235523   3.013   4.894  14.409 -0.9181  0.8029 -0.2953
 4678TIP3   OH235524   6.680   5.244   5.027  0.0987  0.0758 -0.0348
 4678TIP3    H135525   6.601   5.210   4.985  0.1081  0.8144 -0.6795
 4678TIP3    H235526   6.673   5.215   5.118  0.3611 -2.0415 -0.6435
 4679TIP3   OH235527   5.873   3.170  12.186  0.0009 -0.3427 -0.4322
 4679TIP3    H135528   5.817   3.243  12.213 -0.2878 -0.4945 -0.6170
 4679TIP3    H235529   5.931   3.208  12.120 -0.5198 -0.4101 -0.9337
 4680TIP3   OH235530   1.467   4.222  11.834  0.0894 -0.3878  0.3571
 4680TIP3    H135531   1.419   4.141  11.853 -0.7716  0.1088  0.3359
 4680TIP3    H235532   1.450   4.239  11.741  2.1201 -1.3797 -0.2535
 4681TIP3   OH235533   1.866   3.028  16.175 -0.1636 -0.8185  0.2957
 4681TIP3    H135534   1.918   2.955  16.139  0.2784  0.6369 -2.2324
 4681TIP3    H235535   1.883   3.101  16.116 -0.0994  1.5837  3.0708
 4682TIP3   OH235536   0.549   1.917   4.269  0.1406 -0.0735  0.5239
 4682TIP3    H135537   0.498   1.995   4.292 -0.1118 -0.1283  0.1620
 4682TIP3    H235538   0.540   1.910   4.174 -0.9178 -1.2825  0.6882
 4683TIP3   OH235539   5.937   4.863   5.600  0.2700  0.2453  0.4294
 4683TIP3    H135540   5.995   4.834   5.530 -2.5156 -1.7465 -1.2316
 4683TIP3    H235541   5.967   4.813   5.677 -0.0668 -1.8571 -0.7299
 4684TIP3   OH235542   1.632   4.558  16.195  0.1458 -0.1564  0.0303
 4684TIP3    H135543   1.711   4.612  16.205  1.2230 -1.8433  1.1206
 4684TIP3    H235544   1.634   4.531  16.103  1.4416 -0.9566  0.2506
 4685TIP3   OH235545   5.090   4.882  15.280 -0.7696 -0.0661  0.4160
 4685TIP3    H135546   5.028   4.927  15.223  0.9613  2.5030  0.4211
 4685TIP3    H235547   5.138   4.823  15.222 -0.2809  1.1644 -0.4572
 4686TIP3   OH235548   0.355   3.450   5.089 -0.3143 -0.8789 -0.1373
 4686TIP3    H135549   0.372   3.368   5.043  2.4394 -0.1715 -0.6039
 4686TIP3    H235550   0.410   3.446   5.167 -0.1678  0.4674 -0.1416
 4687TIP3   OH235551   2.968   4.376  14.127 -0.1463  0.3528  0.0559
 4687TIP3    H135552   2.996   4.302  14.073 -1.0352 -0.5963  0.8469
 4687TIP3    H235553   2.877   4.390  14.102  0.0809  1.3567 -0.2558
 4688TIP3   OH235554   0.471   0.121  11.035 -0.2889  0.4790  0.4786
 4688TIP3    H135555   0.554   0.073  11.032 -0.9876 -0.7353 -0.0073
 4688TIP3    H235556   0.446   0.119  11.127 -0.2443  0.0275  0.4823
 4689TIP3   OH235557   2.642   0.798  15.284 -0.0763 -0.3872  0.3458
 4689TIP3    H135558   2.637   0.709  15.250 -2.3695 -0.3229  0.3644
 4689TIP3    H235559   2.681   0.789  15.371  1.7703 -1.0657 -0.5107
 4690TIP3   OH235560   0.758   3.559  14.493  0.1422  0.3830  0.3436
 4690TIP3    H135561   0.778   3.629  14.555 -0.4844  0.9489 -0.0676
 4690TIP3    H235562   0.709   3.603  14.423 -0.0422 -0.4248 -0.0475
 4691TIP3   OH235563   4.121   5.389  16.651  0.8618  0.0386 -0.1835
 4691TIP3    H135564   4.156   5.464  16.603  0.5476  1.3859  1.5861
 4691TIP3    H235565   4.032   5.379  16.618  1.1906 -0.1480 -1.0536
 4692TIP3   OH235566   2.902   3.191  14.901  1.0185 -0.0306  0.7569
 4692TIP3    H135567   2.817   3.212  14.863  1.5517  1.8791  0.5494
 4692TIP3    H235568   2.891   3.209  14.995  1.3225  0.6888  0.6582
 4693TIP3   OH235569   1.878   4.080  13.649  0.3222 -0.1831  0.0139
 4693TIP3    H135570   1.825   4.033  13.584 -0.8218 -0.8998  1.4252
 4693TIP3    H235571   1.828   4.158  13.670 -1.0419 -1.6097  2.4870
 4694TIP3   OH235572   3.899   1.327   6.616 -0.1326  0.5302 -0.1832
 4694TIP3    H135573   3.952   1.336   6.537  1.0551 -0.6660  0.4480
 4694TIP3    H235574   3.937   1.253   6.663 -0.2458  1.7635  1.9727
 4695TIP3   OH235575   3.599   2.452   2.121  0.2289  0.6460 -0.1750
 4695TIP3    H135576   3.615   2.497   2.038  1.1887  1.5956  0.4890
 4695TIP3    H235577   3.544   2.378   2.098  1.4146  0.2250 -1.8346
 4696TIP3   OH235578   6.013   6.439   0.542 -1.1532 -0.0936  0.0259
 4696TIP3    H135579   6.010   6.361   0.486  1.3777  0.3025 -0.7822
 4696TIP3    H235580   6.052   6.408   0.624 -0.4025  0.2369 -0.1956
 4697TIP3   OH235581   5.539   6.495   3.635 -0.2511 -0.5135 -0.0865
 4697TIP3    H135582   5.519   6.553   3.561  0.6268 -1.1430 -0.8372
 4697TIP3    H235583   5.458   6.493   3.685 -0.6263  0.5422 -0.6019
 4698TIP3   OH235584   4.016   3.498  15.601  0.2878 -0.3627  0.1559
 4698TIP3    H135585   3.986   3.439  15.670 -0.6534  0.4454  0.4627
 4698TIP3    H235586   4.004   3.585  15.637 -0.4364  0.0833 -1.0907
 4699TIP3   OH235587   6.825   5.690  15.423  0.1616 -0.1102  0.4001
 4699TIP3    H135588   6.842   5.596  15.410 -0.7201 -0.8849  3.7621
 4699TIP3    H235589   6.912   5.729  15.430  0.5449 -0.5725 -1.4080
 4700TIP3   OH235590   3.482   3.278  11.828 -0.1897  0.2037 -0.3872
 4700TIP3    H135591   3.445   3.366  11.818  1.5140  1.0301  0.2517
 4700TIP3    H235592   3.521   3.259  11.743  1.5682  1.1290  0.1662
 4701TIP3   OH235593   0.447   5.033   4.021  0.4483 -0.7564 -0.0545
 4701TIP3    H135594   0.479   5.119   4.050  0.5404 -0.9400  0.3911
 4701TIP3    H235595   0.517   5.001   3.964 -0.7513  0.6244 -2.4527
 4702TIP3   OH235596   1.776   6.617  13.947 -0.4033  0.3918  0.1276
 4702TIP3    H135597   1.710   6.652  13.887 -0.2430 -0.6444 -0.6882
 4702TIP3    H235598   1.859   6.653  13.916 -0.6658  2.8832  2.0363
 4703TIP3   OH235599   1.513   6.459  14.791 -0.3509  0.1173 -0.0226
 4703TIP3    H135600   1.524   6.528  14.725 -0.6365 -0.1804 -0.3822
 4703TIP3    H235601   1.554   6.495  14.869  1.7243 -0.2670 -0.8509
 4704TIP3   OH235602   5.304   2.761   3.860 -0.1590 -0.7241  0.2019
 4704TIP3    H135603   5.316   2.733   3.769 -0.5402 -0.0526 -0.0573
 4704TIP3    H235604   5.281   2.681   3.906 -0.1227 -1.0449 -0.3216
 4705TIP3   OH235605   4.354   3.947  15.194  0.4486  0.0350  0.0582
 4705TIP3    H135606   4.306   3.965  15.275 -4.6078  1.1068 -2.7351
 4705TIP3    H235607   4.360   3.852  15.190 -1.0326 -0.1261  0.8356
 4706TIP3   OH235608   4.935   3.450   2.366 -0.2826  0.3112 -0.6200
 4706TIP3    H135609   4.866   3.514   2.346 -2.6042 -1.6703  0.4720
 4706TIP3    H235610   4.892   3.365   2.357  1.3980 -0.9855  2.2833
 4707TIP3   OH235611   2.286   1.992   6.283  0.8880 -0.5337 -0.4300
 4707TIP3    H135612   2.271   1.964   6.192 -0.1530  1.1685 -0.8365
 4707TIP3    H235613   2.226   2.065   6.295  2.4275  0.5756  0.9970
 4708TIP3   OH235614   4.525   2.000   4.015 -0.0918  0.2807 -0.1524
 4708TIP3    H135615   4.601   2.054   3.995  0.2233 -0.6817 -1.8053
 4708TIP3    H235616   4.560   1.911   4.019 -0.8405  0.0273  0.9515
 4709TIP3   OH235617   6.810   5.644   0.874 -0.4999  0.6408 -0.0044
 4709TIP3    H135618   6.873   5.712   0.847  1.7681 -1.3471 -0.0288
 4709TIP3    H235619   6.834   5.625   0.965 -0.9056 -0.3381 -0.0978
 4710TIP3   OH235620   4.611   5.958   0.518 -0.3239  0.7212 -0.1711
 4710TIP3    H135621   4.653   5.872   0.512  2.2535  1.7561  1.3040
 4710TIP3    H235622   4.560   5.954   0.599 -0.5149  0.4437 -0.3057
 4711TIP3   OH235623   1.314   3.767  15.408  0.2753 -0.5348 -0.0405
 4711TIP3    H135624   1.277   3.841  15.359  0.5436 -0.3788 -0.0120
 4711TIP3    H235625   1.287   3.783  15.498 -0.9374 -1.2719 -0.2546
 4712TIP3   OH235626   0.322   0.346   1.678 -0.5275 -0.0322  0.1479
 4712TIP3    H135627   0.343   0.338   1.771 -0.2152  1.3646  0.2281
 4712TIP3    H235628   0.370   0.275   1.636  0.0149 -0.1590  0.9641
 4713TIP3   OH235629   3.430   0.862  15.017 -0.1778 -0.3969 -0.0892
 4713TIP3    H135630   3.398   0.777  15.047 -0.2529 -0.3201  0.0524
 4713TIP3    H235631   3.415   0.862  14.923  0.3788 -0.7806 -0.1797
 4714TIP3   OH235632   4.001   3.153  16.296  0.2404 -0.1380  0.0498
 4714TIP3    H135633   4.018   3.095  16.223 -0.8883 -1.0804  0.5062
 4714TIP3    H235634   4.072   3.134  16.359 -1.3158 -2.7297  1.1792
 4715TIP3   OH235635   6.618   2.125  13.262 -0.4796  0.0748 -0.3133
 4715TIP3    H135636   6.616   2.029  13.270 -0.7270  0.1500  0.6709
 4715TIP3    H235637   6.530   2.153  13.285  0.1779  0.6658  1.7588
 4716TIP3   OH235638   2.141   6.821   4.070 -0.2812 -0.0497  0.1273
 4716TIP3    H135639   2.236   6.830   4.067 -0.3393  0.7933 -2.7732
 4716TIP3    H235640   2.125   6.744   4.124  2.1465 -1.0712 -0.4666
 4717TIP3   OH235641   1.102   2.876   2.863 -0.2424  0.1244 -0.5482
 4717TIP3    H135642   1.112   2.954   2.808 -0.5684  0.4910 -0.1008
 4717TIP3    H235643   1.051   2.907   2.938  1.0037 -0.1355  0.4374
 4718TIP3   OH235644   5.750   4.508   2.762  0.1120 -0.0781  0.4339
 4718TIP3    H135645   5.766   4.590   2.807 -1.0503 -0.3724  1.4143
 4718TIP3    H235646   5.728   4.534   2.672  0.7820  0.6074  0.4609
 4719TIP3   OH235647   4.821   3.982   4.034  0.5042  0.3221  0.3167
 4719TIP3    H135648   4.857   4.012   4.117  1.1167 -0.6351  0.4073
 4719TIP3    H235649   4.894   3.941   3.989 -0.2720 -0.9254  0.1471
 4720TIP3   OH235650   4.634   3.581   3.758  0.4958 -0.5780  0.5193
 4720TIP3    H135651   4.606   3.670   3.735  0.0082 -1.1774 -1.3668
 4720TIP3    H235652   4.724   3.576   3.724  0.8729 -0.5090  1.4863
 4721TIP3   OH235653   4.945   6.712   2.157  0.2876  0.6019 -0.8929
 4721TIP3    H135654   4.943   6.694   2.251 -1.8730 -1.0273 -1.1695
 4721TIP3    H235655   4.962   6.806   2.151  2.6536  0.3869  1.0091
 4722TIP3   OH235656   4.442   1.209   4.636 -0.0327 -0.2817 -0.5675
 4722TIP3    H135657   4.375   1.164   4.585 -0.5315 -1.3046  0.9264
 4722TIP3    H235658   4.397   1.239   4.715  1.6662 -3.2002  1.7220
 4723TIP3   OH235659   2.947   2.100   5.944  0.2988  0.0596 -0.0884
 4723TIP3    H135660   2.953   2.024   6.002  1.3066  1.0149  1.1043
 4723TIP3    H235661   3.028   2.149   5.960  0.8947  0.0606 -2.7522
 4724TIP3   OH235662   0.946   1.778  12.881  0.6531  0.0802 -0.1234
 4724TIP3    H135663   0.938   1.871  12.859  3.0880  0.3625 -0.0497
 4724TIP3    H235664   0.908   1.770  12.968  0.3774  0.9883 -0.1526
 4725TIP3   OH235665   2.209   0.010  11.578 -0.5271 -0.3432  0.3506
 4725TIP3    H135666   2.127  -0.040  11.581  0.5928 -2.3507 -0.1043
 4725TIP3    H235667   2.243   0.006  11.667 -1.4188  1.4774  0.8176
 4726TIP3   OH235668   3.165   1.936  15.419 -0.1606  0.2265  0.6770
 4726TIP3    H135669   3.162   1.863  15.357  0.5073  0.4543  0.3658
 4726TIP3    H235670   3.181   2.013  15.364  1.6361  0.2831  1.2321
 4727TIP3   OH235671   5.365   3.934   2.928  0.2285 -0.0474 -0.6542
 4727TIP3    H135672   5.343   3.880   2.851  2.7242  1.5284 -2.6145
 4727TIP3    H235673   5.453   3.907   2.952  0.2532  0.9181  0.4081
 4728TIP3   OH235674   1.897   1.328  15.700 -0.3347 -0.6019  0.4369
 4728TIP3    H135675   1.947   1.379  15.637 -0.7652 -0.0904  0.5015
 4728TIP3    H235676   1.834   1.279  15.646 -0.8717  0.0259  0.4711
 4729TIP3   OH235677   0.837   0.496   1.861 -0.5318 -0.0196 -0.1710
 4729TIP3    H135678   0.753   0.452   1.849 -1.9196  2.4483 -0.2659
 4729TIP3    H235679   0.858   0.532   1.774  0.1206  0.2305  0.0775
 4730TIP3   OH235680   0.540   1.994   4.002  0.0357  0.1233  0.7421
 4730TIP3    H135681   0.625   1.993   3.957  0.0881  0.5932  0.8264
 4730TIP3    H235682   0.490   1.925   3.960  0.1254  0.4759  0.0405
 4731TIP3   OH235683   1.583   3.901   3.308  0.2707  0.6433  0.3570
 4731TIP3    H135684   1.573   3.872   3.218 -1.9274  1.6876  0.2147
 4731TIP3    H235685   1.670   3.941   3.311  0.6107  0.0627 -1.1296
 4732TIP3   OH235686   0.158   3.566  12.012  0.1655 -0.6598 -0.3381
 4732TIP3    H135687   0.215   3.517  12.072  0.8697  0.5362  0.0062
 4732TIP3    H235688   0.147   3.508  11.937 -0.3301 -1.9929  0.7076
 4733TIP3   OH235689   2.210   1.976  17.121  0.1892  0.0781 -0.6121
 4733TIP3    H135690   2.287   2.030  17.107  1.4839 -1.2557  0.8667
 4733TIP3    H235691   2.141   2.017  17.068  1.7387  1.6466 -1.5188
 4734TIP3   OH235692   1.061   1.170   3.343 -0.2228 -0.1808 -0.2589
 4734TIP3    H135693   0.970   1.139   3.349 -0.1149 -0.4887 -0.1815
 4734TIP3    H235694   1.106   1.122   3.412  0.1294 -0.4975 -0.7033
 4735TIP3   OH235695   2.320   5.664  14.637  0.5095 -0.1755 -0.0844
 4735TIP3    H135696   2.260   5.731  14.604 -1.7393 -1.4294  1.1905
 4735TIP3    H235697   2.293   5.584  14.592  2.2660 -0.5213 -0.5894
 4736TIP3   OH235698   6.822   5.547  15.859  0.1887  0.1512 -0.1561
 4736TIP3    H135699   6.777   5.492  15.923  1.2919  0.4424  0.9078
 4736TIP3    H235700   6.912   5.514  15.859  0.5976  1.2320 -0.3143
 4737TIP3   OH235701   3.369   0.203  15.621  0.1268 -0.1115 -0.2008
 4737TIP3    H135702   3.386   0.146  15.546 -0.1880 -1.6040  0.8119
 4737TIP3    H235703   3.434   0.177  15.686 -0.1237  0.5914  0.3402
 4738TIP3   OH235704   5.838   2.799  11.311 -0.2847  0.7320 -0.1837
 4738TIP3    H135705   5.866   2.742  11.382  0.6402  1.8316  0.3748
 4738TIP3    H235706   5.852   2.748  11.232 -1.7192 -0.6725  0.4191
 4739TIP3   OH235707   6.062   0.821  14.918 -0.0463  0.1900  0.5902
 4739TIP3    H135708   6.033   0.762  14.848 -1.1730  1.3293  0.0574
 4739TIP3    H235709   6.094   0.763  14.987 -1.3380 -1.0452  0.1894
 4740TIP3   OH235710   5.139   1.218  14.111 -0.4894 -0.4182  0.2714
 4740TIP3    H135711   5.188   1.145  14.148  0.6024 -0.2992 -0.8479
 4740TIP3    H235712   5.131   1.281  14.182 -1.1257 -1.4404  1.1471
 4741TIP3   OH235713   5.900   2.607  15.901  0.2218 -0.8117 -0.0640
 4741TIP3    H135714   5.931   2.651  15.980  0.8284 -0.9837 -0.2010
 4741TIP3    H235715   5.826   2.660  15.872 -0.7446 -1.3711  1.2488
 4742TIP3   OH235716   5.180   4.960   3.377  0.2795  0.3719 -0.8432
 4742TIP3    H135717   5.170   4.866   3.365  1.3971  0.1344 -0.0284
 4742TIP3    H235718   5.095   4.989   3.412  0.6609 -0.7490  1.1663
 4743TIP3   OH235719   6.018   6.374  16.249 -0.0343  0.6262  0.0931
 4743TIP3    H135720   6.032   6.298  16.306 -0.7015  1.2615  1.1289
 4743TIP3    H235721   5.923   6.377  16.236 -0.0805  1.6335  0.5747
 4744TIP3   OH235722   3.800   0.464  12.471  0.8375  0.0316  0.8258
 4744TIP3    H135723   3.850   0.392  12.434  2.0143  0.6287  1.1923
 4744TIP3    H235724   3.856   0.541  12.459 -0.4111  0.9179  0.3632
 4745TIP3   OH235725   6.196   0.302   5.282  0.4863  0.5160  0.4432
 4745TIP3    H135726   6.142   0.338   5.352  1.7016  0.0719  1.6789
 4745TIP3    H235727   6.242   0.228   5.323  0.7907 -0.1417 -0.9996
 4746TIP3   OH235728   3.698   5.497   0.561  0.2534 -0.0707  0.1846
 4746TIP3    H135729   3.713   5.408   0.528 -0.6368  0.0057 -0.4877
 4746TIP3    H235730   3.736   5.498   0.648 -0.7659 -1.4891  0.6806
 4747TIP3   OH235731   5.816   3.527  13.906  0.1907  0.6993 -0.2613
 4747TIP3    H135732   5.731   3.487  13.925  0.7930 -0.2474  0.5343
 4747TIP3    H235733   5.854   3.469  13.840  1.1507 -0.2087  1.0368
 4748TIP3   OH235734   2.646   6.286  14.884  0.0099  0.2179 -0.0907
 4748TIP3    H135735   2.623   6.204  14.839  0.9278  1.0396 -2.1655
 4748TIP3    H235736   2.597   6.282  14.966 -1.9392 -1.2798 -1.2205
 4749TIP3   OH235737   4.171   1.157  17.101  0.8285 -0.3302  0.2814
 4749TIP3    H135738   4.121   1.230  17.067 -0.3967 -0.4373  1.7063
 4749TIP3    H235739   4.175   1.173  17.196  1.8112 -1.3527  0.4378
 4750TIP3   OH235740   3.893   2.831  16.501  0.3523  0.0016 -0.2655
 4750TIP3    H135741   3.980   2.796  16.482  0.1281 -0.4595 -0.4685
 4750TIP3    H235742   3.860   2.861  16.416 -0.6041 -1.9476 -0.6420
 4751TIP3   OH235743   3.271   3.746  12.259 -0.3011 -0.0390  0.3195
 4751TIP3    H135744   3.329   3.670  12.263  0.2441  0.3911  0.7158
 4751TIP3    H235745   3.200   3.719  12.200 -1.1231 -1.5277  1.8877
 4752TIP3   OH235746   2.628   0.585   5.578  0.2077 -0.6598  0.2322
 4752TIP3    H135747   2.633   0.614   5.487 -0.1905  0.5153  0.5681
 4752TIP3    H235748   2.718   0.558   5.599  0.7121  0.7617  0.0247
 4753TIP3   OH235749   6.706   4.072  15.202 -0.7613 -0.8306  0.1750
 4753TIP3    H135750   6.796   4.084  15.235 -0.8479  1.5232 -0.2469
 4753TIP3    H235751   6.717   4.022  15.122 -0.0396 -2.2403  1.1089
 4754TIP3   OH235752   1.246   6.383  16.040  0.3152  0.2499  0.1684
 4754TIP3    H135753   1.229   6.312  16.102 -0.4589 -0.0743 -0.4032
 4754TIP3    H235754   1.204   6.460  16.079  1.7850  0.5999  1.1551
 4755TIP3   OH235755   4.189   6.539  16.747 -0.1647 -0.5586  0.4351
 4755TIP3    H135756   4.254   6.546  16.817  0.4294  1.6201 -0.2718
 4755TIP3    H235757   4.238   6.510  16.670  0.1872  1.7606 -0.2783
 4756TIP3   OH235758   2.147   5.946  12.302 -0.1927  0.1212 -0.5635
 4756TIP3    H135759   2.218   5.914  12.357 -1.0952 -0.4357  0.3263
 4756TIP3    H235760   2.125   5.872  12.245 -0.6371 -0.0247 -0.2136
 4757TIP3   OH235761   1.334   2.099  16.560  0.4993  0.4338 -0.3686
 4757TIP3    H135762   1.368   2.010  16.569  0.4907  0.6308  2.0530
 4757TIP3    H235763   1.246   2.088  16.525  0.6256 -0.4689 -0.4264
 4758TIP3   OH235764   3.004   4.302  13.345  0.2787 -0.1157  0.0029
 4758TIP3    H135765   2.996   4.234  13.412  0.6331  1.8440  2.1520
 4758TIP3    H235766   3.093   4.335  13.355  0.1576  0.5882 -1.0786
 4759TIP3   OH235767   2.343   3.541   5.079  0.4808 -0.0352 -0.2329
 4759TIP3    H135768   2.294   3.517   5.158  1.7969 -1.6364  0.1352
 4759TIP3    H235769   2.276   3.575   5.019 -1.0427 -1.7730  0.3973
 4760TIP3   OH235770   4.572   3.350   2.889  0.4379  0.1920  0.0333
 4760TIP3    H135771   4.628   3.295   2.834 -0.7585 -0.3406 -0.6886
 4760TIP3    H235772   4.521   3.402   2.827  2.7407  3.5195  0.6533
 4761TIP3   OH235773   3.600   1.065   4.696 -0.1174 -0.0410 -0.6875
 4761TIP3    H135774   3.656   1.141   4.716  1.6374 -1.0238 -1.6085
 4761TIP3    H235775   3.551   1.050   4.776  1.3688  0.5436  0.3910
 4762TIP3   OH235776   5.979   4.434  15.656 -0.1626  0.1921  0.2655
 4762TIP3    H135777   5.969   4.350  15.612  0.1447 -0.7107  1.8498
 4762TIP3    H235778   6.072   4.453  15.652 -0.3731  1.0417 -1.0814
 4763TIP3   OH235779   0.322   1.923   3.853 -0.3579  0.6419 -0.2445
 4763TIP3    H135780   0.259   1.870   3.803 -0.0437 -0.7574  0.7758
 4763TIP3    H235781   0.270   1.960   3.924 -0.0934 -0.3750  0.4989
 4764TIP3   OH235782   2.746   3.915   3.549 -0.3860 -0.3216  0.1464
 4764TIP3    H135783   2.731   3.898   3.642 -1.9228 -0.2937 -0.0794
 4764TIP3    H235784   2.813   3.851   3.524 -0.9456 -1.2549  0.9630
 4765TIP3   OH235785   5.004   1.601   5.531  0.3288 -0.5140  0.0414
 4765TIP3    H135786   4.914   1.577   5.557 -0.4794  2.8120  0.7149
 4765TIP3    H235787   5.028   1.672   5.591  2.3641  0.5357 -1.8929
 4766TIP3   OH235788   4.404   1.671  12.359  0.3714  0.3886  0.4134
 4766TIP3    H135789   4.370   1.649  12.272  1.0382  1.7382 -0.2234
 4766TIP3    H235790   4.437   1.588  12.393 -0.6930 -0.3343 -0.2524
 4767TIP3   OH235791   0.526   1.618  14.829  0.1567 -0.1033 -0.6469
 4767TIP3    H135792   0.459   1.555  14.856  0.5981  0.7610  2.9374
 4767TIP3    H235793   0.480   1.675  14.767 -2.3881  0.1881  1.3176
 4768TIP3   OH235794   2.610   0.865  13.581 -0.1556 -0.3875  0.4004
 4768TIP3    H135795   2.695   0.874  13.624  0.7611 -0.2001 -1.3538
 4768TIP3    H235796   2.582   0.954  13.563  0.0074 -0.4919 -0.3803
 4769TIP3   OH235797   0.940   6.565  15.380  0.0085  0.7100  0.1260
 4769TIP3    H135798   0.997   6.615  15.322 -0.1045  1.6913  0.8256
 4769TIP3    H235799   0.983   6.570  15.466 -0.7782  0.8972  0.5204
 4770TIP3   OH235800   5.129   2.624   0.717  0.3721  0.5569 -0.0666
 4770TIP3    H135801   5.113   2.674   0.797  4.0133 -1.8180  2.4546
 4770TIP3    H235802   5.082   2.541   0.731 -1.2674  1.1435 -1.7742
 4771TIP3   OH235803   0.452   4.061   2.073 -0.0435 -0.6076 -0.0625
 4771TIP3    H135804   0.547   4.062   2.087  0.2926 -0.3931 -2.0818
 4771TIP3    H235805   0.431   3.968   2.062 -0.3995 -0.8347  2.0692
 4772TIP3   OH235806   5.222   4.454   6.275  0.1242  0.2960  0.5001
 4772TIP3    H135807   5.203   4.361   6.292  0.3000  0.2017  0.1882
 4772TIP3    H235808   5.146   4.500   6.310 -1.3884 -0.1553 -1.9240
 4773TIP3   OH235809   1.849   0.386   3.481  0.1256 -0.2162 -0.1849
 4773TIP3    H135810   1.759   0.366   3.509 -1.6344  2.9278 -2.8105
 4773TIP3    H235811   1.868   0.472   3.518  1.0151  0.2626 -1.6420
 4774TIP3   OH235812   3.759   1.293  11.127 -0.4259 -0.0761  0.3410
 4774TIP3    H135813   3.786   1.383  11.107 -1.7143  0.1846 -0.2720
 4774TIP3    H235814   3.664   1.295  11.123 -0.4456 -1.6461 -0.4322
 4775TIP3   OH235815   6.818   1.511  17.026 -0.1165  0.0599  0.4491
 4775TIP3    H135816   6.892   1.571  17.023  0.8921 -1.0236  2.0270
 4775TIP3    H235817   6.746   1.562  17.063 -0.2130  1.1166 -1.0847
 4776TIP3   OH235818   6.187   2.895   3.309  0.1204 -0.3828  0.6553
 4776TIP3    H135819   6.191   2.972   3.252  1.7106  0.3879  1.7675
 4776TIP3    H235820   6.158   2.929   3.394  1.0463 -0.9687  1.2137
 4777TIP3   OH235821   5.148   3.645   4.120 -0.2271  0.2544  0.2705
 4777TIP3    H135822   5.186   3.733   4.118 -2.6677  1.3547 -0.6011
 4777TIP3    H235823   5.155   3.614   4.030 -1.2839  0.4345  0.1218
 4778TIP3   OH235824   5.032   4.197  14.437  0.2564  1.0377 -0.0483
 4778TIP3    H135825   4.983   4.139  14.380 -0.1982  0.3863  0.9823
 4778TIP3    H235826   4.967   4.261  14.468  0.2469  0.7133  0.6126
 4779TIP3   OH235827   2.710   2.697  16.591 -0.3558 -0.1030  0.3192
 4779TIP3    H135828   2.723   2.698  16.496 -0.5564 -2.0168  0.2287
 4779TIP3    H235829   2.755   2.775  16.622  0.1525  0.2901 -1.3053
 4780TIP3   OH235830   4.464   6.715   4.288  0.6518  0.5515 -0.2160
 4780TIP3    H135831   4.556   6.742   4.281  1.0432 -0.2715  1.4481
 4780TIP3    H235832   4.421   6.788   4.333  1.0393 -0.1357  1.3173
 4781TIP3   OH235833   1.836   2.357   5.438 -0.1795 -0.0793  0.1737
 4781TIP3    H135834   1.826   2.450   5.458 -0.2698  0.0841 -0.6210
 4781TIP3    H235835   1.778   2.341   5.364 -0.7839 -0.9543  0.8046
 4782TIP3   OH235836   4.506   5.319   4.021 -0.3215 -0.4782  0.5727
 4782TIP3    H135837   4.527   5.242   3.968 -0.1752  0.0721 -0.1837
 4782TIP3    H235838   4.560   5.311   4.099 -0.9408 -1.5834  0.9046
 4783TIP3   OH235839   5.475   6.171   1.864  0.0503  0.4655 -0.2168
 4783TIP3    H135840   5.444   6.256   1.832 -0.1238 -0.0287 -1.4126
 4783TIP3    H235841   5.466   6.112   1.789 -0.2781 -0.7320  0.7229
 4784TIP3   OH235842   0.491   2.524   4.618 -0.1513  0.4533  0.5511
 4784TIP3    H135843   0.564   2.468   4.646 -0.1765  1.0006  1.7853
 4784TIP3    H235844   0.427   2.464   4.582  0.2837 -0.1977  0.8471
 4785TIP3   OH235845   6.022   5.669   0.144  0.0448  0.2671  1.0608
 4785TIP3    H135846   6.112   5.677   0.115  0.9892 -0.1790  3.6140
 4785TIP3    H235847   6.016   5.581   0.183 -1.7046  0.0068  0.3168
 4786TIP3   OH235848   6.586   5.329   5.554 -0.0125 -0.4308  0.5647
 4786TIP3    H135849   6.524   5.259   5.532  1.9386 -1.9859 -0.2836
 4786TIP3    H235850   6.672   5.289   5.544  1.2037  2.0680  0.2466
 4787TIP3   OH235851   1.311   3.055  11.669  0.1924 -0.0880  0.6303
 4787TIP3    H135852   1.283   3.075  11.758  0.6182  1.8454  0.3815
 4787TIP3    H235853   1.363   2.975  11.677 -1.6555 -1.2724  1.7294
 4788TIP3   OH235854   3.542   1.036   6.024 -0.1892 -0.8960 -0.3387
 4788TIP3    H135855   3.465   0.983   6.003 -1.0252  0.2646 -0.2548
 4788TIP3    H235856   3.533   1.056   6.117 -0.2147 -0.0705 -0.5150
 4789TIP3   OH235857   0.703   0.249   4.454 -0.0845 -0.1205 -0.1083
 4789TIP3    H135858   0.731   0.214   4.538  1.1810  0.6041 -0.2026
 4789TIP3    H235859   0.715   0.343   4.461  0.7492 -0.1059 -1.3375
 4790TIP3   OH235860   2.177   6.712   1.966 -0.4792  0.2712  0.0599
 4790TIP3    H135861   2.250   6.652   1.950  0.2637  0.9730  0.7569
 4790TIP3    H235862   2.188   6.782   1.902  0.0977  0.9350  0.8677
 4791TIP3   OH235863   3.256   2.083  14.050  0.0249 -0.2065  0.1657
 4791TIP3    H135864   3.203   2.125  13.983 -0.4475 -1.2443 -0.1359
 4791TIP3    H235865   3.346   2.088  14.017 -0.0167  0.5382  0.1382
 4792TIP3   OH235866   4.307   3.840   0.094 -0.5305  0.6654 -0.4386
 4792TIP3    H135867   4.327   3.844   0.001 -0.1546 -0.1010 -0.3972
 4792TIP3    H235868   4.217   3.806   0.098 -0.3918  0.2862 -0.5126
 4793TIP3   OH235869   2.282   6.096   1.646 -0.5742 -0.1076 -0.5622
 4793TIP3    H135870   2.225   6.154   1.596 -0.3578 -0.2239 -0.9457
 4793TIP3    H235871   2.263   6.008   1.612 -0.4824 -0.1955 -0.3880
 4794TIP3   OH235872   0.473   3.483  14.972 -0.0935  0.4261  0.8279
 4794TIP3    H135873   0.523   3.420  15.025 -1.2406 -0.6169  0.7202
 4794TIP3    H235874   0.441   3.547  15.036  0.5914  0.5805  1.0270
 4795TIP3   OH235875   4.041   5.402   5.342 -0.0697 -0.8674  0.1046
 4795TIP3    H135876   3.957   5.430   5.303  1.2423  0.3803 -2.0174
 4795TIP3    H235877   4.025   5.405   5.436 -1.7491  1.6559 -0.1479
 4796TIP3   OH235878   3.198   3.759  17.066 -0.0316 -0.3126  0.0050
 4796TIP3    H135879   3.240   3.683  17.025  1.1786  0.9014 -1.0853
 4796TIP3    H235880   3.118   3.772  17.015  0.1811 -0.3539 -0.3453
 4797TIP3   OH235881   6.750   4.252  11.616 -0.0149  0.1568  0.0738
 4797TIP3    H135882   6.771   4.333  11.662 -1.4508  0.8688 -0.4598
 4797TIP3    H235883   6.672   4.219  11.660 -0.4451 -0.0118 -0.7803
 4798TIP3   OH235884   3.823   6.624  14.008 -0.5611  0.0714 -0.1091
 4798TIP3    H135885   3.848   6.708  13.970  0.8040 -0.0121  0.5214
 4798TIP3    H235886   3.866   6.559  13.953  1.1339 -0.0615  1.2643
 4799TIP3   OH235887   1.913   5.258   4.629  0.8300  0.4449  0.1271
 4799TIP3    H135888   2.000   5.240   4.594  0.7575 -1.2295  0.6889
 4799TIP3    H235889   1.908   5.203   4.708 -1.3206 -0.8096 -0.7978
 4800TIP3   OH235890   4.895   0.594   2.834 -0.0442  0.0054  0.3079
 4800TIP3    H135891   4.875   0.593   2.740 -2.9071  1.6535  0.8015
 4800TIP3    H235892   4.932   0.681   2.850 -0.4892  0.0947  0.8667
 4801TIP3   OH235893   4.591   4.956  13.149 -0.2458  0.3107 -0.7878
 4801TIP3    H135894   4.570   5.047  13.128 -0.3047  0.9292  1.6267
 4801TIP3    H235895   4.687   4.952  13.142 -0.3286  0.1380 -2.2237
 4802TIP3   OH235896   4.849   3.775   6.152  0.1157  0.1214  0.2199
 4802TIP3    H135897   4.818   3.686   6.136  2.9343 -1.6541  3.4118
 4802TIP3    H235898   4.898   3.797   6.072  0.6039 -1.8471 -0.0942
 4803TIP3   OH235899   3.574   4.148  15.565  0.4956 -0.8129  0.1572
 4803TIP3    H135900   3.494   4.200  15.564  1.4445  0.7222  0.2648
 4803TIP3    H235901   3.645   4.213  15.563  1.7717 -1.9941  2.5498
 4804TIP3   OH235902   2.814   0.726   6.417  0.8667 -0.4226 -0.3512
 4804TIP3    H135903   2.847   0.640   6.445  0.4005 -0.3331  0.5180
 4804TIP3    H235904   2.890   0.784   6.426  0.6049 -0.2918  1.2883
 4805TIP3   OH235905   0.175   4.350  14.359 -0.5241  0.1076  0.0413
 4805TIP3    H135906   0.112   4.407  14.315 -1.0721 -0.0046  0.6719
 4805TIP3    H235907   0.228   4.410  14.412  1.3682  0.5065 -2.1061
 4806TIP3   OH235908   5.096   1.120   1.670  0.8467 -0.5714  0.1170
 4806TIP3    H135909   5.006   1.103   1.699  0.2673 -0.7228 -1.6436
 4806TIP3    H235910   5.151   1.078   1.736 -0.3246  0.3700  1.7803
 4807TIP3   OH235911   0.238   6.033  16.953 -0.6050 -0.7970 -0.2384
 4807TIP3    H135912   0.248   5.947  16.912  0.8145 -1.3002  1.0866
 4807TIP3    H235913   0.178   6.080  16.895 -1.1754 -2.5641 -1.1574
 4808TIP3   OH235914   2.020   2.851   4.007  0.1218  0.1502 -0.2811
 4808TIP3    H135915   2.027   2.767   4.052 -2.0761  0.1418  0.1338
 4808TIP3    H235916   1.984   2.829   3.921 -0.9076  0.6753 -0.0064
 4809TIP3   OH235917   4.039   0.968  11.778 -0.4589  0.6509  0.6252
 4809TIP3    H135918   4.009   0.883  11.809 -1.7510  1.1644  0.8647
 4809TIP3    H235919   3.959   1.015  11.756  0.1874  2.0301  1.0950
 4810TIP3   OH235920   4.614   5.105  15.346 -0.7540  0.3641 -0.0174
 4810TIP3    H135921   4.704   5.090  15.375 -0.9523  0.5812  0.7392
 4810TIP3    H235922   4.570   5.021  15.359 -1.0804  0.7161  1.2360
 4811TIP3   OH235923   4.762   1.316   0.819 -0.0829 -0.0963  0.2148
 4811TIP3    H135924   4.848   1.274   0.819 -0.3343 -0.6403  1.0931
 4811TIP3    H235925   4.702   1.245   0.794 -0.3885  0.0171  0.6246
 4812TIP3   OH235926   1.677   2.412   3.795  0.4779  0.1811 -0.3337
 4812TIP3    H135927   1.634   2.451   3.719 -1.4862  1.2265  1.2083
 4812TIP3    H235928   1.653   2.320   3.791  1.8142 -0.1528 -1.8409
 4813TIP3   OH235929   6.074   0.520   4.279 -0.0812 -0.1722  0.7963
 4813TIP3    H135930   6.155   0.515   4.229 -0.7374  1.9065 -0.5975
 4813TIP3    H235931   6.069   0.610   4.310 -1.0733 -0.6897  2.2729
 4814TIP3   OH235932   0.654   4.894   2.611  0.1222  0.6206  0.1965
 4814TIP3    H135933   0.673   4.884   2.518 -0.6788 -1.2523  0.1904
 4814TIP3    H235934   0.563   4.924   2.614 -0.0382  0.1198  0.3807
 4815TIP3   OH235935   2.865   4.716   0.530  0.1402 -0.1095  0.1041
 4815TIP3    H135936   2.791   4.658   0.544 -1.0840  1.6437  1.3037
 4815TIP3    H235937   2.858   4.782   0.600  0.0731  2.8444 -2.4634
 4816TIP3   OH235938   5.166   5.807  10.168 -0.5744 -0.1632 -0.5979
 4816TIP3    H135939   5.153   5.739  10.102  1.4817 -0.6085 -0.6130
 4816TIP3    H235940   5.078   5.832  10.194 -1.4520 -3.1765 -0.2311
 4817TIP3   OH235941   5.907   1.004   4.253  0.1092 -0.0243  0.3209
 4817TIP3    H135942   5.981   1.023   4.195  0.9788 -0.5375  1.2109
 4817TIP3    H235943   5.832   1.044   4.211  1.2031  2.1461  0.2846
 4818TIP3   OH235944   1.171   2.216  16.947  0.4037  0.5371 -0.0210
 4818TIP3    H135945   1.157   2.166  17.028  1.6071 -2.3271 -1.4120
 4818TIP3    H235946   1.243   2.276  16.967 -0.2152  0.8228  1.3942
 4819TIP3   OH235947   1.076   3.637  13.503  0.0465  0.2139  0.2046
 4819TIP3    H135948   1.010   3.568  13.494  1.5144 -1.5462  1.8175
 4819TIP3    H235949   1.061   3.674  13.590 -0.1781  1.3569 -0.3053
 4820TIP3   OH235950   6.567   0.771   3.167 -0.2814 -0.2234  0.2359
 4820TIP3    H135951   6.535   0.857   3.195 -0.3328 -0.0411 -0.3791
 4820TIP3    H235952   6.629   0.746   3.236  0.2732  0.6240  0.0615
 4821TIP3   OH235953   6.289   2.243   3.928 -0.1042  0.1066 -0.1916
 4821TIP3    H135954   6.256   2.193   4.003  1.8418  0.9779  1.3362
 4821TIP3    H235955   6.324   2.178   3.868  1.6660 -0.4823  1.3964
 4822TIP3   OH235956   4.336   0.570   0.138  0.2982 -0.5932 -0.1154
 4822TIP3    H135957   4.332   0.660   0.169 -3.0235 -0.6309 -0.0208
 4822TIP3    H235958   4.419   0.564   0.091  0.9324  2.2941  0.4431
 4823TIP3   OH235959   5.425   6.650   5.289 -0.0885 -0.2833  0.6873
 4823TIP3    H135960   5.433   6.733   5.335 -1.5555 -0.1688  0.7920
 4823TIP3    H235961   5.495   6.650   5.225  1.1237  0.1781  1.9630
 4824TIP3   OH235962   0.557   6.667   5.986 -0.1655 -0.3981  0.1819
 4824TIP3    H135963   0.637   6.686   6.036 -0.3542 -2.5865  1.4829
 4824TIP3    H235964   0.584   6.603   5.921 -0.4005  0.7217 -1.0564
 4825TIP3   OH235965   3.933   5.073  14.452 -0.5787  0.2316 -0.2373
 4825TIP3    H135966   3.838   5.060  14.464 -0.5657 -0.6458 -0.9592
 4825TIP3    H235967   3.966   5.087  14.540 -1.2031 -0.7979  0.1844
 4826TIP3   OH235968   6.780   3.552  13.326  0.4948  0.2326 -0.4722
 4826TIP3    H135969   6.786   3.632  13.378  0.1661  1.1909 -1.8486
 4826TIP3    H235970   6.866   3.510  13.335  0.6699  0.7316  0.2483
 4827TIP3   OH235971   4.375   4.039  12.577  0.6820 -0.4640 -0.0998
 4827TIP3    H135972   4.282   4.056  12.562  0.5950 -1.7535 -1.2860
 4827TIP3    H235973   4.415   4.043  12.490  1.4946 -1.1449  0.2207
 4828TIP3   OH235974   2.924   4.246  11.867 -0.3447 -0.1660  0.0984
 4828TIP3    H135975   2.924   4.326  11.919  0.5697 -0.0958  0.0113
 4828TIP3    H235976   2.997   4.194  11.902  0.7339  0.1688 -1.5198
 4829TIP3   OH235977   6.818   4.666   0.414  1.1621  0.3516 -0.2607
 4829TIP3    H135978   6.735   4.709   0.433  0.1830 -0.4966 -2.2921
 4829TIP3    H235979   6.878   4.696   0.482 -1.2887 -0.5329  2.4528
 4830TIP3   OH235980   4.229   1.631  11.152  0.7402 -0.0529  0.4815
 4830TIP3    H135981   4.197   1.584  11.230 -0.8690  0.9622  0.4638
 4830TIP3    H235982   4.167   1.607  11.083  0.5462  1.2105  0.2024
 4831TIP3   OH235983   3.439   5.713   3.303 -0.4129  0.4332 -0.0263
 4831TIP3    H135984   3.379   5.758   3.363  0.9859  1.4032  0.7260
 4831TIP3    H235985   3.504   5.780   3.281  2.0485 -1.2800  1.5155
 4832TIP3   OH235986   2.949   3.389  13.952 -0.2995  0.4383  0.1850
 4832TIP3    H135987   2.961   3.399  13.858 -1.4286  0.4857  0.0367
 4832TIP3    H235988   3.006   3.456  13.990  0.2593  0.3411 -0.4472
 4833TIP3   OH235989   2.928   0.886  11.188 -0.0999  0.3500 -0.2867
 4833TIP3    H135990   2.905   0.817  11.125 -2.5016  2.1708 -1.6098
 4833TIP3    H235991   2.869   0.871  11.262 -0.2323  0.6411 -0.3329
 4834TIP3   OH235992   5.454   5.319   4.114 -0.3937 -0.1138  0.4272
 4834TIP3    H135993   5.393   5.276   4.054  1.1735  1.7582 -2.7917
 4834TIP3    H235994   5.511   5.249   4.145  0.1668 -0.8842 -2.1616
 4835TIP3   OH235995   4.293   1.019  15.627  0.4629  0.5170  0.4826
 4835TIP3    H135996   4.245   1.049  15.550 -0.0758 -0.5293  0.3850
 4835TIP3    H235997   4.332   0.936  15.599  0.8171  0.4613  1.1337
 4836TIP3   OH235998   4.339   2.027  13.784  0.1216  0.4585 -0.5416
 4836TIP3    H135999   4.251   2.005  13.756 -0.4447  2.2226 -0.2582
 4836TIP3    H236000   4.337   2.018  13.880  0.6035 -0.5989 -0.6086
 4837TIP3   OH236001   0.680   3.721  10.723  0.0633 -0.4684  0.5120
 4837TIP3    H136002   0.753   3.783  10.721 -0.5857  0.3096 -1.1153
 4837TIP3    H236003   0.723   3.635  10.729  1.1649 -0.0522 -0.7272
 4838TIP3   OH236004   2.637   0.499   1.042 -0.5835  0.0296  0.0863
 4838TIP3    H136005   2.653   0.412   1.081 -0.1909  0.2293  0.3880
 4838TIP3    H236006   2.577   0.483   0.970  0.5411 -0.6956 -0.7263
 4839TIP3   OH236007   0.460   2.065  15.773 -0.5001 -0.0019  0.3118
 4839TIP3    H136008   0.423   2.005  15.838  0.0604  0.9265  1.5548
 4839TIP3    H236009   0.441   2.025  15.689 -0.0182 -2.0013  1.0918
 4840TIP3   OH236010   4.627   6.539  11.563 -0.1656 -0.3758  0.4165
 4840TIP3    H136011   4.641   6.551  11.469  1.4262  1.7670  0.8372
 4840TIP3    H236012   4.542   6.495  11.569  0.1859 -1.5754 -2.0326
 4841TIP3   OH236013   5.820   6.217   0.937 -0.2164 -0.4950  0.2499
 4841TIP3    H136014   5.870   6.277   0.993 -0.7448  1.4899 -1.2797
 4841TIP3    H236015   5.881   6.193   0.868 -0.5157 -0.3542 -0.0645
 4842TIP3   OH236016   2.723   2.943   0.353  0.7197 -0.2198 -0.4079
 4842TIP3    H136017   2.694   2.910   0.438 -1.9590 -0.6695 -1.3781
 4842TIP3    H236018   2.649   2.996   0.322  2.3501  1.4178 -1.6926
 4843TIP3   OH236019   2.887   5.357   1.426  0.0064 -0.3882 -0.6556
 4843TIP3    H136020   2.872   5.435   1.480 -1.0467 -0.2764 -1.0976
 4843TIP3    H236021   2.815   5.357   1.363 -0.2165 -1.9325 -0.4326
 4844TIP3   OH236022   5.370   6.070  11.305  0.2532 -0.2266 -0.0767
 4844TIP3    H136023   5.291   6.111  11.342  0.6045 -0.1457  0.6126
 4844TIP3    H236024   5.440   6.131  11.327  0.8699 -1.4018  1.4303
 4845TIP3   OH236025   4.937   6.192  15.931 -0.2140 -0.0622  0.3174
 4845TIP3    H136026   4.942   6.270  15.876 -0.3293  0.6507  1.2996
 4845TIP3    H236027   5.028   6.168  15.947  0.0101  2.1804  3.1826
 4846TIP3   OH236028   0.909   3.961  12.490 -0.4097 -0.5081  0.0410
 4846TIP3    H136029   0.855   3.884  12.503 -1.6851  0.0159 -1.7518
 4846TIP3    H236030   0.896   3.985  12.398  1.7277  0.5242 -0.0672
 4847TIP3   OH236031   6.314   1.875  14.564  0.6268 -0.1112  0.5453
 4847TIP3    H136032   6.278   1.961  14.542 -0.3906 -0.5430  0.4538
 4847TIP3    H236033   6.319   1.875  14.660  3.7617  1.2565  0.4865
 4848TIP3   OH236034   4.192   3.909   5.047  0.6272  0.4241 -0.1343
 4848TIP3    H136035   4.213   3.886   4.957 -0.1250  0.8410 -0.4166
 4848TIP3    H236036   4.206   4.003   5.052  3.0501  0.1017  0.8505
 4849TIP3   OH236037   3.998   1.465  12.643 -0.3053 -0.2253 -0.1058
 4849TIP3    H136038   3.982   1.556  12.616 -0.2958 -0.5463 -1.2102
 4849TIP3    H236039   4.019   1.419  12.562  0.9084 -0.9605  0.6024
 4850TIP3   OH236040   2.706   1.234   5.098 -0.1366 -0.3085  0.2815
 4850TIP3    H136041   2.668   1.295   5.035 -0.1303  0.1750  0.7380
 4850TIP3    H236042   2.637   1.170   5.115 -0.0917 -0.5254 -0.3123
 4851TIP3   OH236043   0.598   3.187   5.604 -0.1825 -0.3309  0.6166
 4851TIP3    H136044   0.562   3.265   5.646 -1.9360  0.6855 -2.4794
 4851TIP3    H236045   0.642   3.139   5.675  0.0370  2.8804  2.8355
 4852TIP3   OH236046   6.304   5.976   3.622 -0.3107  0.6191  0.4142
 4852TIP3    H136047   6.252   6.044   3.664  0.7215  1.8281 -0.1901
 4852TIP3    H236048   6.264   5.894   3.650 -3.6275  1.4442 -1.3712
 4853TIP3   OH236049   4.953   1.955  11.418  0.4495 -0.0473  0.0169
 4853TIP3    H136050   4.952   1.876  11.472  1.1982  0.4655  0.7946
 4853TIP3    H236051   5.039   1.954  11.376  0.3416  0.1961 -0.2133
 4854TIP3   OH236052   1.185   0.735  15.894 -0.6187  0.2516  0.3054
 4854TIP3    H136053   1.214   0.807  15.951  1.2735  1.2386 -1.7432
 4854TIP3    H236054   1.259   0.721  15.836 -1.9383 -1.6872 -0.9820
 4855TIP3   OH236055   3.188   5.785   3.438  0.7565  1.1015 -0.0154
 4855TIP3    H136056   3.104   5.819   3.468  1.1592  1.9643  0.1526
 4855TIP3    H236057   3.177   5.772   3.344 -0.3380 -1.0964  0.3453
 4856TIP3   OH236058   5.253   6.022  13.875  0.0547  0.1496  0.1530
 4856TIP3    H136059   5.163   6.000  13.854 -0.1687  1.7894 -0.8076
 4856TIP3    H236060   5.247   6.103  13.926  0.9663  0.2589  0.1132
 4857TIP3   OH236061   5.539   3.432  14.284  0.7565  0.5820  0.2147
 4857TIP3    H136062   5.610   3.370  14.270 -0.9195 -1.4041 -0.0313
 4857TIP3    H236063   5.525   3.472  14.198  1.9972  1.5334  0.4272
 4858TIP3   OH236064   3.080   4.487   3.840  0.2115 -0.3724 -0.0051
 4858TIP3    H136065   3.108   4.554   3.777 -0.6434 -0.4270 -0.4451
 4858TIP3    H236066   3.029   4.536   3.905  1.6920 -0.1868  1.0846
 4859TIP3   OH236067   4.244   6.534   1.889 -0.1829 -0.0785  0.0011
 4859TIP3    H136068   4.282   6.531   1.801  2.1632  0.2575  0.9440
 4859TIP3    H236069   4.305   6.485   1.944 -3.0918 -2.9535  1.0276
 4860TIP3   OH236070   1.589   4.638  16.825  0.6023 -0.0403  0.0517
 4860TIP3    H136071   1.574   4.695  16.750  1.1156 -0.5375 -0.4375
 4860TIP3    H236072   1.585   4.549  16.789  0.2490 -0.3080  0.7208
 4861TIP3   OH236073   4.095   3.907  14.141  0.1783  0.1518 -0.0047
 4861TIP3    H136074   4.122   3.843  14.075 -0.7816 -1.2129  0.8667
 4861TIP3    H236075   4.158   3.978  14.133  0.6549 -0.4166 -1.7217
 4862TIP3   OH236076   0.355   0.763  14.341  0.2532 -0.0570 -0.5501
 4862TIP3    H136077   0.339   0.841  14.394 -0.2604 -1.5466  1.6340
 4862TIP3    H236078   0.281   0.760  14.280  0.6588  1.5125 -1.1631
 4863TIP3   OH236079   4.549   4.392   3.532  0.7986 -0.1753  0.0942
 4863TIP3    H136080   4.502   4.338   3.468 -0.2278 -1.4732  1.8329
 4863TIP3    H236081   4.484   4.410   3.599  2.3161 -0.5428  1.7381
 4864TIP3   OH236082   3.156   1.166   5.631 -0.3226  0.3729 -0.0003
 4864TIP3    H136083   3.238   1.119   5.642 -1.0133 -0.5776  1.3890
 4864TIP3    H236084   3.176   1.236   5.569  1.6331  0.4151  0.6115
 4865TIP3   OH236085   5.648   6.610   5.108  0.2820  0.0849 -0.3943
 4865TIP3    H136086   5.708   6.587   5.179 -1.0025 -0.9647  0.4099
 4865TIP3    H236087   5.675   6.555   5.034 -0.2873 -1.1731  0.2918
 4866TIP3   OH236088   1.934   4.552  13.813  0.1876  0.7048 -0.1331
 4866TIP3    H136089   1.960   4.541  13.721  1.3434  2.8192 -0.1180
 4866TIP3    H236090   1.911   4.645  13.820 -2.9405 -0.0319  1.0109
 4867TIP3   OH236091   1.484   3.769  11.802  0.0043 -0.2812  0.4749
 4867TIP3    H136092   1.451   3.836  11.743  0.2730  0.4167  1.0958
 4867TIP3    H236093   1.528   3.818  11.872 -0.8097 -1.0403  1.5654
 4868TIP3   OH236094   4.237   0.805  10.908  0.4751 -0.4332  0.5857
 4868TIP3    H136095   4.251   0.856  10.828 -0.6449 -2.2268 -0.8136
 4868TIP3    H236096   4.188   0.864  10.965 -0.7025  0.1485 -0.9444
 4869TIP3   OH236097   2.730   1.466  13.234 -0.0521  0.2833 -0.6713
 4869TIP3    H136098   2.778   1.429  13.161 -0.5911  0.9321 -1.3714
 4869TIP3    H236099   2.674   1.533  13.195  0.5878  1.5451  0.5053
 4870TIP3   OH236100   6.708   0.688  14.940  0.1368  0.5801 -0.1756
 4870TIP3    H136101   6.674   0.742  15.012 -1.8081 -0.5515 -0.1754
 4870TIP3    H236102   6.672   0.729  14.861 -0.4330 -0.0399 -0.2493
 4871TIP3   OH236103   5.082   0.064  12.035  0.7109  0.0025 -0.3810
 4871TIP3    H136104   5.021   0.078  12.108  0.8290  1.3843 -0.5333
 4871TIP3    H236105   5.103  -0.029  12.040 -0.2274 -0.1792  0.6058
 4872TIP3   OH236106   2.195   2.202   1.977  0.3861  0.3461 -0.3091
 4872TIP3    H136107   2.187   2.217   2.071 -2.3770 -1.9567 -0.0268
 4872TIP3    H236108   2.144   2.272   1.937 -0.4035  0.0101  0.0858
 4873TIP3   OH236109   1.946   4.020   5.773 -0.3785  0.5935  0.5029
 4873TIP3    H136110   1.923   3.929   5.789  0.8829 -0.2361 -1.8480
 4873TIP3    H236111   2.010   4.041   5.841  0.6218 -0.8759  0.0633
 4874TIP3   OH236112   1.822   5.047   4.219  0.2341 -0.1528 -0.1418
 4874TIP3    H136113   1.831   5.054   4.124 -1.6455  2.3586 -0.2391
 4874TIP3    H236114   1.864   5.125   4.253 -1.7912  0.5775  0.8195
 4875TIP3   OH236115   3.079   4.507   0.697  0.2005  0.2905 -0.0739
 4875TIP3    H136116   3.046   4.454   0.624  0.5584 -2.3058  1.5200
 4875TIP3    H236117   3.002   4.522   0.752  0.4846 -0.3776  0.5146
 4876TIP3   OH236118   1.428   1.221  10.827 -0.0146 -0.3313  0.3349
 4876TIP3    H136119   1.360   1.181  10.773  0.2558 -0.0901 -0.1849
 4876TIP3    H236120   1.509   1.175  10.803  0.0637 -0.3942  0.7118
 4877TIP3   OH236121   0.752   6.786   1.812 -0.2805  0.0855  0.2409
 4877TIP3    H136122   0.728   6.716   1.751 -1.2901  0.0944  0.6149
 4877TIP3    H236123   0.831   6.753   1.855 -1.5564 -1.5193  1.4881
 4878TIP3   OH236124   5.903   4.932  11.539  0.1885  0.7859 -0.5078
 4878TIP3    H136125   5.841   4.932  11.612 -1.5716  0.1408 -1.9586
 4878TIP3    H236126   5.901   5.021  11.505  1.5240  1.2762  0.5905
 4879TIP3   OH236127   3.518   4.265  12.917  0.0351  0.5547 -0.5609
 4879TIP3    H136128   3.609   4.295  12.917  0.8045 -1.5410  0.9361
 4879TIP3    H236129   3.508   4.216  12.835  0.6381 -0.1539 -0.2226
 4880TIP3   OH236130   3.841   6.602   3.621 -0.1520  0.4448 -0.1671
 4880TIP3    H136131   3.754   6.602   3.660  0.9406  0.7183  2.4554
 4880TIP3    H236132   3.886   6.528   3.662  1.2535  1.0978 -0.4647
 4881TIP3   OH236133   1.783   0.255  12.443 -0.4359  0.3880 -0.0487
 4881TIP3    H136134   1.823   0.253  12.356 -0.5089  1.0336 -0.1074
 4881TIP3    H236135   1.854   0.281  12.502 -0.6684  1.2004 -0.1060
 4882TIP3   OH236136   5.566   0.631  17.125  0.2483  0.0636 -0.1534
 4882TIP3    H136137   5.517   0.707  17.095  0.3664  0.0253 -0.4487
 4882TIP3    H236138   5.535   0.616  17.215  0.8339  0.9705  0.2108
 4883TIP3   OH236139   4.212   1.971   4.064 -0.0919  0.7257  0.3624
 4883TIP3    H136140   4.255   2.011   3.989  0.8455  0.6823  0.8669
 4883TIP3    H236141   4.283   1.938   4.118 -0.7898 -2.2489 -0.3399
 4884TIP3   OH236142   6.432   2.122  11.507 -0.2313  0.0571 -0.1790
 4884TIP3    H136143   6.455   2.193  11.447 -1.1726  0.4771 -0.0518
 4884TIP3    H236144   6.358   2.155  11.557 -0.6593 -0.9937 -0.0851
 4885TIP3   OH236145   1.736   3.889  12.859  0.0144 -0.4192  0.0676
 4885TIP3    H136146   1.752   3.823  12.792  0.8907 -0.8629  0.7029
 4885TIP3    H236147   1.793   3.962  12.835 -1.3232  0.3434 -0.9212
 4886TIP3   OH236148   1.615   5.334   3.261  0.2097 -0.0227  0.3760
 4886TIP3    H136149   1.583   5.308   3.347 -0.5714  0.1801  0.1570
 4886TIP3    H236150   1.680   5.401   3.278 -0.2577  0.3285  0.7926
 4887TIP3   OH236151   6.637   0.100  15.984  0.1137 -0.2702 -0.1687
 4887TIP3    H136152   6.691   0.110  16.063  0.7353  1.8322 -0.8071
 4887TIP3    H236153   6.674   0.162  15.922 -0.7937 -1.4069 -1.9133
 4888TIP3   OH236154   2.662   1.554   2.006  0.0356 -0.0401  0.4016
 4888TIP3    H136155   2.670   1.478   2.063  1.4681  0.6260  1.1356
 4888TIP3    H236156   2.739   1.551   1.949  2.6402  3.1287  3.3598
 4889TIP3   OH236157   3.827   0.534   3.001  0.0131  0.5801  0.5259
 4889TIP3    H136158   3.848   0.602   3.065  0.0731  1.3013 -0.2496
 4889TIP3    H236159   3.867   0.565   2.920  1.5899 -1.2315  0.5452
 4890TIP3   OH236160   6.547   4.742  16.192 -0.2361 -0.7875 -0.2979
 4890TIP3    H136161   6.461   4.713  16.223  0.2450 -1.4353  0.4674
 4890TIP3    H236162   6.583   4.793  16.265  0.6769 -1.8534  0.0289
 4891TIP3   OH236163   4.731   4.542  15.784 -0.1545  0.2171  0.2808
 4891TIP3    H136164   4.786   4.527  15.861 -1.7026  1.4249  1.6881
 4891TIP3    H236165   4.670   4.468  15.783  0.4625 -0.3067 -0.3899
 4892TIP3   OH236166   6.219   4.123   0.386 -0.0696  0.4766  0.1910
 4892TIP3    H136167   6.223   4.056   0.319 -0.0156  0.1696  0.5004
 4892TIP3    H236168   6.219   4.075   0.469 -0.2140  0.8481  0.4101
 4893TIP3   OH236169   4.336   4.247   4.094  0.2808 -0.2526 -0.3809
 4893TIP3    H136170   4.276   4.285   4.158  0.6141  1.3020 -0.9460
 4893TIP3    H236171   4.410   4.215   4.147 -0.3273 -0.7757  0.1672
 4894TIP3   OH236172   4.635   3.694  16.347 -0.3955 -0.2642  0.9844
 4894TIP3    H136173   4.653   3.636  16.273 -0.7475  0.1396  0.5782
 4894TIP3    H236174   4.715   3.691  16.399  0.1087 -0.0389  0.2394
 4895TIP3   OH236175   5.941   0.319  11.829 -0.2190  0.2986 -0.4468
 4895TIP3    H136176   5.874   0.383  11.804 -0.6136  0.3967  0.7948
 4895TIP3    H236177   5.920   0.297  11.920  1.6802  0.6282  0.1033
 4896TIP3   OH236178   0.802   4.860  10.809 -0.2264  0.1117 -0.6159
 4896TIP3    H136179   0.872   4.839  10.746 -1.1970  0.7382 -1.9382
 4896TIP3    H236180   0.726   4.879  10.755 -1.0843  0.7376  0.7621
 4897TIP3   OH236181   1.716   6.186   4.540 -0.3259  0.4908  0.0422
 4897TIP3    H136182   1.673   6.242   4.604 -0.4086  0.1705  0.2690
 4897TIP3    H236183   1.703   6.230   4.456 -0.1586  0.9468  0.2540
 4898TIP3   OH236184   4.102   3.505   2.305  0.5941  0.1872  0.1771
 4898TIP3    H136185   4.150   3.423   2.316  3.0120  1.2867 -1.2904
 4898TIP3    H236186   4.060   3.496   2.220 -3.3972 -1.3877  2.0769
 4899TIP3   OH236187   2.685   5.256   1.648  0.3461 -0.0390 -0.0830
 4899TIP3    H136188   2.616   5.302   1.600 -0.1548 -1.7477 -1.1056
 4899TIP3    H236189   2.761   5.260   1.590  0.4853  0.0613  0.1082
 4900TIP3   OH236190   3.610   4.134  14.921 -0.4592 -0.6894 -0.0709
 4900TIP3    H136191   3.602   4.174  15.007  1.5948 -0.8503  0.2356
 4900TIP3    H236192   3.552   4.057  14.924 -0.7339 -0.4486  0.9957
 4901TIP3   OH236193   4.357   3.573  16.894 -0.5834  1.0120 -0.2278
 4901TIP3    H136194   4.267   3.547  16.913 -1.2764  0.0126 -4.0761
 4901TIP3    H236195   4.411   3.500  16.925 -1.6270 -0.6950 -2.2308
 4902TIP3   OH236196   4.224   1.599   3.991  0.1105 -0.6476  0.0287
 4902TIP3    H136197   4.302   1.651   4.009 -0.2030 -0.2975  0.3744
 4902TIP3    H236198   4.154   1.641   4.040 -0.1524 -1.3813  0.3075
 4903TIP3   OH236199   6.387   4.542  17.131  0.0693 -0.3108  0.4186
 4903TIP3    H136200   6.382   4.448  17.116 -0.0494 -0.0290 -1.5753
 4903TIP3    H236201   6.300   4.575  17.110  0.2026  0.2828  0.7744
 4904TIP3   OH236202   0.595   1.175  13.289  0.5345 -0.9140 -0.3594
 4904TIP3    H136203   0.569   1.201  13.378 -0.8727 -1.5374 -0.5480
 4904TIP3    H236204   0.631   1.087  13.300  2.3004 -0.2060 -0.1557
 4905TIP3   OH236205   2.337   0.683  14.727  1.0694  0.0934  0.5439
 4905TIP3    H136206   2.322   0.610  14.787 -1.1777 -1.7457 -2.0006
 4905TIP3    H236207   2.250   0.718  14.710  1.7167  1.0562 -0.9883
 4906TIP3   OH236208   0.130   2.900  11.575  0.0614  0.2654  0.0650
 4906TIP3    H136209   0.110   2.872  11.665 -3.5835 -1.1470 -0.9820
 4906TIP3    H236210   0.125   2.995  11.579 -1.4638  0.1906  1.1787
 4907TIP3   OH236211   4.661   0.753   1.989 -0.5444 -0.5857 -0.0167
 4907TIP3    H136212   4.692   0.773   1.901 -3.5664  2.6097 -0.5945
 4907TIP3    H236213   4.723   0.796   2.047 -0.7288  0.8739 -0.8514
 4908TIP3   OH236214   3.225   0.750   2.087 -0.1261 -0.2223  0.6948
 4908TIP3    H136215   3.253   0.775   2.175  0.0718  0.6089  0.4059
 4908TIP3    H236216   3.241   0.656   2.082 -0.9856 -0.4598  1.8612
 4909TIP3   OH236217   1.035   4.987  12.990 -0.3411  0.0345  0.8202
 4909TIP3    H136218   1.117   5.019  13.027 -0.8362  5.1808 -1.7057
 4909TIP3    H236219   0.970   5.004  13.058  0.0424  0.0329  1.1954
 4910TIP3   OH236220   6.021   2.044  14.031 -0.1616  0.2830 -0.0340
 4910TIP3    H136221   6.074   1.970  14.060  1.2297  0.6506 -1.4842
 4910TIP3    H236222   5.941   2.038  14.084  1.5445  0.0871  2.7648
 4911TIP3   OH236223   4.424   0.409   0.894 -0.0424  0.2498  0.5971
 4911TIP3    H136224   4.477   0.382   0.819 -0.0314  1.9652 -0.0635
 4911TIP3    H236225   4.460   0.360   0.967  0.1094 -1.2928 -0.4512
 4912TIP3   OH236226   0.910   4.247   0.280 -0.1894 -0.3397  0.3895
 4912TIP3    H136227   0.941   4.332   0.310  1.1092 -1.1952  1.5849
 4912TIP3    H236228   0.818   4.243   0.308 -0.3273  0.7500  0.1113
 4913TIP3   OH236229   2.841   4.728   6.368 -0.1577  0.2319 -0.2237
 4913TIP3    H136230   2.841   4.739   6.273  0.7927 -2.3059 -0.5756
 4913TIP3    H236231   2.749   4.741   6.394 -0.1795  2.6104 -1.1785
 4914TIP3   OH236232   1.981   3.675  11.783 -0.3966  0.1648  0.2849
 4914TIP3    H136233   2.043   3.730  11.734 -2.8992  2.0578 -1.0140
 4914TIP3    H236234   1.998   3.586  11.752  1.6349  0.5935  0.0080
 4915TIP3   OH236235   2.768   6.694  14.071  0.5492  0.0581 -0.1915
 4915TIP3    H136236   2.843   6.702  14.129 -0.0907  0.5253  0.6018
 4915TIP3    H236237   2.773   6.771  14.014  1.4061 -0.6127 -1.0624
 4916TIP3   OH236238   3.714   5.779  15.927 -0.1763  0.2843 -0.7112
 4916TIP3    H136239   3.683   5.788  16.017 -0.5562  0.2432 -0.8335
 4916TIP3    H236240   3.803   5.813  15.928 -0.1832  0.2918 -0.3214
 4917TIP3   OH236241   2.477   2.268   1.625  0.4302 -0.0142 -0.3103
 4917TIP3    H136242   2.382   2.283   1.623  0.1861 -0.9707  1.8481
 4917TIP3    H236243   2.495   2.238   1.714  2.9113  0.9437 -0.4243
 4918TIP3   OH236244   5.787   3.007  15.585 -0.8688 -0.2382 -0.0675
 4918TIP3    H136245   5.748   3.069  15.523 -0.9722  1.7387  1.8759
 4918TIP3    H236246   5.879   3.031  15.588 -1.0264  0.2737  1.1544
 4919TIP3   OH236247   6.332   5.315  10.865  0.3629 -0.0904 -0.2997
 4919TIP3    H136248   6.406   5.370  10.838  0.9092  0.5854  2.3222
 4919TIP3    H236249   6.256   5.374  10.862  0.6604  0.3772  0.8882
 4920TIP3   OH236250   0.122   3.478  15.170  0.4148 -0.0561  0.3682
 4920TIP3    H136251   0.186   3.512  15.232 -0.2772  0.8682  0.5975
 4920TIP3    H236252   0.086   3.556  15.128 -0.7108 -0.5417  0.3994
 4921TIP3   OH236253   1.773   1.529  10.520 -0.3201  0.1539 -0.0245
 4921TIP3    H136254   1.747   1.615  10.555 -0.0045  1.0443 -1.8469
 4921TIP3    H236255   1.749   1.533  10.428 -1.1881 -2.1181  0.0443
 4922TIP3   OH236256   3.254   1.233   0.529  0.3115 -0.0886 -0.0880
 4922TIP3    H136257   3.348   1.228   0.545  0.1999 -1.5298  0.2775
 4922TIP3    H236258   3.215   1.237   0.616  0.0371  1.2013 -0.2463
 4923TIP3   OH236259   2.100   3.775   3.756  0.0042 -0.3035 -0.5211
 4923TIP3    H136260   2.194   3.793   3.755  0.2190 -1.3621 -0.1365
 4923TIP3    H236261   2.062   3.851   3.800  0.5348  0.6916 -1.7067
 4924TIP3   OH236262   5.440   5.469  11.534  0.5759 -0.5883 -0.2949
 4924TIP3    H136263   5.502   5.535  11.565 -1.0708  0.6014  0.6097
 4924TIP3    H236264   5.483   5.386  11.552  2.2842  0.1906 -0.5418
 4925TIP3   OH236265   2.612   3.613  12.922 -0.1606 -0.1492  0.1709
 4925TIP3    H136266   2.581   3.631  12.833 -2.1632 -0.1356  0.8217
 4925TIP3    H236267   2.656   3.694  12.948  1.5327 -0.5856 -1.2175
 4926TIP3   OH236268   0.204   4.935   3.520 -0.3165 -0.8465  0.3803
 4926TIP3    H136269   0.170   4.847   3.536  1.1585 -1.0363  3.0030
 4926TIP3    H236270   0.140   4.993   3.561  0.8305 -1.0306  2.5865
 4927TIP3   OH236271   6.491   2.119  13.751 -0.1208 -0.3084  0.2101
 4927TIP3    H136272   6.547   2.183  13.707  0.8807  0.3574  2.3032
 4927TIP3    H236273   6.415   2.170  13.779 -0.3046 -0.5092  0.0791
 4928TIP3   OH236274   5.360   1.702  14.953  0.3683 -0.4775 -0.1543
 4928TIP3    H136275   5.335   1.717  15.044  0.3911 -0.2510 -0.1849
 4928TIP3    H236276   5.291   1.646  14.918  0.0713 -0.1133 -0.1511
 4929TIP3   OH236277   6.026   1.516   2.147 -0.6496  0.5627  0.7184
 4929TIP3    H136278   6.072   1.484   2.069 -0.8336 -1.4120  1.3840
 4929TIP3    H236279   5.984   1.597   2.117  0.6466  0.7515 -0.7606
 4930TIP3   OH236280   2.255   2.179  11.784 -0.2460  0.0750  0.7674
 4930TIP3    H136281   2.229   2.140  11.701 -1.5082  0.1321  1.1158
 4930TIP3    H236282   2.179   2.167  11.842  0.5671  0.1143  1.8884
 4931TIP3   OH236283   4.481   5.007   2.073  0.4261  0.1991 -0.4867
 4931TIP3    H136284   4.390   5.026   2.093 -0.0577 -1.0955 -1.3372
 4931TIP3    H236285   4.478   4.941   2.004  2.0118  0.5346 -0.9393
 4932TIP3   OH236286   1.801   1.595  15.783 -0.9535 -0.3589 -0.4420
 4932TIP3    H136287   1.822   1.508  15.816 -0.7171 -0.5428 -1.0506
 4932TIP3    H236288   1.828   1.592  15.691 -0.3409  0.5721 -0.2979
 4933TIP3   OH236289   1.371   0.274  11.864  0.5729 -0.5755 -0.3948
 4933TIP3    H136290   1.299   0.260  11.802  0.3801  0.0957 -0.3340
 4933TIP3    H236291   1.448   0.290  11.808  0.4770 -0.3449 -0.4612
 4934TIP3   OH236292   1.978   3.445   3.729  0.4882  0.2209  0.4197
 4934TIP3    H136293   1.958   3.531   3.768  0.5821  0.5078 -0.1557
 4934TIP3    H236294   2.060   3.460   3.682  0.2890 -0.0862 -0.0192
 4935TIP3   OH236295   5.830   3.744   4.240  0.5433 -0.6439  0.2297
 4935TIP3    H136296   5.924   3.743   4.253  0.8222 -1.4841 -1.5731
 4935TIP3    H236297   5.802   3.653   4.255 -0.2169 -0.1528  2.0616
 4936TIP3   OH236298   1.437   2.662   3.921  0.0204  0.1102  0.5038
 4936TIP3    H136299   1.511   2.688   3.867  0.0231  0.6394  0.7615
 4936TIP3    H236300   1.477   2.631   4.003 -0.0123 -0.2154  0.4002
 4937TIP3   OH236301   0.914   1.443   2.733 -0.1084 -0.0890  0.2134
 4937TIP3    H136302   0.917   1.411   2.823 -0.5975  0.0966  0.2998
 4937TIP3    H236303   0.820   1.451   2.713 -0.1820 -3.3896 -1.4963
 4938TIP3   OH236304   0.220   5.573   1.039 -0.4430 -0.1041  0.0951
 4938TIP3    H136305   0.301   5.618   1.062 -1.0181  1.1395 -0.2308
 4938TIP3    H236306   0.162   5.588   1.114 -0.0038 -2.0730  0.9139
 4939TIP3   OH236307   3.971   2.278  14.292 -0.0509  0.5819 -0.7951
 4939TIP3    H136308   4.015   2.362  14.284 -0.0338  0.7573  0.7792
 4939TIP3    H236309   3.996   2.246  14.379 -0.8180 -0.5993 -0.9868
 4940TIP3   OH236310   6.424   1.156   0.408  0.0963  0.1053 -0.6516
 4940TIP3    H136311   6.423   1.217   0.481  2.9653 -1.5607  0.9944
 4940TIP3    H236312   6.486   1.194   0.345  0.2172 -0.0352 -0.6211
 4941TIP3   OH236313   0.205   5.975  10.889  0.4967 -0.2170  0.7845
 4941TIP3    H136314   0.275   6.011  10.944 -0.3108  2.4625  0.2387
 4941TIP3    H236315   0.141   5.942  10.951  0.5992  0.7289  1.4217
 4942TIP3   OH236316   6.455   0.966  12.187  0.3417 -0.0912 -0.5716
 4942TIP3    H136317   6.522   1.029  12.158 -0.0652  0.9506  0.6683
 4942TIP3    H236318   6.480   0.884  12.144  1.4706  0.6610 -1.4343
 4943TIP3   OH236319   1.236   6.350  15.775 -0.1018  0.8486  0.1628
 4943TIP3    H136320   1.151   6.307  15.785 -0.9602  2.2575 -0.5670
 4943TIP3    H236321   1.265   6.368  15.864 -0.7119  0.5965  0.4163
 4944TIP3   OH236322   2.606   3.919   4.394  0.3025 -0.1658  0.2986
 4944TIP3    H136323   2.577   3.851   4.455  1.1001 -0.9508 -0.1612
 4944TIP3    H236324   2.532   3.978   4.387 -0.0730 -0.4608  1.4539
 4945TIP3   OH236325   3.782   5.578   0.817  0.4116  1.0106  0.4512
 4945TIP3    H136326   3.764   5.551   0.907 -0.7923 -3.9851 -0.9901
 4945TIP3    H236327   3.876   5.564   0.807  0.0795 -1.5361  0.2277
 4946TIP3   OH236328   4.205   1.620   3.504  0.4142 -0.1556  0.0311
 4946TIP3    H136329   4.113   1.597   3.517  0.5954 -1.2970 -0.5377
 4946TIP3    H236330   4.242   1.624   3.592 -0.6293  2.5236  0.4458
 4947TIP3   OH236331   5.657   0.416   6.285 -0.9989 -0.3613 -0.4579
 4947TIP3    H136332   5.601   0.446   6.357 -0.6913 -1.3608  0.2250
 4947TIP3    H236333   5.746   0.425   6.319 -0.7234  1.1635 -1.5135
 4948TIP3   OH236334   4.669   2.953   2.593 -1.1747 -0.0273 -0.0392
 4948TIP3    H136335   4.743   2.892   2.591  0.0365  1.4020 -0.2716
 4948TIP3    H236336   4.652   2.973   2.501 -0.5217  1.1796  0.0904
 4949TIP3   OH236337   4.151   1.345  12.451  0.7026 -0.3117 -0.2645
 4949TIP3    H136338   4.150   1.290  12.372 -0.6829 -0.0552 -0.4482
 4949TIP3    H236339   4.233   1.323  12.494  0.9281 -1.3396 -1.1743
 4950TIP3   OH236340   2.497   4.895  12.190 -0.9719  0.1385  0.2751
 4950TIP3    H136341   2.421   4.861  12.143  0.3717 -2.5010 -0.1631
 4950TIP3    H236342   2.540   4.954  12.128 -0.5548 -1.4167 -0.9601
 4951TIP3   OH236343   1.118   5.315   6.213  0.6380 -0.0347 -0.2077
 4951TIP3    H136344   1.163   5.234   6.187 -0.7276 -1.1772  0.8181
 4951TIP3    H236345   1.142   5.378   6.145  1.3471 -1.4361 -1.3302
 4952TIP3   OH236346   1.144   2.124  13.183 -0.2702 -0.0703  0.4218
 4952TIP3    H136347   1.072   2.187  13.184 -0.5472 -0.3772  2.1001
 4952TIP3    H236348   1.223   2.178  13.187 -0.4077  0.2355 -0.6365
 4953TIP3   OH236349   4.256   1.707  12.639 -0.4028 -0.3091 -0.1727
 4953TIP3    H136350   4.337   1.655  12.639  1.4606  2.3448 -1.9611
 4953TIP3    H236351   4.229   1.709  12.547  0.6887  3.2550 -0.5564
 4954TIP3   OH236352   2.038   5.164  15.941  0.4627 -0.1315  0.7714
 4954TIP3    H136353   2.087   5.236  15.979 -1.4568  1.1617  0.9671
 4954TIP3    H236354   2.004   5.199  15.859  0.4695 -1.2196  0.2913
 4955TIP3   OH236355   0.476   4.296  13.841 -0.6639 -0.0797  0.1218
 4955TIP3    H136356   0.543   4.264  13.902 -0.2735 -2.7648 -1.5764
 4955TIP3    H236357   0.523   4.357  13.784  0.4582 -1.9600 -1.0777
 4956TIP3   OH236358   4.176   1.235  15.019 -0.5167  0.3457  0.0583
 4956TIP3    H136359   4.159   1.161  15.076  0.8204  0.8467  1.1706
 4956TIP3    H236360   4.257   1.212  14.972 -0.7793  0.5758 -0.5178
 4957TIP3   OH236361   0.585   1.230  15.189 -0.0133 -0.2043 -0.6930
 4957TIP3    H136362   0.620   1.319  15.200 -0.4390 -0.1407  0.2673
 4957TIP3    H236363   0.662   1.177  15.168  0.0208  0.6563 -3.0836
 4958TIP3   OH236364   5.767   6.524   2.343  0.3937  0.2835  0.2417
 4958TIP3    H136365   5.759   6.511   2.249  2.8805 -1.6239  0.1641
 4958TIP3    H236366   5.790   6.617   2.353 -0.1211  0.5585 -1.0024
 4959TIP3   OH236367   4.368   4.318  13.944 -0.3446 -0.2885 -0.0596
 4959TIP3    H136368   4.287   4.351  13.904  0.1441  0.3581 -0.5477
 4959TIP3    H236369   4.423   4.396  13.955  1.0585 -0.9721 -1.7503
 4960TIP3   OH236370   1.710   5.871  14.710 -0.5837 -0.1334  0.5431
 4960TIP3    H136371   1.726   5.778  14.702 -0.1653  0.0310 -0.7344
 4960TIP3    H236372   1.744   5.895  14.796  1.2749 -0.7660  0.0178
 4961TIP3   OH236373   5.916   0.507  16.910  0.1406  0.2845 -0.2415
 4961TIP3    H136374   5.960   0.527  16.828  0.4009  0.8217  0.0262
 4961TIP3    H236375   5.971   0.547  16.977  0.1990 -0.5776  0.2381
 4962TIP3   OH236376   3.871   3.270  15.128  0.0437  0.3303  0.4302
 4962TIP3    H136377   3.901   3.184  15.099  1.2437  1.2668 -1.2866
 4962TIP3    H236378   3.930   3.294  15.199  2.0610  1.1830 -1.4261
 4963TIP3   OH236379   5.618   0.636   5.381 -0.1773 -0.1360 -0.1213
 4963TIP3    H136380   5.576   0.551   5.397 -0.9513  0.5378  1.7099
 4963TIP3    H236381   5.638   0.636   5.288  0.9017 -2.7915  0.0239
 4964TIP3   OH236382   1.503   6.324  13.378  0.2454 -0.0219 -0.3878
 4964TIP3    H136383   1.513   6.230  13.360  1.7633 -0.2485  1.2832
 4964TIP3    H236384   1.409   6.337  13.386  0.0591 -1.8676  1.2789
 4965TIP3   OH236385   3.338   2.029  16.103 -0.0208  0.4433 -0.3964
 4965TIP3    H136386   3.261   2.015  16.049 -1.3808  0.2237  1.4926
 4965TIP3    H236387   3.315   2.104  16.158  1.1300  0.3889  0.1848
 4966TIP3   OH236388   6.250   0.199   1.398  0.6078  0.3979 -0.2795
 4966TIP3    H136389   6.324   0.138   1.394 -1.7954 -2.7249 -3.2893
 4966TIP3    H236390   6.247   0.239   1.312  0.5213  2.9219  0.8101
 4967TIP3   OH236391   5.432   2.730  12.599  1.0058 -0.0714 -0.0467
 4967TIP3    H136392   5.396   2.815  12.575 -0.5665 -0.4591  0.8091
 4967TIP3    H236393   5.391   2.669  12.538  0.6710 -0.4465  0.5513
 4968TIP3   OH236394   1.711   3.530   4.497 -0.1342  0.1964 -0.3393
 4968TIP3    H136395   1.684   3.461   4.437  1.9420 -0.6651 -0.3740
 4968TIP3    H236396   1.772   3.583   4.446  1.5884 -0.4843  0.9218
 4969TIP3   OH236397   2.687   1.861  15.326  0.1138 -0.0967 -0.1680
 4969TIP3    H136398   2.776   1.841  15.355  0.3296  0.8220 -0.1517
 4969TIP3    H236399   2.667   1.794  15.261  0.8400 -0.2784 -0.2150
 4970TIP3   OH236400   0.386   4.668   1.130  0.0058  0.7055  0.4176
 4970TIP3    H136401   0.354   4.611   1.061  3.0868  0.2922 -0.8450
 4970TIP3    H236402   0.457   4.619   1.171 -0.0688  1.9613  2.1969
 4971TIP3   OH236403   4.865   5.418  15.023  0.1751  0.6274  0.2078
 4971TIP3    H136404   4.888   5.511  15.024  0.1086  0.6392  0.4600
 4971TIP3    H236405   4.894   5.385  15.108  3.4478 -0.3545 -1.1079
 4972TIP3   OH236406   0.903   2.348  11.180  0.1844  0.1656  0.2596
 4972TIP3    H136407   0.852   2.401  11.119  0.9867  1.0043  0.2859
 4972TIP3    H236408   0.993   2.354  11.147  0.5110  0.0228  1.1079
 4973TIP3   OH236409   5.657   0.286  16.845  0.1477 -0.3198 -0.1044
 4973TIP3    H136410   5.731   0.299  16.786  0.0159 -1.1263 -0.4527
 4973TIP3    H236411   5.623   0.374  16.860  1.5955  0.1517  0.6188
 4974TIP3   OH236412   5.303   6.059  10.204  0.1568 -0.5146 -0.5073
 4974TIP3    H136413   5.282   6.081  10.295  0.9420 -0.1241 -0.4099
 4974TIP3    H236414   5.221   6.024  10.169 -1.0303  2.0082 -0.4869
 4975TIP3   OH236415   4.215   5.572  16.472 -0.5050  0.1537 -0.0029
 4975TIP3    H136416   4.280   5.593  16.539 -0.6775 -0.1602  0.2652
 4975TIP3    H236417   4.220   5.645  16.410  0.7760 -0.3380 -0.5057
 4976TIP3   OH236418   5.081   2.747   4.050  0.5225  0.0322 -0.3180
 4976TIP3    H136419   5.054   2.682   3.985 -0.8983  0.7108 -0.4541
 4976TIP3    H236420   5.024   2.823   4.032 -1.2884 -0.3964  2.8722
 4977TIP3   OH236421   6.105   6.119   3.373 -0.3755 -0.5672 -0.0167
 4977TIP3    H136422   6.055   6.176   3.431  0.0860  0.6107 -0.7337
 4977TIP3    H236423   6.165   6.072   3.430 -0.8054 -0.3936  0.5918
 4978TIP3   OH236424   2.993   2.125  16.071 -0.0857  0.0615 -0.1620
 4978TIP3    H136425   2.935   2.051  16.056  1.5850 -0.7819 -3.4112
 4978TIP3    H236426   2.993   2.173  15.989  2.9841  0.5722 -0.0029
 4979TIP3   OH236427   1.787   0.259   1.368  0.2623  0.5563 -1.0614
 4979TIP3    H136428   1.876   0.292   1.355  2.2183 -1.5057  4.2296
 4979TIP3    H236429   1.743   0.327   1.419  0.4911 -0.2353  0.2517
 4980TIP3   OH236430   5.448   0.849   1.268 -0.0420  0.2384  0.5633
 4980TIP3    H136431   5.492   0.779   1.318  0.4204 -0.0614 -0.2534
 4980TIP3    H236432   5.519   0.891   1.219 -0.5829  0.1292 -0.3222
 4981TIP3   OH236433   3.877   3.842  16.807 -0.5469 -0.1621 -0.2446
 4981TIP3    H136434   3.837   3.771  16.858 -1.3852 -0.3094 -1.0713
 4981TIP3    H236435   3.828   3.920  16.833 -0.8597 -0.2081 -0.6843
 4982TIP3   OH236436   2.023   6.199   0.962 -0.0547  0.2832 -0.2124
 4982TIP3    H136437   1.991   6.149   0.886 -3.1149  0.5593  0.7789
 4982TIP3    H236438   1.985   6.286   0.951 -1.5148  0.0267  2.1208
 4983TIP3   OH236439   2.032   0.170  10.602 -0.3211 -0.5867  0.5253
 4983TIP3    H136440   2.083   0.239  10.559 -0.1697 -0.8931  0.2049
 4983TIP3    H236441   2.054   0.091  10.553 -1.8798 -0.5624 -0.2708
 4984TIP3   OH236442   6.265   5.390  15.146  0.4665  0.0106 -0.3589
 4984TIP3    H136443   6.305   5.303  15.155 -0.6400 -0.2841  2.9700
 4984TIP3    H236444   6.324   5.448  15.194 -0.7735  0.3547  0.7887
 4985TIP3   OH236445   2.543   6.766  15.454 -0.2927  0.6242 -0.1967
 4985TIP3    H136446   2.463   6.713  15.450 -0.8648  1.2704  1.5555
 4985TIP3    H236447   2.518   6.842  15.507  2.0039 -0.2278  2.3611
 4986TIP3   OH236448   5.228   3.664  10.855  0.0059 -0.2193 -0.2145
 4986TIP3    H136449   5.181   3.747  10.857  0.0350 -0.1934 -0.5583
 4986TIP3    H236450   5.164   3.601  10.821  0.8528  0.2470 -2.9159
 4987TIP3   OH236451   6.545   0.780   2.429 -0.0198  0.0159  0.5724
 4987TIP3    H136452   6.591   0.704   2.392  0.2390  0.8707 -0.9368
 4987TIP3    H236453   6.457   0.747   2.449  0.3329 -0.8796  0.7192
 4988TIP3   OH236454   2.056   3.081  15.570 -0.1825  0.6071  0.1163
 4988TIP3    H136455   1.991   3.024  15.612 -1.5312  2.0991  0.1634
 4988TIP3    H236456   2.098   3.025  15.505 -1.4282 -0.4698  0.1826
 4989TIP3   OH236457   6.072   3.074  15.489 -0.1971 -0.1509  0.2211
 4989TIP3    H136458   6.124   3.023  15.550 -1.4702  0.2177  1.6851
 4989TIP3    H236459   6.135   3.133  15.447  0.7702 -0.6781  0.9038
 4990TIP3   OH236460   0.073   1.040   1.710 -0.0591 -0.0575  0.2408
 4990TIP3    H136461   0.095   1.126   1.676  0.4006  0.1025  0.9130
 4990TIP3    H236462   0.130   0.979   1.663 -0.0111  0.0690  0.1375
 4991TIP3   OH236463   1.075   0.539  14.969  0.3555  0.4688  0.4202
 4991TIP3    H136464   1.009   0.543  14.899  0.1411  0.5736  0.6269
 4991TIP3    H236465   1.024   0.547  15.050  0.5558 -0.1681  0.6100
 4992TIP3   OH236466   5.311   5.589   0.258  0.5342 -0.0898 -0.2865
 4992TIP3    H136467   5.338   5.662   0.313 -0.7163 -0.1386  0.4284
 4992TIP3    H236468   5.236   5.622   0.208 -2.2513 -1.6962  2.4222
 4993TIP3   OH236469   6.127   6.609   4.426 -0.0851  0.2396 -0.6458
 4993TIP3    H136470   6.200   6.649   4.379  0.7413  0.5472  0.8302
 4993TIP3    H236471   6.090   6.680   4.479  0.2407 -0.5145  0.6258
 4994TIP3   OH236472   0.631   2.323  13.561 -0.1297 -0.0027 -0.2011
 4994TIP3    H136473   0.723   2.299  13.551  0.6168  1.3992  2.3448
 4994TIP3    H236474   0.615   2.387  13.492  0.7627 -0.3466 -0.7460
 4995TIP3   OH236475   2.499   3.376   6.120 -0.1583 -0.1584  0.3374
 4995TIP3    H136476   2.441   3.444   6.087  0.8170  0.7709  0.4837
 4995TIP3    H236477   2.470   3.360   6.210 -1.5927 -1.3218 -0.2845
 4996TIP3   OH236478   4.058   0.370   5.359  0.2815 -0.0996 -0.0719
 4996TIP3    H136479   4.049   0.277   5.338 -0.3005  0.0309 -0.4379
 4996TIP3    H236480   3.975   0.393   5.401  1.4649 -0.3783  2.5711
 4997TIP3   OH236481   2.109   0.224   6.864  0.1383  0.2844 -0.0604
 4997TIP3    H136482   2.197   0.204   6.894  0.3555  0.6140 -0.4624
 4997TIP3    H236483   2.077   0.142   6.825  0.4622  0.3032 -0.3722
 4998TIP3   OH236484   5.383   4.817   5.439  0.5346  0.1661 -0.8445
 4998TIP3    H136485   5.313   4.767   5.482  1.1367 -0.1699 -0.2372
 4998TIP3    H236486   5.428   4.752   5.385  0.2044  0.4448 -1.4644
 4999TIP3   OH236487   4.176   2.487  14.254  0.0538  0.4527  0.2219
 4999TIP3    H136488   4.260   2.510  14.293  1.4145 -2.8400 -0.4162
 4999TIP3    H236489   4.199   2.433  14.178 -2.6599  0.2204 -0.5387
 5000TIP3   OH236490   0.536   2.349  14.433 -0.2484 -0.5055  0.2507
 5000TIP3    H136491   0.509   2.278  14.490  0.9255 -1.8400 -0.7929
 5000TIP3    H236492   0.571   2.306  14.355 -0.6414  1.2375 -0.9463
 5001TIP3   OH236493   1.874   5.853  14.099 -0.2558  0.2499  0.1929
 5001TIP3    H136494   1.850   5.937  14.061 -0.6014  0.6575  1.2725
 5001TIP3    H236495   1.831   5.788  14.043 -0.8534  0.8315 -0.0360
 5002TIP3   OH236496   6.228   3.667  15.450 -0.0813 -0.2875 -0.4931
 5002TIP3    H136497   6.229   3.646  15.357  1.4512  0.3360 -0.6506
 5002TIP3    H236498   6.268   3.592  15.492 -1.3877 -0.8706 -0.2306
 5003TIP3   OH236499   5.599   1.721  14.160 -0.7632 -0.0890  0.6796
 5003TIP3    H136500   5.685   1.700  14.123 -0.7966 -0.5852  0.8735
 5003TIP3    H236501   5.551   1.638  14.155 -1.9693  0.6681 -1.3810
 5004TIP3   OH236502   2.334   5.627  15.550 -0.0483  0.0068 -0.0412
 5004TIP3    H136503   2.278   5.663  15.619 -1.4274 -0.1314 -1.0445
 5004TIP3    H236504   2.339   5.697  15.485  2.7670  0.8558  0.9516
 5005TIP3   OH236505   5.647   2.588   6.219  0.1988 -0.5385 -0.4757
 5005TIP3    H136506   5.669   2.667   6.267 -1.8758 -0.6600  0.7963
 5005TIP3    H236507   5.732   2.549   6.197  1.2372  0.6806  1.1402
 5006TIP3   OH236508   0.630   3.927  17.130 -0.3746 -0.5777 -0.2687
 5006TIP3    H136509   0.613   3.900  17.040  1.7742 -0.5527 -0.7283
 5006TIP3    H236510   0.559   3.988  17.151 -1.8500 -1.8756 -1.3302
 5007TIP3   OH236511   4.635   5.383  12.305  0.0441 -0.1811 -0.1018
 5007TIP3    H136512   4.582   5.373  12.226 -1.7052  3.3023  0.4208
 5007TIP3    H236513   4.624   5.300  12.352 -1.3222 -1.2098 -2.0961
 5008TIP3   OH236514   1.929   1.649  12.507  0.7368 -0.3062 -0.0065
 5008TIP3    H136515   2.001   1.663  12.568  0.6827  1.8115 -0.3578
 5008TIP3    H236516   1.954   1.697  12.428 -0.3286 -0.9106 -0.7544
 5009TIP3   OH236517   2.817   6.508  14.866  0.7259  0.4768  0.3128
 5009TIP3    H136518   2.838   6.506  14.959  0.1967  0.0813  0.4265
 5009TIP3    H236519   2.746   6.445  14.856 -0.1176  1.4714 -0.1340
 5010TIP3   OH236520   3.392   4.144   6.635 -0.3550  0.0618 -0.1703
 5010TIP3    H136521   3.420   4.074   6.576 -0.8365  0.2878 -0.6827
 5010TIP3    H236522   3.359   4.098   6.712 -1.4848 -0.3366 -0.8575
 5011TIP3   OH236523   2.619   3.705  10.815 -0.2351  0.1977  0.5930
 5011TIP3    H136524   2.669   3.636  10.771 -2.1408 -1.1709  0.4848
 5011TIP3    H236525   2.638   3.784  10.764  1.3634 -0.3604  0.2458
 5012TIP3   OH236526   6.093   5.314  14.948 -0.4285 -0.0295  0.5719
 5012TIP3    H136527   6.148   5.356  15.015 -0.6447 -0.8231  1.2717
 5012TIP3    H236528   6.037   5.385  14.915  0.2679  0.5549  0.6188
 5013TIP3   OH236529   5.409   0.912  12.957 -0.4876  0.1732  0.4818
 5013TIP3    H136530   5.502   0.934  12.947 -0.3298 -1.2299 -1.5959
 5013TIP3    H236531   5.406   0.857  13.036  0.4508  0.2171  0.5606
 5014TIP3   OH236532   0.753   0.095   5.404 -0.7116 -0.1671  0.1704
 5014TIP3    H136533   0.678   0.151   5.386 -1.5102 -0.9892  0.7869
 5014TIP3    H236534   0.786   0.124   5.490  0.1340  0.6555 -0.4167
 5015TIP3   OH236535   6.697   6.725   6.343 -0.1406 -0.3333 -0.8334
 5015TIP3    H136536   6.664   6.714   6.254 -0.9624 -2.0447 -0.3677
 5015TIP3    H236537   6.627   6.689   6.399  0.1728  1.0827  0.5428
 5016TIP3   OH236538   4.957   2.945  11.120  0.3864 -0.5051 -0.3145
 5016TIP3    H136539   4.924   2.884  11.054  0.8758 -0.8368 -0.2572
 5016TIP3    H236540   4.879   2.970  11.170  0.0471 -0.4040 -0.8864
 5017TIP3   OH236541   3.053   4.591   0.343  0.0502 -0.0573  0.4399
 5017TIP3    H136542   3.130   4.548   0.378 -1.2477 -2.9972 -0.0241
 5017TIP3    H236543   2.990   4.592   0.415 -0.5003 -0.4638 -0.0193
 5018TIP3   OH236544   0.012   2.312   3.986  0.3617  0.4838  0.6918
 5018TIP3    H136545   0.080   2.247   4.005 -0.2157 -0.5161 -0.4927
 5018TIP3    H236546  -0.058   2.294   4.048  0.9630  1.2223  1.6137
 5019TIP3   OH236547   4.739   2.482  12.934 -0.1200  0.4305  0.0898
 5019TIP3    H136548   4.750   2.468  12.840 -0.2643  0.1564  0.1141
 5019TIP3    H236549   4.700   2.401  12.966 -0.6407  0.7499  0.2813
 5020TIP3   OH236550   0.806   4.041  11.647  0.0315 -0.4078  0.2202
 5020TIP3    H136551   0.711   4.034  11.640  0.2938 -3.2825 -2.2600
 5020TIP3    H236552   0.828   3.996  11.729 -0.6594 -0.8959  0.1369
 5021TIP3   OH236553   6.532   3.308  16.540 -0.0561  0.1266  0.1440
 5021TIP3    H136554   6.501   3.277  16.626  0.8640  0.5144  0.6303
 5021TIP3    H236555   6.536   3.230  16.486  1.8215 -0.5924  1.2250
 5022TIP3   OH236556   2.650   2.496  15.105  0.1775  0.4897  0.2738
 5022TIP3    H136557   2.564   2.471  15.073  1.3594 -2.8567 -0.7617
 5022TIP3    H236558   2.687   2.552  15.037 -0.2705 -0.0954 -0.4559
 5023TIP3   OH236559   0.770   5.791   3.304  0.0151  0.1378 -0.3469
 5023TIP3    H136560   0.729   5.873   3.331  0.2287 -0.4640  2.0188
 5023TIP3    H236561   0.736   5.725   3.364 -0.1230 -1.5437 -2.1672
 5024TIP3   OH236562   3.114   3.807   1.582  0.0170 -0.0368  0.2067
 5024TIP3    H136563   3.162   3.797   1.664  2.4413 -1.1718 -1.2516
 5024TIP3    H236564   3.179   3.791   1.514 -2.1758 -0.3333 -1.9494
 5025TIP3   OH236565   2.953   4.535  12.605 -0.3712 -0.4487 -0.2733
 5025TIP3    H136566   2.951   4.567  12.515  1.1118 -0.0994 -0.2210
 5025TIP3    H236567   2.901   4.455  12.603 -1.9916  0.5655 -0.9799
 5026TIP3   OH236568   6.559   4.897  14.043 -0.2383  0.1773 -0.1988
 5026TIP3    H136569   6.481   4.947  14.070 -0.5797 -0.1395 -0.5751
 5026TIP3    H236570   6.633   4.950  14.073 -0.5939  0.8833 -0.5374
 5027TIP3   OH236571   2.049   3.647  13.642 -0.5327  0.3159  0.0513
 5027TIP3    H136572   1.972   3.703  13.655 -0.3397  0.3162  1.3103
 5027TIP3    H236573   2.066   3.651  13.548 -2.1030  0.2701 -0.2559
 5028TIP3   OH236574   0.477   2.800   2.260 -0.4890 -0.2473  0.2899
 5028TIP3    H136575   0.552   2.778   2.204 -1.0359  2.0698 -1.5580
 5028TIP3    H236576   0.507   2.876   2.310 -0.8228 -0.8095  1.3616
 5029TIP3   OH236577   6.194   2.081   1.746  0.0218 -0.4420  0.4417
 5029TIP3    H136578   6.213   2.010   1.808  1.6674 -1.6796 -1.3334
 5029TIP3    H236579   6.267   2.078   1.684 -0.0116  2.6495  0.0922
 5030TIP3   OH236580   2.961   3.549   0.792  0.2594  0.1775 -0.2606
 5030TIP3    H136581   3.008   3.590   0.864  0.0959  2.5213 -1.4115
 5030TIP3    H236582   2.903   3.485   0.834 -0.7485  2.3296  1.8233
 5031TIP3   OH236583   1.161   2.835  10.643 -0.4304 -0.0712 -0.3525
 5031TIP3    H136584   1.253   2.833  10.619 -0.3296 -1.5088  0.0746
 5031TIP3    H236585   1.114   2.824  10.560 -0.2040 -0.0841 -0.4785
 5032TIP3   OH236586   5.079   4.429  12.129 -0.1812 -0.0089  0.3632
 5032TIP3    H136587   5.144   4.451  12.062 -0.2171  0.5588  0.5067
 5032TIP3    H236588   5.019   4.504  12.129 -0.9355 -0.5965  0.1221
 5033TIP3   OH236589   0.003   5.050  17.093  0.1438  0.0381 -0.0076
 5033TIP3    H136590   0.098   5.059  17.097  0.1586  0.3733 -0.8396
 5033TIP3    H236591  -0.028   5.137  17.068 -0.2974 -0.3230 -0.7657
 5034TIP3   OH236592   3.164   4.415   1.293  0.1526 -0.7060  0.5794
 5034TIP3    H136593   3.154   4.475   1.220 -2.3744 -0.8031  0.7532
 5034TIP3    H236594   3.176   4.329   1.252 -1.6959 -0.8298  0.1846
 5035TIP3   OH236595   6.777   0.073   4.820  0.5845 -0.2965 -0.5468
 5035TIP3    H136596   6.768   0.111   4.732  0.5036 -0.3202 -0.5486
 5035TIP3    H236597   6.743   0.141   4.879  1.6978  0.1834 -0.4384
 5036TIP3   OH236598   6.337   0.301  16.380  0.4393  0.0390  0.1905
 5036TIP3    H136599   6.415   0.270  16.427  0.1408  0.9873  1.3662
 5036TIP3    H236600   6.372   0.346  16.303  1.1524  1.2988  1.1964
 5037TIP3   OH236601   5.592   0.702   6.590 -0.4524  0.1552  0.1386
 5037TIP3    H136602   5.627   0.750   6.514 -2.1214  2.9597  0.9684
 5037TIP3    H236603   5.578   0.613   6.558 -0.1260  0.9598 -2.5292
 5038TIP3   OH236604   2.299   2.477  13.608  0.3367 -0.2508 -0.4251
 5038TIP3    H136605   2.212   2.499  13.575  0.5302  0.4004 -0.5074
 5038TIP3    H236606   2.359   2.537  13.562  0.6497  0.3992  0.7946
 5039TIP3   OH236607   6.792   2.460   1.930  0.4556 -0.2073 -0.1583
 5039TIP3    H136608   6.801   2.552   1.954 -1.7131 -0.4183  1.7154
 5039TIP3    H236609   6.846   2.413   1.994  0.8632 -0.3220 -0.5769
 5040TIP3   OH236610   0.443   1.148   0.176 -0.4585 -0.5582  0.3903
 5040TIP3    H136611   0.379   1.078   0.190 -0.8438 -0.6421 -1.6095
 5040TIP3    H236612   0.391   1.228   0.172 -0.2934 -0.4707  0.0063
 5041TIP3   OH236613   5.230   1.064   2.692  0.1031  0.3243 -0.2528
 5041TIP3    H136614   5.158   1.124   2.709 -0.1233 -0.4434  1.7380
 5041TIP3    H236615   5.215   0.990   2.751  2.9047  0.4791  0.8037
 5042TIP3   OH236616   4.192   0.932   3.658 -0.1375 -0.0304 -0.2408
 5042TIP3    H136617   4.202   0.913   3.564 -0.4066 -0.3040 -0.2148
 5042TIP3    H236618   4.215   1.025   3.666 -1.3620  0.3444 -0.7785
 5043TIP3   OH236619   2.573   5.837  11.971 -0.3939  0.0207  0.2652
 5043TIP3    H136620   2.656   5.813  12.014 -0.6680 -0.4855  0.5304
 5043TIP3    H236621   2.515   5.860  12.044 -0.9040 -0.9691  0.1887
 5044TIP3   OH236622   1.503   5.821   3.654 -0.4607  0.0265  0.1140
 5044TIP3    H136623   1.489   5.800   3.562  0.1375 -0.9431  0.2320
 5044TIP3    H236624   1.515   5.916   3.655 -1.5962  0.1945 -0.6520
 5045TIP3   OH236625   5.616   1.803   2.151 -0.4665 -0.2913 -0.0065
 5045TIP3    H136626   5.524   1.815   2.173  0.0191  2.2553  1.0119
 5045TIP3    H236627   5.617   1.785   2.057 -2.0033 -0.4361 -0.0081
 5046TIP3   OH236628   3.525   6.670  15.566  0.4016  0.4648  0.3917
 5046TIP3    H136629   3.460   6.693  15.632  1.1817 -2.2573  2.2882
 5046TIP3    H236630   3.481   6.683  15.483 -1.2919  2.1528  1.4626
 5047TIP3   OH236631   6.612   2.583  13.814  0.4975 -0.4144  0.8043
 5047TIP3    H136632   6.603   2.645  13.886  0.4123  0.1558  0.3139
 5047TIP3    H236633   6.525   2.545  13.803  0.1755  0.4798  0.1457
 5048TIP3   OH236634   6.744   0.493  12.003 -0.1746  0.1477  0.5841
 5048TIP3    H136635   6.780   0.405  12.011 -0.0382  0.1302 -0.1578
 5048TIP3    H236636   6.817   0.547  11.972 -0.6992  0.1550 -0.7123
 5049TIP3   OH236637   5.742   4.261  16.283 -0.0233  0.4007 -0.4786
 5049TIP3    H136638   5.676   4.244  16.216  0.7587 -2.7314 -0.6108
 5049TIP3    H236639   5.776   4.348  16.262 -2.5738  1.1924 -1.6819
 5050TIP3   OH236640   6.504   6.264   1.187  0.0567  0.4399  0.3527
 5050TIP3    H136641   6.589   6.300   1.211 -0.3073  1.3925  0.2336
 5050TIP3    H236642   6.469   6.324   1.121 -0.5536 -0.1370  0.1334
 5051TIP3   OH236643   3.984   6.011  13.486  0.4636 -0.2534  0.0024
 5051TIP3    H136644   3.913   6.067  13.517 -0.2606 -0.9654 -0.3360
 5051TIP3    H236645   4.005   6.045  13.399  1.3366  0.6763  0.5555
 5052TIP3   OH236646   0.567   1.403  11.941 -0.2838  0.0654 -0.0267
 5052TIP3    H136647   0.504   1.462  11.983 -0.9140  1.0028 -2.1378
 5052TIP3    H236648   0.644   1.458  11.925 -0.0473 -0.2767 -0.0536
 5053TIP3   OH236649   5.512   2.688   2.366  0.4979  0.0407  0.2651
 5053TIP3    H136650   5.463   2.642   2.298  0.4050  0.8574 -0.2285
 5053TIP3    H236651   5.497   2.636   2.445 -0.5377 -0.1395 -0.0345
 5054TIP3   OH236652   3.560   5.313   3.892  0.2394  0.2997 -0.7298
 5054TIP3    H136653   3.595   5.226   3.871 -0.7183 -0.2557 -0.0852
 5054TIP3    H236654   3.623   5.350   3.953 -0.4201 -0.8263  0.6942
 5055TIP3   OH236655   1.992   2.635   5.174 -1.0010  0.7942 -0.4501
 5055TIP3    H136656   2.072   2.631   5.122  0.2660 -0.6014  1.4959
 5055TIP3    H236657   1.924   2.602   5.116  0.1582  0.2586 -1.5431
 5056TIP3   OH236658   4.072   0.632  17.146 -0.1844  0.3351 -0.4061
 5056TIP3    H136659   4.119   0.667  17.222  0.5710  2.5316 -1.7705
 5056TIP3    H236660   4.125   0.659  17.071 -1.3772 -0.9664 -1.7800
 5057TIP3   OH236661   5.659   1.954  16.405 -0.5433 -0.5320 -0.3541
 5057TIP3    H136662   5.683   1.918  16.319 -0.4209 -0.8456 -0.1916
 5057TIP3    H236663   5.722   1.915  16.465  0.2642  0.7768 -0.3231
 5058TIP3   OH236664   4.169   2.659  12.007  0.4616 -0.0649 -0.5917
 5058TIP3    H136665   4.261   2.686  11.998  0.4323  0.1713 -0.1668
 5058TIP3    H236666   4.120   2.741  12.008  0.2096 -0.1992 -1.1536
 5059TIP3   OH236667   1.184   5.559   3.627 -0.1143  0.4325 -0.0122
 5059TIP3    H136668   1.114   5.555   3.562 -1.5138  3.1272  1.1459
 5059TIP3    H236669   1.265   5.557   3.577 -0.9710 -1.9688 -1.4538
 5060TIP3   OH236670   2.755   3.571  15.794  0.8032  0.1264  0.1393
 5060TIP3    H136671   2.747   3.486  15.750 -0.2511  0.2137  0.1455
 5060TIP3    H236672   2.846   3.573  15.825  0.6549 -1.2813  0.7345
 5061TIP3   OH236673   5.325   2.024  14.401  0.2098  0.0372  0.3368
 5061TIP3    H136674   5.353   2.080  14.329 -0.1298 -1.4341 -0.9971
 5061TIP3    H236675   5.261   1.964  14.362 -0.4749 -0.3965  2.0089
 5062TIP3   OH236676   4.956   5.829  11.789  0.5888 -0.2673 -0.1164
 5062TIP3    H136677   4.990   5.917  11.769 -1.0331  0.2281 -0.8860
 5062TIP3    H236678   4.992   5.808  11.875  0.9512  1.1866  0.1136
 5063TIP3   OH236679   4.534   4.011   1.609 -0.4615 -0.0397  0.2450
 5063TIP3    H136680   4.589   3.956   1.553  0.6883  2.0946 -0.8254
 5063TIP3    H236681   4.466   4.044   1.551 -0.4520  0.5681  0.5723
 5064TIP3   OH236682   2.792   6.643  14.374 -1.0615  0.3888 -0.1822
 5064TIP3    H136683   2.863   6.584  14.401 -1.3827 -0.7080 -1.6569
 5064TIP3    H236684   2.713   6.590  14.376 -1.4917  0.9836 -0.7540
 5065TIP3   OH236685   6.195   5.262   3.390  0.5974 -0.2521  0.3095
 5065TIP3    H136686   6.133   5.317   3.341 -0.0872 -1.3122 -0.0519
 5065TIP3    H236687   6.153   5.246   3.474  1.0715  0.2642  0.6548
 5066TIP3   OH236688   4.678   0.702  15.015 -0.4026 -0.2497 -0.0433
 5066TIP3    H136689   4.607   0.730  15.073  0.8690 -1.7093  2.3880
 5066TIP3    H236690   4.651   0.616  14.982  0.4136 -1.0990  1.3866
 5067TIP3   OH236691   1.727   3.776  14.295 -0.1169  0.1938 -0.2818
 5067TIP3    H136692   1.756   3.865  14.276  0.3246  0.5132  1.6481
 5067TIP3    H236693   1.774   3.752  14.375  0.9077 -2.3466 -1.5455
 5068TIP3   OH236694   2.559   5.263  14.016 -0.1001  0.2547  0.3503
 5068TIP3    H136695   2.490   5.299  13.960  0.2072  1.7177  0.8482
 5068TIP3    H236696   2.597   5.192  13.964 -0.3874  1.0057 -0.9471
 5069TIP3   OH236697   3.545   3.817  14.284  1.0086  0.2166 -0.6117
 5069TIP3    H136698   3.502   3.898  14.255 -0.3893 -0.8466 -1.5997
 5069TIP3    H236699   3.638   3.831  14.262  0.8961  1.7487 -0.2719
 5070TIP3   OH236700   0.534   3.481   3.116 -0.3672 -0.0380  0.5166
 5070TIP3    H136701   0.603   3.544   3.139  0.2049  0.1045 -1.3538
 5070TIP3    H236702   0.570   3.396   3.141  0.0376  0.1404  0.5514
 5071TIP3   OH236703   4.178   6.174   6.854 -0.0095 -0.4737  0.6969
 5071TIP3    H136704   4.100   6.121   6.872 -1.5376  1.6398  0.6199
 5071TIP3    H236705   4.220   6.132   6.779  0.0181 -2.7285  1.8902
 5072TIP3   OH236706   4.436   0.174  13.328  0.2961  0.3669  0.5952
 5072TIP3    H136707   4.344   0.159  13.350 -0.4419  1.1235 -1.7499
 5072TIP3    H236708   4.457   0.106  13.263 -0.3760  3.3964 -3.1213
 5073TIP3   OH236709   1.149   1.992   0.951 -0.0021  0.1842 -0.8844
 5073TIP3    H136710   1.073   1.933   0.957  0.2207  0.0062  0.4977
 5073TIP3    H236711   1.207   1.949   0.888 -0.2314 -0.6382 -0.5557
 5074TIP3   OH236712   4.154   0.160  10.655  0.1653  0.7021 -0.0806
 5074TIP3    H136713   4.154   0.083  10.599 -1.1990  1.0143 -0.5416
 5074TIP3    H236714   4.180   0.232  10.596  1.2792  0.6397  0.3097
 5075TIP3   OH236715   2.854   0.124   0.641 -0.4752  0.0947 -0.1417
 5075TIP3    H136716   2.800   0.203   0.646 -2.4226 -1.2316  2.3155
 5075TIP3    H236717   2.853   0.089   0.730  3.3856 -0.8293 -0.2900
 5076TIP3   OH236718   1.952   5.561   4.747 -0.0764  0.5967  0.0900
 5076TIP3    H136719   1.887   5.529   4.684 -1.6274  0.6930  1.5723
 5076TIP3    H236720   1.978   5.483   4.795  0.3903  0.6752 -0.0342
 5077TIP3   OH236721   1.739   3.921   4.162 -0.1174 -0.0287 -0.2766
 5077TIP3    H136722   1.659   3.921   4.110  0.7487 -0.6869 -1.6987
 5077TIP3    H236723   1.714   3.959   4.246 -1.5764  1.1626 -1.1918
 5078TIP3   OH236724   3.050   6.608   2.837  0.6708 -0.1335 -0.0850
 5078TIP3    H136725   2.967   6.640   2.872  1.1074  2.2595 -1.0578
 5078TIP3    H236726   3.039   6.612   2.742  1.3202 -1.4449 -0.2331
 5079TIP3   OH236727   0.214   3.754   4.460 -0.6114  0.4746  0.0445
 5079TIP3    H136728   0.244   3.797   4.379 -1.0325 -0.8124 -0.8251
 5079TIP3    H236729   0.258   3.669   4.460 -1.0111  0.2585  0.9125
 5080TIP3   OH236730   1.113   6.834  16.499 -0.1788 -0.4450 -0.2250
 5080TIP3    H136731   1.018   6.822  16.489 -0.1498  0.1802 -1.4565
 5080TIP3    H236732   1.121   6.916  16.548 -0.2772 -0.1714 -0.6592
 5081TIP3   OH236733   0.256   4.077  11.432  0.0040 -0.1638  0.5395
 5081TIP3    H136734   0.194   4.108  11.498 -1.2337  0.7898 -1.0028
 5081TIP3    H236735   0.271   3.985  11.453 -1.6578 -0.3073  1.1720
 5082TIP3   OH236736   5.337   4.299  15.045  0.0097 -0.2739 -0.6572
 5082TIP3    H136737   5.395   4.351  14.989  0.7931  1.5592  1.7015
 5082TIP3    H236738   5.395   4.233  15.083 -0.2425 -0.6896 -0.9885
 5083TIP3   OH236739   3.821   1.448   0.036 -0.2344  0.6634  0.0327
 5083TIP3    H136740   3.840   1.390  -0.038 -1.2137  0.3758 -0.0121
 5083TIP3    H236741   3.902   1.449   0.087 -0.0325 -0.3596 -0.2315
 5084TIP3   OH236742   3.531   3.465   1.099  0.6514 -0.5525  0.4422
 5084TIP3    H136743   3.468   3.400   1.067  0.5384 -1.0271  1.5827
 5084TIP3    H236744   3.595   3.474   1.028 -1.1202  0.5584 -1.1244
 5085TIP3   OH236745   2.274   2.962  16.708 -0.2999 -0.5760  1.0952
 5085TIP3    H136746   2.295   2.878  16.748  1.5967 -0.5275  0.2883
 5085TIP3    H236747   2.263   3.022  16.783  0.2796 -1.1248  1.6348
 5086TIP3   OH236748   6.353   4.157  13.499  0.3779  0.2975 -0.5335
 5086TIP3    H136749   6.364   4.138  13.592 -0.3002 -0.0563 -0.5158
 5086TIP3    H236750   6.348   4.253  13.494  2.2694  0.4272 -0.4402
 5087TIP3   OH236751   0.497   6.802  15.103 -0.5763  0.2979  0.2386
 5087TIP3    H136752   0.482   6.725  15.048  0.7726  0.5094 -0.4781
 5087TIP3    H236753   0.467   6.776  15.190  0.6396 -1.3842  0.2136
 5088TIP3   OH236754   5.809   0.146  16.167  0.5617  0.3179 -0.6863
 5088TIP3    H136755   5.766   0.153  16.253  0.8703 -0.0395 -0.4998
 5088TIP3    H236756   5.858   0.064  16.171 -0.1738 -0.1806 -1.5566
 5089TIP3   OH236757   5.052   5.587  12.502  0.0731  0.3786 -0.5081
 5089TIP3    H136758   5.079   5.641  12.428  0.2198 -1.6650 -2.0657
 5089TIP3    H236759   4.963   5.560  12.481 -0.2515  0.5521  0.5772
 5090TIP3   OH236760   3.350   3.281   5.629  0.5954 -0.2281 -0.0987
 5090TIP3    H136761   3.390   3.202   5.593  1.3416  0.9198 -1.9195
 5090TIP3    H236762   3.408   3.306   5.701  0.4358 -1.2221  0.3976
 5091TIP3   OH236763   5.245   5.950   5.808  0.9211 -0.1576  0.1567
 5091TIP3    H136764   5.243   5.901   5.891 -0.7181  0.8488  0.7645
 5091TIP3    H236765   5.207   6.035   5.830 -2.8005 -0.9380 -2.2329
 5092TIP3   OH236766   1.591   0.864  14.668  0.1706 -0.9181 -0.6015
 5092TIP3    H136767   1.561   0.889  14.580  0.6572 -0.4278 -0.6279
 5092TIP3    H236768   1.533   0.792  14.692 -0.9158 -0.1198 -0.7385
 5093TIP3   OH236769   6.526   6.575   3.922 -0.3906 -0.6400  0.3325
 5093TIP3    H136770   6.556   6.490   3.954  2.3951  0.4613  0.9016
 5093TIP3    H236771   6.556   6.638   3.989  1.1954  1.1822 -1.9360
 5094TIP3   OH236772   3.401   3.945  15.710  0.2392 -0.1951  0.3722
 5094TIP3    H136773   3.378   4.037  15.701  1.1825  0.1173  1.0234
 5094TIP3    H236774   3.460   3.942  15.785  0.2269 -1.3310  0.3562
 5095TIP3   OH236775   1.185   4.169  11.843 -0.5230  0.3329 -0.0607
 5095TIP3    H136776   1.165   4.263  11.835  0.3120  0.4646 -0.6717
 5095TIP3    H236777   1.165   4.132  11.757  0.9162  0.3089 -0.4213
 5096TIP3   OH236778   3.706   3.816  15.518 -0.3750  0.0020 -0.8223
 5096TIP3    H136779   3.699   3.757  15.443  1.2634  0.0139 -1.0047
 5096TIP3    H236780   3.799   3.819  15.538 -0.6315  1.1309  0.3211
 5097TIP3   OH236781   5.143   5.349  14.959 -0.1353  0.7996  0.0367
 5097TIP3    H136782   5.052   5.319  14.957  0.3073 -0.6614  0.4691
 5097TIP3    H236783   5.177   5.316  15.042  0.9653  0.7882 -0.4047
 5098TIP3   OH236784   4.089   6.389  12.151 -0.6884 -0.0096  0.0467
 5098TIP3    H136785   4.116   6.302  12.181 -0.0462  0.8046  1.9530
 5098TIP3    H236786   4.001   6.401  12.186 -0.1638  0.7152  1.1594
 5099TIP3   OH236787   1.243   6.685   3.439  0.4093 -0.5537 -0.3746
 5099TIP3    H136788   1.213   6.611   3.491  1.9123 -1.1482 -0.2849
 5099TIP3    H236789   1.239   6.760   3.498 -0.1517 -0.7606 -0.1481
 5100TIP3   OH236790   0.538   1.485  11.301 -0.2839  0.3620  0.5973
 5100TIP3    H136791   0.572   1.398  11.282 -0.5104  0.1439  1.1779
 5100TIP3    H236792   0.458   1.470  11.350 -2.7692  0.7860 -2.9123
 5101TIP3   OH236793   3.734   4.557  14.783  0.1038 -0.1917  0.1642
 5101TIP3    H136794   3.764   4.486  14.726  0.1854  0.2764 -0.3883
 5101TIP3    H236795   3.714   4.629  14.722  0.3637  0.3769  0.7465
 5102TIP3   OH236796   5.640   5.561   4.508 -0.0024 -0.5314 -0.1391
 5102TIP3    H136797   5.596   5.644   4.529  1.0301 -0.2265  0.8855
 5102TIP3    H236798   5.670   5.573   4.418  1.3314  0.7759  0.4334
 5103TIP3   OH236799   4.543   1.824  12.018 -0.1880  0.4249  0.2412
 5103TIP3    H136800   4.509   1.754  12.073  2.1499 -0.1071  1.1362
 5103TIP3    H236801   4.638   1.817  12.026  0.3097  0.5618 -3.6177
 5104TIP3   OH236802   2.087   5.708  14.148 -0.1674 -0.3049  0.1630
 5104TIP3    H136803   2.004   5.755  14.136 -0.6794 -0.7429  1.7816
 5104TIP3    H236804   2.067   5.618  14.123 -0.2043 -0.4241  0.6138
 5105TIP3   OH236805   2.204   6.328  13.979 -0.2313 -0.0516  0.5287
 5105TIP3    H136806   2.174   6.414  14.009  1.4009 -0.0395  2.3961
 5105TIP3    H236807   2.202   6.273  14.058 -1.3988 -1.8084 -0.6579
 5106TIP3   OH236808   3.248   0.919  12.777 -0.6482 -0.4978  0.2693
 5106TIP3    H136809   3.157   0.926  12.746 -0.4668 -1.8383 -0.6481
 5106TIP3    H236810   3.301   0.930  12.698 -0.1002 -1.7703  0.4390
 5107TIP3   OH236811   0.016   3.825   4.055  0.2311  0.4413  0.2954
 5107TIP3    H136812   0.095   3.814   4.106 -0.2966  2.1173  1.5538
 5107TIP3    H236813  -0.021   3.908   4.084 -1.5001  0.1713 -0.9215
 5108TIP3   OH236814   5.812   2.878  13.301  0.5837  0.1299 -0.1669
 5108TIP3    H136815   5.725   2.898  13.265 -0.1720  0.3554  1.6979
 5108TIP3    H236816   5.834   2.793  13.263 -0.5514 -0.0410 -0.4939
 5109TIP3   OH236817   5.461   5.304   2.205  0.1295 -0.2839  0.1282
 5109TIP3    H136818   5.375   5.288   2.243  0.5711 -0.6762  0.9767
 5109TIP3    H236819   5.442   5.341   2.118 -0.8965  1.9537  1.2263
 5110TIP3   OH236820   2.221   5.083  12.023  0.2490  0.4902 -0.0683
 5110TIP3    H136821   2.149   5.045  12.074  0.9695 -1.6697 -0.5692
 5110TIP3    H236822   2.282   5.116  12.088 -0.5027  1.0328  0.3835
 5111TIP3   OH236823   1.486   4.807   3.675 -0.1524 -0.2774  0.1498
 5111TIP3    H136824   1.564   4.860   3.692 -0.6549  0.6417 -0.3624
 5111TIP3    H236825   1.413   4.862   3.701 -0.7107 -0.5144 -0.8681
 5112TIP3   OH236826   5.553   5.499   0.007 -0.1442 -0.0515 -0.4436
 5112TIP3    H136827   5.614   5.492   0.080 -0.4755 -0.0457 -0.1598
 5112TIP3    H236828   5.579   5.430  -0.054 -0.8092 -1.0752  0.3980
 5113TIP3   OH236829   4.061   3.349  15.346 -0.6157 -0.8887 -0.5472
 5113TIP3    H136830   4.082   3.406  15.420  0.4780  0.6006 -1.9108
 5113TIP3    H236831   4.056   3.261  15.383 -2.0102  0.0132  1.5882
 5114TIP3   OH236832   5.078   5.402  12.123  0.2369  0.4088  0.1869
 5114TIP3    H136833   4.989   5.369  12.111  0.2515  0.6737 -0.6824
 5114TIP3    H236834   5.085   5.475  12.062  1.1661  0.1743 -0.0000
 5115TIP3   OH236835   1.298   3.430  15.283  0.4078  0.4117  0.2477
 5115TIP3    H136836   1.311   3.426  15.378 -0.7511 -1.7907  0.3882
 5115TIP3    H236837   1.246   3.509  15.269 -2.4535 -0.9548  1.9755
 5116TIP3   OH236838   3.302   4.404   4.255  0.2016 -0.4751  0.1308
 5116TIP3    H136839   3.395   4.389   4.271  0.2078  0.3098  0.9449
 5116TIP3    H236840   3.279   4.475   4.315 -0.2045  1.4858 -2.1601
 5117TIP3   OH236841   2.194   3.985   5.966  0.4680 -0.6204  0.1574
 5117TIP3    H136842   2.177   3.944   6.051  0.0960  0.0739  0.4267
 5117TIP3    H236843   2.285   3.961   5.946  0.9975  0.2774  1.3760
 5118TIP3   OH236844   5.633   6.305  10.626  0.0485  0.7121  0.0384
 5118TIP3    H136845   5.583   6.315  10.707 -0.6679  1.7275 -0.5007
 5118TIP3    H236846   5.567   6.314  10.556  0.7940  0.8237 -0.6643
 5119TIP3   OH236847   6.631   0.455   3.423 -0.4863  0.2303  0.2274
 5119TIP3    H136848   6.545   0.446   3.464  0.5312 -0.2579  2.3820
 5119TIP3    H236849   6.625   0.402   3.344 -1.6049 -1.3481  1.3043
 5120TIP3   OH236850   4.256   1.941  13.061 -0.0380 -0.4732 -0.1055
 5120TIP3    H136851   4.333   1.954  13.117  1.0614 -2.0783 -1.1338
 5120TIP3    H236852   4.264   2.007  12.993 -0.3476  0.2500  0.5367
 5121TIP3   OH236853   0.833   2.550  11.004  0.6551  0.2444 -0.6540
 5121TIP3    H136854   0.838   2.563  10.910  3.0393 -1.3177 -0.8185
 5121TIP3    H236855   0.904   2.603  11.040 -0.9305  1.7568  0.4684
 5122TIP3   OH236856   4.367   1.280   6.106 -0.0396  0.0207  0.2227
 5122TIP3    H136857   4.304   1.341   6.144 -0.0795  0.4489 -0.5080
 5122TIP3    H236858   4.410   1.239   6.182  0.9742  1.9822  0.7825
 5123TIP3   OH236859   0.002   3.906  11.732  0.6747 -0.4243 -0.2304
 5123TIP3    H136860  -0.063   3.913  11.802  0.7532  2.3685 -0.3047
 5123TIP3    H236861  -0.047   3.872  11.658  0.0983 -1.4843  0.6090
 5124TIP3   OH236862   2.673   6.469   5.511  0.1408 -0.8028  0.2562
 5124TIP3    H136863   2.702   6.492   5.599  2.2890 -2.2840  0.0217
 5124TIP3    H236864   2.582   6.442   5.523 -0.8226  2.4779  1.3366
 5125TIP3   OH236865   6.363   0.135  12.816 -0.5460 -0.5291  0.6698
 5125TIP3    H136866   6.297   0.107  12.880 -1.8307  1.0158  0.0938
 5125TIP3    H236867   6.330   0.104  12.732  1.3908 -2.9980  0.7014
 5126TIP3   OH236868   0.777   3.429  12.363  0.5425  0.1139  0.5086
 5126TIP3    H136869   0.840   3.471  12.305 -1.7388 -1.3829 -3.4436
 5126TIP3    H236870   0.696   3.479  12.352 -0.8647 -2.2014 -0.4152
 5127TIP3   OH236871   3.368   3.279   0.975  0.4992 -0.0187  0.1295
 5127TIP3    H136872   3.357   3.192   0.939 -1.1397 -0.0233  0.5470
 5127TIP3    H236873   3.284   3.322   0.961  0.3727  0.5853  2.2725
 5128TIP3   OH236874   3.591   0.555   2.854 -0.3621 -0.4864 -0.4279
 5128TIP3    H136875   3.623   0.594   2.772 -1.1521 -0.4491 -0.7274
 5128TIP3    H236876   3.670   0.523   2.898  0.0082 -1.0959 -1.5041
 5129TIP3   OH236877   0.033   2.287  12.496 -0.1220 -0.6435 -0.2093
 5129TIP3    H136878   0.125   2.287  12.470  0.1983  1.9106  0.6745
 5129TIP3    H236879   0.033   2.245  12.582  0.0184 -1.6428 -0.6778
 5130TIP3   OH236880   3.356   6.391  12.551 -0.3838 -0.2738 -0.1956
 5130TIP3    H136881   3.436   6.410  12.601 -1.0724 -2.2262  1.8547
 5130TIP3    H236882   3.387   6.359  12.467  1.1050 -1.7581  0.8425
 5131TIP3   OH236883   4.863   6.572   6.343 -0.6097 -0.3825 -0.1545
 5131TIP3    H136884   4.782   6.622   6.327 -0.7259  0.0570  1.6092
 5131TIP3    H236885   4.836   6.503   6.403  0.4027  0.0563  0.8334
 5132TIP3   OH236886   2.753   2.562  11.162 -0.0685 -0.0927  0.2427
 5132TIP3    H136887   2.815   2.615  11.112 -1.7074  1.0180 -0.6957
 5132TIP3    H236888   2.687   2.535  11.097 -1.6906  0.5196  1.5549
 5133TIP3   OH236889   1.816   2.370   3.392  0.2824 -0.2115 -0.4053
 5133TIP3    H136890   1.896   2.415   3.365  0.8680 -1.8243 -1.5054
 5133TIP3    H236891   1.845   2.305   3.456 -0.6038  1.1309  1.4696
 5134TIP3   OH236892   4.321   0.268  12.908  0.3170 -0.1951  0.7132
 5134TIP3    H136893   4.347   0.240  12.820 -1.0987 -0.1959  0.2664
 5134TIP3    H236894   4.402   0.265  12.959  1.4346  0.9268 -0.8679
 5135TIP3   OH236895   2.792   6.241   3.833 -0.7034 -0.2352 -0.1431
 5135TIP3    H136896   2.827   6.193   3.909  0.5574 -0.8371 -1.0651
 5135TIP3    H236897   2.724   6.297   3.870 -0.4254 -0.8314  1.3718
 5136TIP3   OH236898   6.494   0.926   6.279 -0.0028 -0.0695 -0.4336
 5136TIP3    H136899   6.585   0.949   6.301  0.2114 -0.6454 -0.6997
 5136TIP3    H236900   6.444   1.004   6.302  0.4334 -0.0648  0.5601
 5137TIP3   OH236901   0.308   5.275   5.022 -0.0886  0.0236 -0.0168
 5137TIP3    H136902   0.376   5.248   4.960 -1.5687  0.4761 -1.9435
 5137TIP3    H236903   0.227   5.238   4.986 -0.7914 -1.4047  2.7544
 5138TIP3   OH236904   5.958   3.106   4.637 -0.0511  0.3477 -0.2018
 5138TIP3    H136905   6.023   3.051   4.682  1.3174  1.3876 -0.8140
 5138TIP3    H236906   5.876   3.090   4.684  1.2944  1.4537  2.7786
 5139TIP3   OH236907   6.013   1.983   3.240 -0.2466  0.6813 -0.5473
 5139TIP3    H136908   6.094   2.034   3.247 -0.0787  0.2741  0.7803
 5139TIP3    H236909   6.033   1.901   3.286 -0.9629 -0.0047 -1.4393
 5140TIP3   OH236910   6.419   5.364   2.139 -0.3733 -0.4913 -0.0844
 5140TIP3    H136911   6.386   5.311   2.066  0.1229 -0.9459  0.0102
 5140TIP3    H236912   6.396   5.454   2.116  0.5529 -0.5235 -1.2327
 5141TIP3   OH236913   5.369   2.014   1.994 -0.1575 -0.4018  0.1588
 5141TIP3    H136914   5.350   1.950   2.062 -2.0173  0.4845  0.5159
 5141TIP3    H236915   5.391   2.094   2.041  0.4098 -0.2723 -0.2996
 5142TIP3   OH236916   4.165   3.858  14.436 -0.0057  0.1782 -0.2730
 5142TIP3    H136917   4.215   3.838  14.356  0.6998  1.4299 -0.1694
 5142TIP3    H236918   4.082   3.893  14.404 -0.4424 -0.9523 -0.4412
 5143TIP3   OH236919   3.819   1.669  16.835 -0.4622  0.0425  0.5008
 5143TIP3    H136920   3.819   1.580  16.799 -1.4346  1.0769 -2.3672
 5143TIP3    H236921   3.821   1.726  16.758 -2.5959  2.5234  2.1180
 5144TIP3   OH236922   6.344   1.798   1.440  0.3790 -0.1386  0.1378
 5144TIP3    H136923   6.250   1.805   1.428  0.4086 -0.3840 -0.2517
 5144TIP3    H236924   6.374   1.889   1.449  0.3066  0.0572 -1.3031
 5145TIP3   OH236925   4.254   1.619   0.168  0.6924 -0.1364 -0.1923
 5145TIP3    H136926   4.257   1.613   0.263 -1.0692 -0.5510 -0.1214
 5145TIP3    H236927   4.253   1.713   0.150  0.8453 -0.0582  0.1988
 5146TIP3   OH236928   2.305   3.805   3.968 -0.4789 -0.4346 -0.1010
 5146TIP3    H136929   2.233   3.763   4.014 -0.5550  0.8715  1.0471
 5146TIP3    H236930   2.291   3.899   3.981  1.1697 -0.1261 -0.2408
 5147TIP3   OH236931   2.706   5.945   6.200  0.3901  0.0069  0.9450
 5147TIP3    H136932   2.741   6.033   6.183  0.0215 -0.0893 -0.4437
 5147TIP3    H236933   2.774   5.902   6.251  0.7085  0.9979  1.3982
 5148TIP3   OH236934   1.550   0.434   2.393 -0.0959 -0.0208  0.1704
 5148TIP3    H136935   1.488   0.428   2.466  0.0694 -0.0183  0.3115
 5148TIP3    H236936   1.535   0.522   2.356 -0.1429 -0.0023  0.2330
 5149TIP3   OH236937   6.498   6.371  14.457  0.7916  0.5030  0.3041
 5149TIP3    H136938   6.496   6.392  14.550 -1.8539  0.7324  0.2722
 5149TIP3    H236939   6.534   6.450  14.416 -0.5376  1.4847  0.9437
 5150TIP3   OH236940   3.787   2.611  13.127 -0.5717  0.1938 -0.1404
 5150TIP3    H136941   3.869   2.637  13.168 -0.2815 -1.2380  0.2535
 5150TIP3    H236942   3.792   2.647  13.039 -0.8679  2.6666  0.7608
 5151TIP3   OH236943   5.376   4.749   0.056  0.0846  0.2324  0.3992
 5151TIP3    H136944   5.375   4.844   0.046  0.9113  0.3087  0.9360
 5151TIP3    H236945   5.313   4.718  -0.009  0.0926  1.1166 -0.0576
 5152TIP3   OH236946   3.229   2.302   3.743  0.0602 -0.3135 -0.3210
 5152TIP3    H136947   3.279   2.326   3.821  0.3910  1.0209 -0.9332
 5152TIP3    H236948   3.166   2.236   3.775 -0.0918  0.5012  1.1572
 5153TIP3   OH236949   1.646   1.664   6.351  0.0207 -0.5031  0.4241
 5153TIP3    H136950   1.632   1.664   6.446 -1.2761 -0.5448  0.2510
 5153TIP3    H236951   1.685   1.579   6.332 -0.7394 -0.9450  0.7968
 5154TIP3   OH236952   5.644   5.412  15.392 -0.0747  0.2366  0.3458
 5154TIP3    H136953   5.565   5.460  15.368 -0.1542  0.3735  0.8600
 5154TIP3    H236954   5.611   5.329  15.427  0.0181  0.1948  0.3341
 5155TIP3   OH236955   4.000   2.008   1.417  0.2558  0.0985 -0.1666
 5155TIP3    H136956   4.034   1.928   1.455  1.3774  0.9764  0.7562
 5155TIP3    H236957   3.921   2.028   1.467  0.7729  0.3219  0.5777
 5156TIP3   OH236958   4.098   4.702  11.239 -0.1634 -0.4269 -0.2514
 5156TIP3    H136959   4.117   4.611  11.216  2.4617  0.0772 -0.3695
 5156TIP3    H236960   4.078   4.699  11.333 -2.2377 -1.3322 -0.6503
 5157TIP3   OH236961   3.847   1.562  12.282 -0.1929  0.1666  0.4469
 5157TIP3    H136962   3.863   1.605  12.198 -2.5943  0.2961 -0.0219
 5157TIP3    H236963   3.766   1.601  12.314 -1.8495 -3.0338  0.5801
 5158TIP3   OH236964   0.181   3.533   0.999  0.0032 -0.6916 -0.3180
 5158TIP3    H136965   0.248   3.467   0.981  0.6662  0.4055 -2.1158
 5158TIP3    H236966   0.143   3.553   0.913  0.3114  1.7513  0.0377
 5159TIP3   OH236967   1.368   6.738   1.070  0.6553  0.1180  0.6853
 5159TIP3    H136968   1.302   6.732   1.001  0.4662 -4.3676  1.0240
 5159TIP3    H236969   1.436   6.794   1.032 -1.1288  0.9380 -1.5528
 5160TIP3   OH236970   5.126   2.670  13.616 -0.1545  0.3165  0.0625
 5160TIP3    H136971   5.087   2.591  13.578  0.5822  0.6386 -1.3931
 5160TIP3    H236972   5.052   2.730  13.626 -0.3728  0.2080 -0.8342
 5161TIP3   OH236973   0.426   3.442   2.865 -0.7245 -0.5574  0.3335
 5161TIP3    H136974   0.463   3.462   2.951  3.1575 -2.2346 -0.7455
 5161TIP3    H236975   0.407   3.348   2.867 -3.1106 -0.1578  0.0867
 5162TIP3   OH236976   3.795   1.566  11.111 -0.3252 -0.4268  0.1944
 5162TIP3    H136977   3.749   1.650  11.118 -0.0486 -0.3915  1.9157
 5162TIP3    H236978   3.878   1.587  11.070  1.5104  0.9477  4.1551
 5163TIP3   OH236979   6.088   6.689   0.758  0.7311 -0.3746 -0.0197
 5163TIP3    H136980   6.082   6.783   0.773 -0.3411 -0.1368 -1.5951
 5163TIP3    H236981   6.128   6.681   0.671 -0.7269 -1.2817 -0.6442
 5164TIP3   OH236982   4.003   4.947  11.093 -0.2933 -0.3427 -0.0729
 5164TIP3    H136983   4.050   4.870  11.126  2.3370  1.3469  0.4206
 5164TIP3    H236984   4.009   4.940  10.998 -0.5193 -0.9828 -0.0464
 5165TIP3   OH236985   5.187   1.496   3.687  0.0610 -0.1642  0.3636
 5165TIP3    H136986   5.217   1.547   3.762  0.5646  0.1957 -0.0715
 5165TIP3    H236987   5.162   1.411   3.723 -1.1425  0.5037  1.1566
 5166TIP3   OH236988   5.468   2.780  13.460 -0.3330  0.0994  0.4615
 5166TIP3    H136989   5.546   2.728  13.478 -1.0068 -1.3594 -0.5542
 5166TIP3    H236990   5.419   2.780  13.542 -0.5699 -1.3835  0.3526
 5167TIP3   OH236991   5.996   2.645  11.786 -0.2670  0.3162 -0.1366
 5167TIP3    H136992   6.021   2.698  11.861  2.1506  1.0481 -1.3451
 5167TIP3    H236993   5.919   2.689  11.750 -0.3490  1.0030  0.8362
 5168TIP3   OH236994   0.222   5.876  11.786  0.2773  0.4626 -0.1529
 5168TIP3    H136995   0.173   5.843  11.710 -0.4561 -0.2616  0.6047
 5168TIP3    H236996   0.313   5.879  11.756  0.2510 -1.3740 -0.5830
 5169TIP3   OH236997   2.384   5.915   2.856  0.2539  0.0135 -0.0297
 5169TIP3    H136998   2.370   5.990   2.914 -2.2736  1.2475 -2.0493
 5169TIP3    H236999   2.306   5.860   2.867  0.4542 -0.5189 -1.0845
 5170TIP3   OH237000   6.558   1.746   6.565  0.1040 -0.0526 -0.1196
 5170TIP3    H137001   6.530   1.657   6.546  0.2000 -0.0621 -0.2209
 5170TIP3    H237002   6.637   1.758   6.512  0.7793 -0.3130  0.7903
 5171TIP3   OH237003   2.397   3.908  11.401 -0.3312  0.2946  0.1928
 5171TIP3    H137004   2.389   3.863  11.317  0.5067  0.6200 -0.0689
 5171TIP3    H237005   2.373   3.998  11.382 -1.6429  0.0661  0.6408
 5172TIP3   OH237006   2.455   5.588   1.965  0.1174  0.2775  0.3415
 5172TIP3    H137007   2.460   5.639   2.046 -1.1458 -1.3280  1.4908
 5172TIP3    H237008   2.396   5.516   1.986  1.5909 -1.5108 -1.2761
 5173TIP3   OH237009   2.716   4.914   4.321  0.3441 -0.2937  0.4194
 5173TIP3    H137010   2.796   4.863   4.330  0.6388  0.2425  0.9228
 5173TIP3    H237011   2.648   4.858   4.358  0.6441 -0.3657  0.8677
 5174TIP3   OH237012   3.239   5.694  15.876 -0.1822  0.4098 -0.9832
 5174TIP3    H137013   3.280   5.736  15.801 -0.3845  2.6594  0.0670
 5174TIP3    H237014   3.172   5.757  15.905  1.6777  0.9725  2.6839
 5175TIP3   OH237015   6.244   1.150  14.596  0.0596  0.0069 -0.4997
 5175TIP3    H137016   6.260   1.175  14.505 -0.1529 -1.1134 -0.8665
 5175TIP3    H237017   6.294   1.069  14.607 -0.8698 -0.5100  0.0222
 5176TIP3   OH237018   4.663   6.159  12.941  0.3999  0.1416 -0.2190
 5176TIP3    H137019   4.690   6.189  13.028  0.3611  0.2106 -0.2314
 5176TIP3    H237020   4.727   6.092  12.918 -0.0957 -0.4947  0.2342
 5177TIP3   OH237021   2.492   5.950  11.228  0.1884  0.1263 -0.1063
 5177TIP3    H137022   2.586   5.930  11.234  0.4065  0.9595 -0.6585
 5177TIP3    H237023   2.488   6.031  11.178 -0.8774 -0.3258 -0.7788
 5178TIP3   OH237024   2.423   5.122   1.838 -0.2970 -0.4658  0.1064
 5178TIP3    H137025   2.519   5.128   1.837 -0.3336  0.0903 -0.5324
 5178TIP3    H237026   2.398   5.153   1.925  0.1108 -0.7779  0.3392
 5179TIP3   OH237027   5.362   1.891   4.529 -0.1856  0.4782 -0.0722
 5179TIP3    H137028   5.266   1.893   4.522 -0.1034  0.0707 -1.8655
 5179TIP3    H237029   5.390   1.977   4.498  0.0682  0.1171 -0.8683
 5180TIP3   OH237030   2.399   5.402   1.697 -0.0367  0.1074  0.3852
 5180TIP3    H137031   2.462   5.465   1.662 -0.5431  0.0032 -0.7306
 5180TIP3    H237032   2.364   5.444   1.775  0.5774  0.6473  0.3805
 5181TIP3   OH237033   0.620   4.764   3.510 -0.0254  0.9422  0.0858
 5181TIP3    H137034   0.572   4.720   3.440  1.6197  0.1087 -0.5893
 5181TIP3    H237035   0.565   4.755   3.587 -0.3701 -1.1446 -0.3511
 5182TIP3   OH237036   0.343   3.164   2.873  0.0117  0.3354 -0.1647
 5182TIP3    H137037   0.292   3.141   2.951  0.8941  1.2144  0.7016
 5182TIP3    H237038   0.376   3.079   2.841 -1.9237 -0.2369 -0.7299
 5183TIP3   OH237039   4.030   1.687   6.016  0.2771 -0.7398  0.0796
 5183TIP3    H137040   4.087   1.713   6.088  2.4868 -0.2322 -1.7487
 5183TIP3    H237041   3.984   1.767   5.990  2.8937  0.2733 -1.9054
 5184TIP3   OH237042   1.447   1.088  15.524 -0.2577  0.3775  0.4772
 5184TIP3    H137043   1.379   1.074  15.458 -0.5506  0.1253  0.8267
 5184TIP3    H237044   1.526   1.108  15.474 -0.4176 -0.0687  0.0445
 5185TIP3   OH237045   4.002   0.994   3.142  0.2540 -0.5686  0.6603
 5185TIP3    H137046   3.963   0.956   3.064 -1.6120  0.2154  1.1431
 5185TIP3    H237047   4.038   1.078   3.113 -1.5843  0.3232  0.8314
 5186TIP3   OH237048   5.867   0.777   2.618  0.1125  0.2081  1.1391
 5186TIP3    H137049   5.775   0.754   2.635 -0.2640  0.2232 -0.6835
 5186TIP3    H237050   5.880   0.859   2.665 -0.9625  0.4533  1.0412
 5187TIP3   OH237051   1.387   3.944   5.353  0.3550  0.1541 -0.2146
 5187TIP3    H137052   1.385   3.978   5.443 -0.2512  0.4956 -0.3493
 5187TIP3    H237053   1.390   3.849   5.364  2.0045  0.2171  0.1683
 5188TIP3   OH237054   1.045   5.248  14.797  0.2161  0.4440  0.2809
 5188TIP3    H137055   1.001   5.165  14.777 -0.5072  0.8783  0.0139
 5188TIP3    H237056   1.007   5.275  14.881  2.0496 -0.5634  1.4818
 5189TIP3   OH237057   0.479   1.319   3.798 -0.2488 -1.1291  0.7924
 5189TIP3    H137058   0.412   1.369   3.752  0.2236  0.2155  1.4820
 5189TIP3    H237059   0.521   1.266   3.731  0.2708  0.6051 -0.3199
 5190TIP3   OH237060   5.758   2.997  16.760 -0.2082 -0.2596 -0.2879
 5190TIP3    H137061   5.706   3.029  16.686  0.2074 -0.6121 -0.7361
 5190TIP3    H237062   5.797   3.075  16.798  1.4314 -0.2746 -1.8489
 5191TIP3   OH237063   3.677   5.149   0.761  0.0576 -0.0980  0.2670
 5191TIP3    H137064   3.583   5.135   0.753 -0.0881  0.8418  0.3158
 5191TIP3    H237065   3.686   5.218   0.827  0.5379  2.9555 -2.7150
 5192TIP3   OH237066   1.805   3.787  13.594  0.5193 -0.6215 -0.0270
 5192TIP3    H137067   1.742   3.831  13.537  1.1485  0.9598  0.4556
 5192TIP3    H237068   1.751   3.746  13.662  0.0261  2.1167  1.3514
 5193TIP3   OH237069   2.097   4.759   4.828 -0.5511  0.0411  0.1328
 5193TIP3    H137070   2.185   4.761   4.866 -0.2141 -1.1349 -0.5381
 5193TIP3    H237071   2.068   4.850   4.831  1.1329  0.6462 -0.6700
 5194TIP3   OH237072   0.857   3.811  16.568  0.6678  0.0508 -0.0941
 5194TIP3    H137073   0.764   3.825  16.551  0.4824 -0.0644  0.7757
 5194TIP3    H237074   0.888   3.897  16.599  0.9998  0.2626 -0.9939
 5195TIP3   OH237075   4.946   2.503  13.163 -0.3892  0.2522 -0.1976
 5195TIP3    H137076   5.018   2.550  13.122 -0.3632 -0.1572 -0.6260
 5195TIP3    H237077   4.869   2.526  13.111 -1.0586  2.5811  1.6370
 5196TIP3   OH237078   5.692   3.643  15.141  0.1418 -0.2092 -0.2944
 5196TIP3    H137079   5.771   3.689  15.113  0.1737  0.9268  1.4825
 5196TIP3    H237080   5.629   3.713  15.161  0.2571 -0.8110  2.6936
 5197TIP3   OH237081   2.773   5.864   2.266 -0.4381  0.3638 -0.1376
 5197TIP3    H137082   2.757   5.902   2.352 -2.4302  1.0386 -0.7527
 5197TIP3    H237083   2.811   5.935   2.214  0.5657  0.0171  0.1021
 5198TIP3   OH237084   4.188   5.330  15.608  0.0901  0.2076 -0.5541
 5198TIP3    H137085   4.280   5.310  15.589 -0.1565 -3.1431  0.9254
 5198TIP3    H237086   4.139   5.265  15.557 -1.2594  0.1937  0.6880
 5199TIP3   OH237087   3.019   0.934   6.480 -0.4408  0.0948 -0.1150
 5199TIP3    H137088   3.043   0.919   6.571  0.6374  1.4767 -0.1333
 5199TIP3    H237089   3.103   0.937   6.434 -0.8239  1.5623 -0.7810
 5200TIP3   OH237090   3.331   1.683  14.298 -0.3108 -0.0788 -0.0567
 5200TIP3    H137091   3.248   1.653  14.260  0.5520 -1.7842 -0.6968
 5200TIP3    H237092   3.305   1.743  14.368 -2.0571 -0.1235 -0.6097
 5201TIP3   OH237093   0.750   1.309   3.881 -0.0871 -0.3213 -0.0311
 5201TIP3    H137094   0.775   1.332   3.791 -2.2198  0.2649 -0.5238
 5201TIP3    H237095   0.656   1.329   3.886 -0.0129 -0.3042  2.3522
 5202TIP3   OH237096   3.587   2.326  15.139 -0.3321 -0.5480  0.7047
 5202TIP3    H137097   3.537   2.301  15.061  0.1419  2.0803 -0.5564
 5202TIP3    H237098   3.602   2.419  15.128  3.9487 -0.9569  1.5427
 5203TIP3   OH237099   0.733   0.070  16.155 -0.0388  0.0636 -0.5687
 5203TIP3    H137100   0.696   0.148  16.114 -0.7074 -1.7001 -3.6271
 5203TIP3    H237101   0.828   0.084  16.152 -0.0900  0.2519 -2.3143
 5204TIP3   OH237102   3.501   4.796   6.451 -0.1888  0.4057 -0.0930
 5204TIP3    H137103   3.568   4.863   6.439 -0.0621  0.2687 -0.1518
 5204TIP3    H237104   3.546   4.725   6.496 -0.2893  0.3030 -0.1530
 5205TIP3   OH237105   6.641   4.432  15.406  0.2561  0.0814 -0.3702
 5205TIP3    H137106   6.558   4.391  15.428  0.1579  0.6192  0.2836
 5205TIP3    H237107   6.651   4.417  15.312 -0.5123 -0.1031 -0.4238
 5206TIP3   OH237108   5.946   3.393  10.987  0.0002 -0.2152  0.0255
 5206TIP3    H137109   5.966   3.343  10.907 -0.6087 -0.7396  0.2012
 5206TIP3    H237110   5.917   3.478  10.954 -0.2220 -0.4191 -0.3193
 5207TIP3   OH237111   5.027   0.873  12.276 -0.1745  0.1028  0.4003
 5207TIP3    H137112   4.943   0.899  12.239  0.8959  2.1785 -0.7329
 5207TIP3    H237113   5.010   0.860  12.369 -2.0658 -1.2039 -0.0594
 5208TIP3   OH237114   1.135   0.899  16.365  0.1977 -0.3242  0.3330
 5208TIP3    H137115   1.177   0.975  16.406  2.0656 -1.5718  0.8716
 5208TIP3    H237116   1.171   0.824  16.413 -0.8100 -1.5997 -0.8547
 5209TIP3   OH237117   0.759   0.139  16.951  0.4058  0.1832  0.5591
 5209TIP3    H137118   0.717   0.061  16.986 -0.7598  1.5961  2.5283
 5209TIP3    H237119   0.687   0.191  16.914  1.0890  0.5772 -0.2722
 5210TIP3   OH237120   5.263   3.383  13.821  0.0244 -0.3986 -0.5460
 5210TIP3    H137121   5.280   3.291  13.841  3.6384 -0.1777 -1.8919
 5210TIP3    H237122   5.255   3.386  13.726 -0.3220  0.6360 -0.4958
 5211TIP3   OH237123   0.520   6.827  14.244 -0.1252  0.0335  0.6317
 5211TIP3    H137124   0.485   6.894  14.185  1.2804 -0.8372 -1.3006
 5211TIP3    H237125   0.446   6.768  14.260 -0.3106 -0.2462 -1.0863
 5212TIP3   OH237126   5.229   0.517  12.013 -0.2912  0.8806 -0.3860
 5212TIP3    H137127   5.238   0.609  12.040 -0.8729  0.6649  0.5953
 5212TIP3    H237128   5.307   0.475  12.048  0.5023  1.1823 -1.7330
 5213TIP3   OH237129   6.200   2.064   0.974  0.1618 -0.2534 -0.1926
 5213TIP3    H137130   6.167   2.114   1.048  3.0179  3.0519 -0.8939
 5213TIP3    H237131   6.286   2.033   1.002  0.9291  0.3310 -1.7352
 5214TIP3   OH237132   0.949   2.140   2.975  0.6385  0.6530  0.2235
 5214TIP3    H137133   1.040   2.121   2.997 -0.0063 -0.7702  1.9127
 5214TIP3    H237134   0.936   2.098   2.890  1.2463 -0.2180  0.5455
 5215TIP3   OH237135   5.250   3.405   5.704 -0.8661  0.3231  0.5053
 5215TIP3    H137136   5.245   3.324   5.653  0.9311  0.4609  0.0499
 5215TIP3    H237137   5.318   3.388   5.770 -0.0333  1.6400  0.0197
 5216TIP3   OH237138   6.088   3.474   1.764  0.1846  0.4682 -0.2098
 5216TIP3    H137139   6.078   3.450   1.672  1.2388  0.3319 -0.2924
 5216TIP3    H237140   6.152   3.412   1.798  1.0238  1.5548  0.2153
 5217TIP3   OH237141   1.545   2.792  12.976  0.1189  0.0415  0.3153
 5217TIP3    H137142   1.601   2.751  13.041 -0.4572 -0.4135  0.5383
 5217TIP3    H237143   1.596   2.865  12.942  0.3756  0.3716  1.3720
 5218TIP3   OH237144   5.113   6.449   5.973 -0.1163  0.0544  0.2098
 5218TIP3    H137145   5.144   6.481   6.058 -1.9210 -2.4429  1.9614
 5218TIP3    H237146   5.185   6.395   5.940 -0.3979 -1.2185  1.5673
 5219TIP3   OH237147   1.234   3.945   5.099  0.9085 -0.0696 -0.0979
 5219TIP3    H137148   1.294   3.945   5.174  1.6561  0.4204 -0.6735
 5219TIP3    H237149   1.162   3.888   5.125  0.2759  1.4280  1.6951
 5220TIP3   OH237150   2.824   3.096   3.453 -0.4748  0.0804  0.2007
 5220TIP3    H137151   2.808   3.020   3.510  0.2442 -0.0716  0.2125
 5220TIP3    H237152   2.823   3.060   3.364  0.1812 -0.0046  0.2242
 5221TIP3   OH237153   3.735   0.696  12.981  0.3085  0.1429 -0.3840
 5221TIP3    H137154   3.774   0.614  13.013  0.0072  0.1152 -0.0824
 5221TIP3    H237155   3.662   0.713  13.041  0.3412  0.6109 -0.4740
 5222TIP3   OH237156   4.903   1.489  16.072  0.5988 -0.5945  0.6486
 5222TIP3    H137157   4.951   1.422  16.121  0.5009 -1.7615 -0.7638
 5222TIP3    H237158   4.872   1.443  15.994  0.0440  0.9842 -0.0968
 5223TIP3   OH237159   6.178   2.083  16.366 -0.3152 -0.3029 -0.4446
 5223TIP3    H137160   6.242   2.013  16.358  1.1071  0.7363  1.0441
 5223TIP3    H237161   6.227   2.163  16.346 -1.2023  0.4876  0.3877
 5224TIP3   OH237162   3.395   1.582  15.821 -0.1218  0.3482  0.8038
 5224TIP3    H137163   3.443   1.570  15.739 -0.8783  0.5574  0.3257
 5224TIP3    H237164   3.423   1.508  15.876 -0.6161 -0.5622 -0.1285
 5225TIP3   OH237165   5.696   5.311   1.762 -0.0035  0.7804  0.7737
 5225TIP3    H137166   5.622   5.341   1.709 -0.1143  0.3797  0.7025
 5225TIP3    H237167   5.771   5.360   1.728  0.4683 -1.4322 -1.6182
 5226TIP3   OH237168   4.689   0.000  11.949  0.2401 -0.5653 -0.6225
 5226TIP3    H137169   4.600   0.008  11.914  0.0166 -1.3670 -0.2470
 5226TIP3    H237170   4.746   0.010  11.872 -0.0134  2.7083 -0.5371
 5227TIP3   OH237171   4.793   5.043  16.241  0.3934  0.1281  0.4066
 5227TIP3    H137172   4.800   4.949  16.261  1.3796 -0.1303 -1.0117
 5227TIP3    H237173   4.768   5.083  16.324 -1.5941 -1.5554  0.7093
 5228TIP3   OH237174   4.292   2.964  11.636  0.0259 -0.3629 -0.2256
 5228TIP3    H137175   4.333   2.953  11.722  0.7925  1.0461 -0.3983
 5228TIP3    H237176   4.221   3.026  11.651  1.2607  1.2802 -0.9094
 5229TIP3   OH237177   6.106   6.018  13.215  0.3600 -0.3337 -0.0158
 5229TIP3    H137178   6.036   5.952  13.219  0.5206 -0.4522  1.4521
 5229TIP3    H237179   6.063   6.096  13.181 -0.3240 -0.6147  0.1849
 5230TIP3   OH237180   5.396   2.035  13.823 -0.5478 -0.1720 -0.4146
 5230TIP3    H137181   5.354   2.095  13.761 -2.3038  0.3828  1.2013
 5230TIP3    H237182   5.464   2.088  13.865 -1.7956  0.6192  0.6849
 5231TIP3   OH237183   1.816   4.454  14.096 -0.6401 -0.3635 -0.4641
 5231TIP3    H137184   1.785   4.509  14.024  1.5201  1.3319 -0.2186
 5231TIP3    H237185   1.736   4.425  14.141 -1.9084  1.9053 -1.1131
 5232TIP3   OH237186   1.708   5.263  14.255  0.1029 -0.0211 -0.8898
 5232TIP3    H137187   1.673   5.198  14.316  2.0866 -2.0418 -1.7377
 5232TIP3    H237188   1.653   5.255  14.177 -2.2195  2.3220  0.3611
 5233TIP3   OH237189   4.298   5.143   1.064 -0.3024  0.1865  0.0363
 5233TIP3    H137190   4.228   5.207   1.073 -0.0090  0.4115  0.7678
 5233TIP3    H237191   4.345   5.169   0.984  0.0689  1.1396  0.5455
 5234TIP3   OH237192   5.893   1.324  11.645 -0.1093  0.4488 -0.7348
 5234TIP3    H137193   5.799   1.341  11.651 -0.1439  1.0240 -2.4537
 5234TIP3    H237194   5.903   1.277  11.562  0.9906 -0.6997  0.0147
 5235TIP3   OH237195   6.745   1.149  13.325 -0.2536  0.4745 -0.4190
 5235TIP3    H137196   6.744   1.198  13.406 -0.9927  1.4437 -0.9928
 5235TIP3    H237197   6.655   1.156  13.291 -0.3162 -1.0391 -0.6590
 5236TIP3   OH237198   3.922   3.953   4.611  0.2146  0.3711 -0.3644
 5236TIP3    H137199   3.849   4.014   4.617 -0.2196 -0.1704 -0.0452
 5236TIP3    H237200   3.911   3.894   4.686 -0.0397 -0.8038 -1.2812
 5237TIP3   OH237201   0.407   5.938   3.455  0.1098  0.2446 -0.2485
 5237TIP3    H137202   0.433   5.881   3.383  0.2842 -1.4626  1.1158
 5237TIP3    H237203   0.335   5.891   3.498 -0.1261  1.3183  0.5710
 5238TIP3   OH237204   1.601   5.206   5.325  0.2274  0.0628 -0.3069
 5238TIP3    H137205   1.682   5.221   5.375  1.0670  1.0266 -1.8549
 5238TIP3    H237206   1.631   5.192   5.235 -1.3410  1.0538 -1.0307
 5239TIP3   OH237207   1.298   4.152   2.646  0.4771  0.2695 -0.0475
 5239TIP3    H137208   1.239   4.166   2.719 -0.3905  0.1143 -0.6983
 5239TIP3    H237209   1.296   4.057   2.631 -0.4224  0.4297 -1.1080
 5240TIP3   OH237210   5.211   1.505  14.635 -0.2087 -0.1781  0.7632
 5240TIP3    H137211   5.248   1.584  14.596  1.5364 -1.1513  0.3223
 5240TIP3    H237212   5.179   1.533  14.720  1.9594  0.7038  1.3577
 5241TIP3   OH237213   0.554   3.260   3.752 -0.3164 -0.3671 -0.3263
 5241TIP3    H137214   0.532   3.215   3.671  1.0487  0.3664 -1.1401
 5241TIP3    H237215   0.486   3.327   3.762 -1.8214 -1.9300  0.4052
 5242TIP3   OH237216   3.170   3.187  11.339  0.4560  0.0733  0.1369
 5242TIP3    H137217   3.262   3.206  11.358 -0.0068  0.9676  1.6786
 5242TIP3    H237218   3.123   3.211  11.420 -1.1267 -0.3737 -0.6048
 5243TIP3   OH237219   5.209   2.560   5.375  0.3007  0.9274  0.1784
 5243TIP3    H137220   5.244   2.563   5.464  0.6140 -0.1515  0.1060
 5243TIP3    H237221   5.153   2.637   5.369 -1.5199 -0.1361  2.0800
 5244TIP3   OH237222   6.090   5.413   4.574 -0.0219 -0.1746  0.0610
 5244TIP3    H137223   6.021   5.423   4.640  0.4175  2.7539  0.2263
 5244TIP3    H237224   6.147   5.489   4.588  1.3583 -0.7104 -2.2237
 5245TIP3   OH237225   0.221   6.523  13.795 -0.4318  0.3961  0.0215
 5245TIP3    H137226   0.209   6.608  13.753  1.3029 -0.1085 -1.6688
 5245TIP3    H237227   0.175   6.461  13.738  2.5760 -0.4006 -1.8232
 5246TIP3   OH237228   3.322   4.060  15.387  1.2428  0.0190  0.4330
 5246TIP3    H137229   3.249   4.028  15.335  0.2882  0.4862  1.4459
 5246TIP3    H237230   3.390   4.080  15.323 -0.8200  3.2446 -1.0293
 5247TIP3   OH237231   3.078   5.564  15.650 -0.3111  0.5226  0.0370
 5247TIP3    H137232   3.054   5.650  15.684  0.2045  0.3117  0.9562
 5247TIP3    H237233   3.171   5.570  15.629 -0.2404  0.1484  0.2310
 5248TIP3   OH237234   2.992   1.079   3.146  0.2410  0.3724 -0.3936
 5248TIP3    H137235   3.085   1.098   3.131  0.1553  1.0117 -0.1720
 5248TIP3    H237236   2.960   1.045   3.063  0.5623  0.6088 -0.6155
 5249TIP3   OH237237   5.161   5.583   3.624 -0.2622  0.0538  0.0495
 5249TIP3    H137238   5.161   5.494   3.659  1.1823  0.1634  0.4150
 5249TIP3    H237239   5.233   5.584   3.561 -0.4435  0.8929 -0.1632
 5250TIP3   OH237240   6.702   3.330   1.817  0.0056  0.0513  0.1500
 5250TIP3    H137241   6.721   3.412   1.863  0.5458 -0.1225  0.2520
 5250TIP3    H237242   6.655   3.356   1.738  2.2807  0.7038 -1.0783
 5251TIP3   OH237243   3.541   1.869   1.956  0.1318 -0.0676 -0.3286
 5251TIP3    H137244   3.545   1.879   1.861  1.4682  0.1233 -0.2822
 5251TIP3    H237245   3.621   1.820   1.977  0.6581  1.2460  0.8389
 5252TIP3   OH237246   1.967   6.103   0.303  0.4995 -0.0551  0.9054
 5252TIP3    H137247   2.019   6.181   0.326 -1.9853  1.4728  1.7380
 5252TIP3    H237248   1.876   6.131   0.313 -0.5764 -2.3089 -1.4229
 5253TIP3   OH237249   1.758   5.927   3.061 -0.0706 -0.1617  0.3840
 5253TIP3    H137250   1.698   5.933   2.987 -0.1473 -0.4203  0.4234
 5253TIP3    H237251   1.845   5.919   3.021  0.1031  1.6708  0.3280
 5254TIP3   OH237252   5.897   5.101  12.115 -0.3162  0.5168  0.1816
 5254TIP3    H137253   5.929   5.119  12.026  0.3526  1.2472  0.5607
 5254TIP3    H237254   5.976   5.103  12.169 -0.6669 -0.3385  0.7408
 5255TIP3   OH237255   2.895   4.834   5.842 -0.3352 -0.0776 -0.0863
 5255TIP3    H137256   2.983   4.836   5.805 -0.7733 -0.4527 -1.1815
 5255TIP3    H237257   2.863   4.924   5.833 -0.6194 -0.2701 -1.0958
 5256TIP3   OH237258   6.785   0.992  15.178  0.0913  0.2426  0.0149
 5256TIP3    H137259   6.727   0.916  15.179  0.6618 -0.2020  0.4206
 5256TIP3    H237260   6.740   1.056  15.124  0.6905 -1.2532 -2.4337
 5257TIP3   OH237261   3.716   4.210   0.160  0.2472  0.4877  0.1730
 5257TIP3    H137262   3.735   4.266   0.084  1.2936  0.4097  0.3631
 5257TIP3    H237263   3.791   4.151   0.165  0.7924  1.2668  1.9759
 5258TIP3   OH237264   1.506   3.017  14.199  0.6734 -0.2671 -0.3339
 5258TIP3    H137265   1.590   2.972  14.200 -0.0077 -1.6302 -1.1409
 5258TIP3    H237266   1.479   3.021  14.291  0.8170 -1.4149 -0.2305
 5259TIP3   OH237267   5.380   1.183  12.252  0.5039  0.2134  0.2660
 5259TIP3    H137268   5.345   1.151  12.169  1.3773  1.5259 -0.6512
 5259TIP3    H237269   5.317   1.155  12.318 -0.3104 -0.6736 -0.8648
 5260TIP3   OH237270   6.315   6.481   4.191  0.1010 -0.5615  0.2593
 5260TIP3    H137271   6.234   6.453   4.234 -0.6171  0.0305 -0.6522
 5260TIP3    H237272   6.314   6.435   4.107  0.2842  0.0770 -0.1008
 5261TIP3   OH237273   5.135   0.711  12.981  0.5595  0.2949 -0.5053
 5261TIP3    H137274   5.199   0.778  13.006  0.2567  0.9601 -1.4179
 5261TIP3    H237275   5.185   0.648  12.929  0.8076 -0.0889  0.1931
 5262TIP3   OH237276   1.989   1.520   0.587 -0.6013  0.3278 -0.3542
 5262TIP3    H137277   1.930   1.486   0.520 -1.1134 -0.5730  0.5084
 5262TIP3    H237278   1.971   1.465   0.664  1.1419  0.2377  0.0278
 5263TIP3   OH237279   4.068   0.039  14.481 -0.1830 -0.3966 -0.6358
 5263TIP3    H137280   4.097  -0.023  14.414  0.5976 -0.4474 -0.2527
 5263TIP3    H237281   4.099   0.124  14.450  1.2359 -0.5720  0.2432
 5264TIP3   OH237282   6.086   4.052  11.698 -0.4631 -0.3633  0.7404
 5264TIP3    H137283   6.070   4.124  11.759  1.0417 -1.0783  2.0624
 5264TIP3    H237284   6.178   4.063  11.672 -0.5959 -1.0665 -0.0856
 5265TIP3   OH237285   1.737   5.574   1.763  0.0927  0.1216  0.5162
 5265TIP3    H137286   1.688   5.656   1.753 -1.8447 -1.2399 -3.2948
 5265TIP3    H237287   1.694   5.529   1.836 -0.7111  1.2761  0.7863
 5266TIP3   OH237288   0.506   1.803   5.371  0.3208 -0.0644 -0.0922
 5266TIP3    H137289   0.464   1.750   5.439  2.7163 -0.7773  0.9408
 5266TIP3    H237290   0.595   1.768   5.365  1.0289  1.8258 -1.6319
 5267TIP3   OH237291   3.991   0.895  12.135  0.1107  0.2299 -0.2021
 5267TIP3    H137292   3.989   0.799  12.132 -1.2637  0.2012  0.6739
 5267TIP3    H237293   3.973   0.916  12.227  2.1300  1.3199 -0.0003
 5268TIP3   OH237294   5.059   4.863   2.850 -0.0689 -0.5946 -0.2808
 5268TIP3    H137295   5.121   4.876   2.923 -0.0838  0.0010 -0.3734
 5268TIP3    H237296   5.081   4.776   2.816  0.2681 -0.6713  0.1187
 5269TIP3   OH237297   6.395   3.524   0.747 -0.4509  0.1876  0.4930
 5269TIP3    H137298   6.426   3.582   0.678 -0.0062 -0.3785  0.2051
 5269TIP3    H237299   6.390   3.438   0.705 -0.5427 -0.0909  1.0656
 5270TIP3   OH237300   2.174   6.564   2.765  0.4680  0.4665 -0.0222
 5270TIP3    H137301   2.140   6.549   2.677  0.1835 -1.8259  0.4224
 5270TIP3    H237302   2.268   6.573   2.753  0.2273  2.6270 -0.7779
 5271TIP3   OH237303   5.415   0.685  14.966 -0.1395  0.3380  0.0694
 5271TIP3    H137304   5.426   0.772  14.928 -1.1851  0.8081  0.8154
 5271TIP3    H237305   5.456   0.626  14.903  0.3000  1.3371 -0.5954
 5272TIP3   OH237306   0.270   6.449  14.463 -0.0203  0.5590 -0.8243
 5272TIP3    H137307   0.174   6.452  14.458 -0.1662  0.3865  1.0713
 5272TIP3    H237308   0.297   6.541  14.469 -0.2190  0.5465  0.4417
 5273TIP3   OH237309   5.883   2.887  12.243  0.0003  0.4128  0.3177
 5273TIP3    H137310   5.894   2.891  12.338  1.3212  0.8510  0.1735
 5273TIP3    H237311   5.881   2.979  12.216 -0.2126  0.2872 -0.0925
 5274TIP3   OH237312   0.851   5.655   4.977  0.3358  0.5238 -0.0685
 5274TIP3    H137313   0.791   5.672   5.050 -0.4571  0.4445 -0.6877
 5274TIP3    H237314   0.867   5.741   4.939  1.5724  0.7028  0.8151
 5275TIP3   OH237315   0.621   0.965   6.527  0.2281 -0.5445  0.2114
 5275TIP3    H137316   0.552   1.000   6.471 -0.2555 -1.7109  0.0367
 5275TIP3    H237317   0.698   1.018   6.508 -0.9598  1.8096  1.5087
 5276TIP3   OH237318   1.512   0.227   1.927  0.0799  0.0509 -0.6290
 5276TIP3    H137319   1.446   0.207   1.994 -0.9835  2.4217 -0.8491
 5276TIP3    H237320   1.524   0.322   1.934  2.7404 -0.1735 -1.3130
 5277TIP3   OH237321   2.109   1.584  11.335  0.2396 -0.0939  0.0050
 5277TIP3    H137322   2.139   1.503  11.376  2.2945  0.8757  0.5292
 5277TIP3    H237323   2.129   1.572  11.242  0.8462 -0.0780  0.1268
 5278TIP3   OH237324   5.982   1.638  15.687 -0.1904 -0.1685 -0.0275
 5278TIP3    H137325   5.937   1.561  15.654 -0.2924 -0.0908 -0.0706
 5278TIP3    H237326   5.986   1.625  15.782  0.7005 -0.7151 -0.1228
 5279TIP3   OH237327   4.163   2.626  13.863 -0.0787  0.3454 -0.9602
 5279TIP3    H137328   4.258   2.615  13.867 -0.2100 -0.6466  0.0190
 5279TIP3    H237329   4.148   2.718  13.881  0.6730  0.3969 -0.5786
 5280TIP3   OH237330   2.651   0.973  12.219 -0.0848 -0.0163  0.0004
 5280TIP3    H137331   2.673   1.055  12.264  0.1245  0.0295 -0.1860
 5280TIP3    H237332   2.600   0.924  12.283  0.2906  0.0115  0.3245
 5281TIP3   OH237333   5.406   1.072  10.746 -0.9574  0.0796 -0.5697
 5281TIP3    H137334   5.498   1.088  10.727 -0.9898  0.2871 -0.5479
 5281TIP3    H237335   5.358   1.123  10.681 -1.0687  0.8817  0.1302
 5282TIP3   OH237336   5.447   1.042  16.478 -0.4378  0.1772 -0.1026
 5282TIP3    H137337   5.366   1.000  16.449 -0.6712 -0.8529  1.8753
 5282TIP3    H237338   5.419   1.117  16.530 -0.0513  1.1456 -1.2401
 5283TIP3   OH237339   5.347   1.808   6.161  0.3720  0.8755  0.1642
 5283TIP3    H137340   5.341   1.874   6.230 -0.8989  0.5016  0.4299
 5283TIP3    H237341   5.363   1.726   6.208 -1.5677  0.4428  0.1299
 5284TIP3   OH237342   1.166   5.958   3.946 -0.3901 -0.0533  0.0713
 5284TIP3    H137343   1.245   6.009   3.960  2.4189 -3.4287 -2.0257
 5284TIP3    H237344   1.167   5.935   3.853 -4.8450  1.0741 -0.5259
 5285TIP3   OH237345   0.568   1.868   2.092 -0.0032  0.3712  0.4824
 5285TIP3    H137346   0.509   1.861   2.018  0.3306 -0.2844  0.2672
 5285TIP3    H237347   0.522   1.923   2.155 -0.5489  0.4212  0.0414
 5286TIP3   OH237348   5.434   1.995  12.560 -0.0142 -0.2148 -0.2116
 5286TIP3    H137349   5.489   2.073  12.551 -0.0789  0.1704  2.1915
 5286TIP3    H237350   5.482   1.937  12.618 -0.1109 -1.9041 -1.7265
 5287TIP3   OH237351   6.839   6.168  13.466 -0.1715 -0.2021 -0.0892
 5287TIP3    H137352   6.799   6.154  13.380 -0.5704 -0.7741  0.1831
 5287TIP3    H237353   6.825   6.085  13.512  0.7156 -0.1710  0.2576
 5288TIP3   OH237354   5.302   1.973  16.134  0.1942  0.4122  0.5168
 5288TIP3    H137355   5.296   1.889  16.180 -0.6691  0.7740  1.0928
 5288TIP3    H237356   5.334   2.034  16.200  1.2648  0.4608 -0.0212
 5289TIP3   OH237357   2.319   1.323   4.705  0.3691 -0.1708 -0.0868
 5289TIP3    H137358   2.341   1.402   4.657 -0.3763 -0.3539 -0.7511
 5289TIP3    H237359   2.285   1.355   4.789 -1.4743  0.3178 -0.9643
 5290TIP3   OH237360   2.087   2.842  12.546  0.0032 -0.0211  0.7134
 5290TIP3    H137361   2.048   2.918  12.589 -0.5341 -0.8118  1.6514
 5290TIP3    H237362   2.026   2.821  12.475  0.3010  0.5799  0.2629
 5291TIP3   OH237363   3.700   6.769  14.336 -0.3955 -0.2381 -0.3645
 5291TIP3    H137364   3.761   6.738  14.269 -0.5920 -0.7395 -0.3085
 5291TIP3    H237365   3.686   6.694  14.392 -0.4358  0.1085  0.0945
 5292TIP3   OH237366   2.446   5.085  13.413  0.1423 -0.1100  0.1919
 5292TIP3    H137367   2.405   5.081  13.499 -0.0204  0.1925  0.1311
 5292TIP3    H237368   2.412   5.009  13.366 -0.1013 -0.0349  0.2492
 5293TIP3   OH237369   0.008   1.290  16.454  0.5610  0.0318  0.5498
 5293TIP3    H137370  -0.035   1.227  16.395  2.4183 -1.7421  0.9906
 5293TIP3    H237371   0.046   1.355  16.395  0.1988 -0.2907 -0.0562
 5294TIP3   OH237372   5.183   0.312  15.864 -0.4519 -0.3389  0.3603
 5294TIP3    H137373   5.144   0.227  15.847 -0.0594 -0.3861 -0.3502
 5294TIP3    H237374   5.110   0.374  15.857 -1.1547 -0.7768  2.8600
 5295TIP3   OH237375   2.531   2.356   3.339  0.5519 -0.4213 -0.0723
 5295TIP3    H137376   2.508   2.433   3.391  3.4187 -0.0477  0.8090
 5295TIP3    H237377   2.477   2.286   3.376  1.0417  0.2638  2.1425
 5296TIP3   OH237378   3.321   2.352  13.763 -0.0933  0.4900 -0.2532
 5296TIP3    H137379   3.349   2.398  13.683 -0.3136 -2.1255 -1.9775
 5296TIP3    H237380   3.383   2.279  13.770 -1.4769 -0.6302  0.6726
 5297TIP3   OH237381   1.659   3.136   3.621  0.2318 -0.1700  0.3631
 5297TIP3    H137382   1.741   3.087   3.615  0.4492 -0.3677  3.2067
 5297TIP3    H237383   1.686   3.228   3.628  0.1804 -0.1629  0.4781
 5298TIP3   OH237384   2.646   0.035  14.939  0.2255  0.2840  0.2291
 5298TIP3    H137385   2.583  -0.034  14.920 -1.0848  2.2349 -3.4018
 5298TIP3    H237386   2.595   0.104  14.981  0.6392  0.6515  0.1327
 5299TIP3   OH237387   3.128   4.396  12.349  0.3095  0.2324 -0.1183
 5299TIP3    H137388   3.164   4.312  12.322 -0.4902  0.0811 -0.7417
 5299TIP3    H237389   3.037   4.395  12.318 -0.2124  0.6476  1.3276
 5300TIP3   OH237390   6.708   4.761   0.843 -0.3230  0.0933 -0.1518
 5300TIP3    H137391   6.658   4.701   0.898  0.6195  0.7046  1.4366
 5300TIP3    H237392   6.791   4.715   0.829 -0.6959 -0.2277 -1.4375
 5301TIP3   OH237393   6.847   1.903   0.514  0.1898 -0.2820  0.2948
 5301TIP3    H137394   6.774   1.882   0.455 -0.2122  0.1366  0.6429
 5301TIP3    H237395   6.818   1.980   0.562  2.0027  1.7162 -1.6010
 5302TIP3   OH237396   1.484   1.260  12.153  0.0641 -0.0750  0.1020
 5302TIP3    H137397   1.457   1.351  12.141 -1.1181 -0.7062 -2.8296
 5302TIP3    H237398   1.406   1.217  12.190  0.4868 -0.0024  1.1032
 5303TIP3   OH237399   4.001   2.847   2.435 -0.3222 -0.0349  0.1573
 5303TIP3    H137400   3.943   2.771   2.428 -0.8008  0.3857 -0.5503
 5303TIP3    H237401   4.089   2.810   2.437 -0.4654 -0.5618 -1.6710
 5304TIP3   OH237402   6.437   1.443   2.790  0.1753  0.0268  0.2665
 5304TIP3    H137403   6.516   1.434   2.737 -0.7310  1.9163 -1.5316
 5304TIP3    H237404   6.463   1.499   2.863  0.9474 -0.9869  0.8000
 5305TIP3   OH237405   6.639   1.727   4.495 -0.4211  0.0655  0.2691
 5305TIP3    H137406   6.588   1.740   4.415 -0.4626 -0.5587  0.1942
 5305TIP3    H237407   6.608   1.796   4.554 -1.4260 -0.3644  0.2618
 5306TIP3   OH237408   6.224   2.468  14.592  0.4041 -0.0559  0.0662
 5306TIP3    H137409   6.266   2.546  14.557  0.4359  0.3430  0.9680
 5306TIP3    H237410   6.297   2.406  14.605  0.5488  0.1877  0.4467
 5307TIP3   OH237411   3.234   6.199  13.773  0.1857 -0.1572 -0.1589
 5307TIP3    H137412   3.177   6.131  13.738  1.0934  0.1170 -2.3495
 5307TIP3    H237413   3.244   6.178  13.866 -0.8201 -2.0729 -0.4504
 5308TIP3   OH237414   2.794   2.518  11.977  0.3893  0.6101 -0.6150
 5308TIP3    H137415   2.705   2.485  11.965  0.1364 -0.2640  2.6823
 5308TIP3    H237416   2.850   2.456  11.930 -0.6110  0.2376 -1.3564
 5309TIP3   OH237417   1.013   4.450  14.862  0.6410  0.5700  0.0268
 5309TIP3    H137418   1.023   4.497  14.779  1.4360  0.6812  0.1830
 5309TIP3    H237419   1.061   4.503  14.925 -0.3484  0.7295  0.6614
 5310TIP3   OH237420   6.681   0.725  11.599 -0.4213 -0.1650  0.3950
 5310TIP3    H137421   6.747   0.737  11.667 -0.2076  0.7129  0.0496
 5310TIP3    H237422   6.634   0.809  11.598 -0.0817  0.0244 -0.8815
 5311TIP3   OH237423   4.422   3.236   4.907 -0.0465  0.2461 -0.7770
 5311TIP3    H137424   4.423   3.330   4.887  0.4634  0.0877 -1.5005
 5311TIP3    H237425   4.493   3.225   4.970  0.2816  0.2427 -1.1485
 5312TIP3   OH237426   2.428   5.986   2.602  0.1233 -0.0605  0.1298
 5312TIP3    H137427   2.445   5.933   2.680  2.4324 -2.2733 -1.6967
 5312TIP3    H237428   2.407   5.923   2.533  0.8520  1.5381 -1.6744
 5313TIP3   OH237429   5.181   1.511   2.203  0.5690 -0.1772 -0.5355
 5313TIP3    H137430   5.259   1.489   2.253  0.2784  0.0975  0.0439
 5313TIP3    H237431   5.112   1.521   2.269  0.7005  2.6262 -0.7211
 5314TIP3   OH237432   2.640   6.097  12.233 -0.2058  0.3557 -0.0592
 5314TIP3    H137433   2.586   6.175  12.239  0.3041  0.7620 -0.6448
 5314TIP3    H237434   2.719   6.125  12.186 -0.0715 -0.5296 -0.3936
 5315TIP3   OH237435   4.133   5.499   6.041 -0.3250 -0.4528 -0.4025
 5315TIP3    H137436   4.190   5.574   6.055 -0.0917 -0.6783 -0.1056
 5315TIP3    H237437   4.177   5.447   5.974  0.4427 -1.2291  0.6679
 5316TIP3   OH237438   0.998   6.223   6.326  0.7595  0.7607 -0.0514
 5316TIP3    H137439   1.011   6.173   6.406  0.8272  1.6119  0.4884
 5316TIP3    H237440   0.984   6.313   6.357  0.1421  0.9826 -0.9641
 5317TIP3   OH237441   5.833   6.543   0.229  0.2495 -0.0630 -0.7084
 5317TIP3    H137442   5.804   6.574   0.143 -0.0194 -0.8937 -0.9262
 5317TIP3    H237443   5.899   6.606   0.256  0.8613 -0.1765 -1.8566
 5318TIP3   OH237444   5.543   2.749  15.516 -0.7289 -0.1702 -0.1808
 5318TIP3    H137445   5.494   2.816  15.563  0.5924  0.9111 -0.2934
 5318TIP3    H237446   5.594   2.798  15.452  0.5346 -1.2500 -0.0270
 5319TIP3   OH237447   5.971   0.047  14.809  0.3082  0.0393 -0.0024
 5319TIP3    H137448   5.926  -0.010  14.871  0.3468 -0.3093 -0.2901
 5319TIP3    H237449   6.012  -0.013  14.746  2.1368  0.2700  0.8848
 5320TIP3   OH237450   5.048   3.243   2.063  0.4824  0.0992  0.6496
 5320TIP3    H137451   5.085   3.184   1.998  0.4651 -0.6904  1.3470
 5320TIP3    H237452   5.013   3.186   2.131 -1.3302  0.8245  0.4010
 5321TIP3   OH237453   3.991   2.668   1.669 -0.0044 -0.3955  0.1567
 5321TIP3    H137454   4.010   2.598   1.608  0.4773 -0.0252 -0.1282
 5321TIP3    H237455   3.897   2.683   1.661  0.3709  1.1991 -2.2000
 5322TIP3   OH237456   1.626   5.428   0.039 -0.0467 -0.3259  0.0916
 5322TIP3    H137457   1.655   5.440  -0.052  0.8969 -0.6939  0.3402
 5322TIP3    H237458   1.676   5.492   0.089 -1.9924  1.2786  0.1237
 5323TIP3   OH237459   0.171   2.755   3.122  0.4466 -0.1081 -0.0732
 5323TIP3    H137460   0.257   2.796   3.127  0.8725 -0.8134 -1.1723
 5323TIP3    H237461   0.139   2.779   3.034 -1.2217  1.5350  0.8987
 5324TIP3   OH237462   1.299   3.788   4.882  0.2544  0.1196 -0.2211
 5324TIP3    H137463   1.217   3.764   4.838 -0.1603  1.0481  0.0261
 5324TIP3    H237464   1.273   3.848   4.952  1.3324  2.3611 -1.6048
 5325TIP3   OH237465   0.470   2.889   0.090 -1.1325  0.0005 -0.5060
 5325TIP3    H137466   0.477   2.838   0.171 -1.7147  0.1332 -0.3636
 5325TIP3    H237467   0.403   2.843   0.039 -1.0585  0.1486 -0.7399
 5326TIP3   OH237468   3.964   3.460  10.533 -0.4616  0.6263 -0.2488
 5326TIP3    H137469   3.972   3.543  10.579 -0.4991  0.2838  0.3792
 5326TIP3    H237470   4.049   3.447  10.492  0.5240 -0.3765  1.9540
 5327TIP3   OH237471   5.817   6.472  16.624 -0.2922 -0.2262  0.2146
 5327TIP3    H137472   5.872   6.550  16.611  0.4712 -0.9311 -0.9541
 5327TIP3    H237473   5.787   6.449  16.536 -0.5298 -1.2412  0.5483
 5328TIP3   OH237474   6.719   4.178   1.817  0.4916 -0.3800  0.1617
 5328TIP3    H137475   6.796   4.229   1.840 -0.0515  0.0013  1.1752
 5328TIP3    H237476   6.730   4.095   1.862  0.1267 -0.1819  0.6167
 5329TIP3   OH237477   0.872   0.410   4.928  0.2816  0.3857  0.2150
 5329TIP3    H137478   0.915   0.338   4.974 -1.2205 -1.0659 -0.5063
 5329TIP3    H237479   0.840   0.468   4.997 -0.3014 -0.7553  0.9323
 5330TIP3   OH237480   3.299   6.237  10.650 -0.9026 -0.0497 -0.5437
 5330TIP3    H137481   3.278   6.325  10.681 -2.1417 -0.6323  0.3791
 5330TIP3    H237482   3.252   6.179  10.710  3.7766 -1.6347  2.1364
 5331TIP3   OH237483   3.010   0.590  11.236 -0.0158 -0.3848 -0.7174
 5331TIP3    H137484   3.077   0.521  11.235 -0.1661 -0.5344 -1.5540
 5331TIP3    H237485   3.055   0.667  11.271 -0.0302 -1.0704  0.8845
 5332TIP3   OH237486   6.368   6.171   2.055 -0.2290 -0.2747  0.6796
 5332TIP3    H137487   6.433   6.137   1.994  1.3735  1.1788  1.5317
 5332TIP3    H237488   6.322   6.239   2.006 -0.2454 -0.4241  0.4862
 5333TIP3   OH237489   5.009   5.509  11.418  0.7183  0.0221  0.0989
 5333TIP3    H137490   4.981   5.460  11.496  1.3313 -0.5837 -0.0556
 5333TIP3    H237491   5.012   5.600  11.447  1.3175 -0.2377  0.9018
 5334TIP3   OH237492   3.021   3.972   3.328 -0.2775 -0.2636  0.2888
 5334TIP3    H137493   2.967   4.024   3.269 -2.0844 -1.2521  0.9872
 5334TIP3    H237494   2.966   3.897   3.351  1.3186 -1.2069  1.2429
 5335TIP3   OH237495   6.245   4.223  12.311  0.1939 -0.2563 -0.1982
 5335TIP3    H137496   6.226   4.176  12.393  1.8200  0.6313  0.7419
 5335TIP3    H237497   6.159   4.252  12.280 -0.5326 -1.2146  0.7994
 5336TIP3   OH237498   0.749   3.129  13.451  0.0613  0.1125  0.7537
 5336TIP3    H137499   0.689   3.116  13.524 -1.1641  2.4053  0.2821
 5336TIP3    H237500   0.694   3.165  13.381  1.5101 -0.3300 -0.6837
 5337TIP3   OH237501   0.023   0.770  11.400  0.1455  0.0336  0.3991
 5337TIP3    H137502  -0.059   0.766  11.450  0.5873 -1.7608  1.0800
 5337TIP3    H237503   0.088   0.802  11.463  0.1512  0.5200  0.1446
 5338TIP3   OH237504   1.800   4.433   4.562  0.4792 -0.3442  0.4527
 5338TIP3    H137505   1.781   4.515   4.607  0.2979 -0.8166  1.2464
 5338TIP3    H237506   1.885   4.405   4.596  1.0092  0.0059 -0.5444
 5339TIP3   OH237507   1.949   5.880  16.457 -0.2881 -0.1038 -0.5248
 5339TIP3    H137508   1.948   5.897  16.551 -0.1426 -1.0855 -0.3311
 5339TIP3    H237509   2.005   5.949  16.421 -0.5997  0.4652  0.0672
 5340TIP3   OH237510   5.731   1.005  12.545  0.0018  0.3525  0.2138
 5340TIP3    H137511   5.809   1.060  12.537  1.0746 -0.8255  1.9786
 5340TIP3    H237512   5.696   1.001  12.456  1.6895  1.2695 -0.5456
 5341TIP3   OH237513   5.777   0.931  12.030 -0.3860 -0.0172  0.7596
 5341TIP3    H137514   5.796   1.017  12.066  0.4694  0.0487  0.1829
 5341TIP3    H237515   5.751   0.947  11.940  1.0490 -0.4417  0.2442
 5342TIP3   OH237516   6.324   6.595  11.939  0.3364  0.7069 -0.2831
 5342TIP3    H137517   6.367   6.610  12.023  0.0535  0.0270 -0.0055
 5342TIP3    H237518   6.395   6.569  11.880  0.3951  0.1848  0.0136
 5343TIP3   OH237519   6.003   0.208  15.364 -0.9498  0.0189  0.4083
 5343TIP3    H137520   5.954   0.255  15.431 -0.2534  1.7562 -0.2361
 5343TIP3    H237521   5.978   0.251  15.282 -0.0798 -0.5589 -0.1791
 5344TIP3   OH237522   1.308   6.301  14.963 -0.1113  0.6094  0.5569
 5344TIP3    H137523   1.227   6.345  14.940  1.0562  2.6857  0.1666
 5344TIP3    H237524   1.367   6.319  14.889  1.3591  1.0162  1.7674
 5345TIP3   OH237525   1.728   0.690   3.313 -0.4797  0.0325  0.5850
 5345TIP3    H137526   1.804   0.663   3.261 -0.2810  1.4213  0.0892
 5345TIP3    H237527   1.756   0.772   3.353 -0.5877 -1.0531  3.0184
 5346TIP3   OH237528   2.181   4.233   3.216  0.0432  0.1511  0.4694
 5346TIP3    H137529   2.262   4.220   3.167 -0.2256 -0.1544  0.0948
 5346TIP3    H237530   2.128   4.291   3.162 -0.2508 -0.1756  0.4014
 5347TIP3   OH237531   3.822   4.962   5.639 -0.5276  0.3176 -0.0133
 5347TIP3    H137532   3.907   4.930   5.669  0.6976  0.8149 -2.6278
 5347TIP3    H237533   3.783   4.888   5.593 -0.4405  0.7404 -0.7953
 5348TIP3   OH237534   4.354   5.414  14.826  0.1154  0.2532  0.0612
 5348TIP3    H137535   4.281   5.432  14.884 -0.4907  1.5342 -1.0558
 5348TIP3    H237536   4.414   5.487  14.839  1.6942 -1.2247  1.6382
 5349TIP3   OH237537   4.591   1.828   2.945 -0.1026  0.4745 -0.1330
 5349TIP3    H137538   4.611   1.734   2.940  0.2600  0.5576 -0.3595
 5349TIP3    H237539   4.536   1.837   3.022 -0.3630  0.0367 -0.2623
 5350TIP3   OH237540   1.284   2.584   1.828  0.1072  0.0202 -0.4249
 5350TIP3    H137541   1.346   2.575   1.900 -1.6220  0.1802  1.1595
 5350TIP3    H237542   1.261   2.677   1.828  1.3825  0.3973 -2.3751
 5351TIP3   OH237543   4.215   0.047   3.341 -0.3906  0.5503 -0.0437
 5351TIP3    H137544   4.158  -0.015   3.387 -2.4623  2.0334 -0.4765
 5351TIP3    H237545   4.303   0.013   3.356 -1.3406 -1.8241  0.7161
 5352TIP3   OH237546   0.370   0.831  17.077 -0.0102  0.0010  0.0326
 5352TIP3    H137547   0.392   0.900  17.015 -0.0863 -0.9739 -1.1234
 5352TIP3    H237548   0.283   0.855  17.110 -1.0114 -0.6373 -2.0088
 5353TIP3   OH237549   5.355   1.406  16.510 -0.3556  0.4281 -0.1420
 5353TIP3    H137550   5.375   1.350  16.585 -1.1848  0.6210  0.2399
 5353TIP3    H237551   5.364   1.495  16.543 -1.1723  0.5148 -0.1338
 5354TIP3   OH237552   1.803   4.716  11.675 -0.0879  0.5297  0.2648
 5354TIP3    H137553   1.788   4.810  11.671 -0.8713  0.4807  1.5019
 5354TIP3    H237554   1.778   4.684  11.588 -0.4938  1.3746  0.0567
 5355TIP3   OH237555   1.233   2.274   3.975  0.4352 -1.0628  0.1227
 5355TIP3    H137556   1.224   2.311   3.887  0.8921 -0.6866  0.2259
 5355TIP3    H237557   1.161   2.211   3.983 -0.0350 -0.5769 -0.2541
 5356TIP3   OH237558   2.493   3.081   0.296 -0.0441  0.1323 -0.1111
 5356TIP3    H137559   2.450   3.101   0.380  0.3825 -0.1040  0.1676
 5356TIP3    H237560   2.427   3.032   0.247 -0.9595  1.7949 -0.6379
 5357TIP3   OH237561   5.858   1.014  16.391 -0.5125 -0.0612 -0.1183
 5357TIP3    H137562   5.936   1.068  16.403 -0.2663 -0.1333 -1.3408
 5357TIP3    H237563   5.891   0.932  16.355 -0.9271 -0.9073  1.3514
 5358TIP3   OH237564   2.243   3.496   0.281 -0.0213 -0.7016 -0.6271
 5358TIP3    H137565   2.187   3.546   0.340  1.5166  1.2223 -0.6886
 5358TIP3    H237566   2.194   3.416   0.263 -2.7069  0.8040 -0.6084
 5359TIP3   OH237567   2.069   1.669  11.954  0.2858 -0.1864 -0.7049
 5359TIP3    H137568   2.130   1.691  11.883  1.1972 -0.6397 -0.0735
 5359TIP3    H237569   1.983   1.695  11.920  0.9578  1.7310 -1.0894
 5360TIP3   OH237570   0.794   5.941   5.056 -0.3977  0.1676  0.1074
 5360TIP3    H137571   0.775   5.916   5.146 -1.2732 -0.8471 -0.3373
 5360TIP3    H237572   0.887   5.961   5.056  0.1099 -1.8828  0.8138
 5361TIP3   OH237573   4.361   5.943   1.500 -0.9247  0.3301 -0.0292
 5361TIP3    H137574   4.396   5.864   1.459  0.0169  1.3522 -1.2578
 5361TIP3    H237575   4.299   5.978   1.436 -0.8169  0.9573  0.2082
 5362TIP3   OH237576   5.694   3.180  10.662  0.4858  0.3331 -0.5713
 5362TIP3    H137577   5.697   3.116  10.591 -0.9173 -0.0303 -0.3369
 5362TIP3    H237578   5.603   3.179  10.692  0.4855  2.2070 -0.3468
 5363TIP3   OH237579   1.178   0.747  13.226  0.2083  0.2763 -0.0859
 5363TIP3    H137580   1.268   0.715  13.218  0.6123  1.7193 -2.4352
 5363TIP3    H237581   1.133   0.709  13.151 -1.2475 -0.6229  1.2071
 5364TIP3   OH237582   1.046   6.057  10.272 -0.0877 -0.1492 -0.0413
 5364TIP3    H137583   1.101   6.001  10.217 -0.2880  0.8913 -1.3501
 5364TIP3    H237584   1.036   6.138  10.222 -0.2407  0.8697  1.5731
 5365TIP3   OH237585   1.962   0.815   4.194 -0.1063  0.5908 -0.0383
 5365TIP3    H137586   1.884   0.806   4.249 -0.6745  1.8808 -0.5691
 5365TIP3    H237587   1.959   0.740   4.135 -0.5962  0.2850  0.3729
 5366TIP3   OH237588   3.795   1.296   1.675 -0.5270 -0.1783  0.2098
 5366TIP3    H137589   3.869   1.356   1.681  1.3185 -2.1965 -0.7412
 5366TIP3    H237590   3.766   1.302   1.584  0.4113 -1.4919 -0.1986
 5367TIP3   OH237591   6.800   0.092   5.992  0.1877  0.1625 -0.2383
 5367TIP3    H137592   6.706   0.102   6.005  0.4208  0.4826  1.4192
 5367TIP3    H237593   6.839   0.134   6.069  1.7406  1.5091 -1.6714
 5368TIP3   OH237594   1.787   1.803  14.105 -0.4832 -0.0884  0.4917
 5368TIP3    H137595   1.697   1.833  14.121 -0.7076 -1.7764  2.9398
 5368TIP3    H237596   1.780   1.742  14.032 -1.4539 -0.6499  1.0361
 5369TIP3   OH237597   0.493   3.912   4.985 -0.0307  0.6976 -0.0038
 5369TIP3    H137598   0.401   3.883   4.988  0.3731 -0.6857 -0.0323
 5369TIP3    H237599   0.494   3.993   5.035 -0.7026 -0.9866  3.0265
 5370TIP3   OH237600   4.641   4.454   1.064  0.0603  0.3488 -0.1068
 5370TIP3    H137601   4.685   4.516   1.006  0.4817 -0.9741 -1.2434
 5370TIP3    H237602   4.565   4.424   1.014  1.3674 -2.1224 -0.7839
 5371TIP3   OH237603   6.598   1.198  12.114 -0.3830  0.6341  0.0795
 5371TIP3    H137604   6.601   1.205  12.019  0.8525 -0.3768  0.0139
 5371TIP3    H237605   6.640   1.278  12.146 -0.7160  0.9303 -0.2272
 5372TIP3   OH237606   2.755   6.053  11.514  0.4625 -0.1187 -0.5083
 5372TIP3    H137607   2.724   5.987  11.575  1.9238 -0.7702 -0.4149
 5372TIP3    H237608   2.676   6.099  11.485 -0.4536 -1.1164  0.3329
 5373TIP3   OH237609   0.612   6.398   0.919  0.3436 -0.1590  0.5451
 5373TIP3    H137610   0.590   6.420   0.828  2.1090 -3.4464 -0.8897
 5373TIP3    H237611   0.649   6.479   0.955 -0.1728  1.1955 -1.7503
 5374TIP3   OH237612   0.828   5.543   4.232 -0.1718  0.4913 -0.0275
 5374TIP3    H137613   0.890   5.615   4.241 -1.0855  1.2716  0.1472
 5374TIP3    H237614   0.814   5.511   4.321 -1.7082  1.7886  0.2350
 5375TIP3   OH237615   1.953   0.114   1.717 -0.5061  0.3343 -0.3922
 5375TIP3    H137616   1.865   0.098   1.681 -0.3483 -1.4263 -0.1233
 5375TIP3    H237617   2.007   0.044   1.680  0.6969  1.1417 -0.2123
 5376TIP3   OH237618   0.366   1.786  11.895 -0.2900  0.0147 -0.3489
 5376TIP3    H137619   0.443   1.805  11.949  0.8585 -0.7859 -1.6565
 5376TIP3    H237620   0.326   1.872  11.880  0.2056  0.4136  0.5163
 5377TIP3   OH237621   0.492   6.382   4.449  0.0416  0.5647 -0.8863
 5377TIP3    H137622   0.413   6.336   4.419 -0.9437  2.2905 -1.0513
 5377TIP3    H237623   0.493   6.367   4.544  0.1339 -0.3546 -1.0185
 5378TIP3   OH237624   3.073   1.034   1.043  0.7067  0.2435 -0.4723
 5378TIP3    H137625   3.062   1.033   0.948  0.6463  1.0390 -0.4777
 5378TIP3    H237626   3.167   1.050   1.056  0.9015 -0.8485 -0.3913
 5379TIP3   OH237627   4.378   6.144   7.085 -0.0292  0.4246 -0.0571
 5379TIP3    H137628   4.320   6.187   7.021  0.0555  0.8021  0.1214
 5379TIP3    H237629   4.431   6.214   7.120 -0.6117  0.3507  1.0122
 5380TIP3   OH237630   4.834   2.881   2.939  0.1737 -0.3402 -0.1296
 5380TIP3    H137631   4.765   2.947   2.932  0.0263 -0.2007  1.9377
 5380TIP3    H237632   4.911   2.922   2.900  0.1408  1.1866  1.3056
 5381TIP3   OH237633   1.894   2.554   0.907  0.1228  0.3219 -0.0164
 5381TIP3    H137634   1.894   2.649   0.909  2.0636  0.3491 -0.0025
 5381TIP3    H237635   1.974   2.530   0.861 -0.2160 -1.3140  0.1619
 5382TIP3   OH237636   3.978   2.966  16.083  0.1902 -0.3900 -0.1289
 5382TIP3    H137637   3.957   2.889  16.136 -0.7312 -1.8167 -2.4047
 5382TIP3    H237638   3.895   2.990  16.041  0.6592  1.3327 -0.1368
 5383TIP3   OH237639   4.895   1.640   2.965  0.3784 -0.1343  0.5439
 5383TIP3    H137640   4.808   1.600   2.966 -0.2300  1.0435 -0.8071
 5383TIP3    H237641   4.955   1.566   2.970 -0.6976 -1.0711  0.2873
 5384TIP3   OH237642   3.211   1.462   1.688  0.7643  0.4462  0.1930
 5384TIP3    H137643   3.213   1.469   1.783  1.4438 -1.7106  0.3874
 5384TIP3    H237644   3.133   1.411   1.669  0.5457  0.9992 -0.4354
 5385TIP3   OH237645   5.116   0.914  13.346 -0.0468  0.2683 -0.3291
 5385TIP3    H137646   5.068   0.860  13.284  0.1126  0.2945 -0.4749
 5385TIP3    H237647   5.066   0.995  13.352 -0.8466 -0.2785  0.6548
 5386TIP3   OH237648   4.165   6.201  13.695 -0.3166 -0.0884  0.2324
 5386TIP3    H137649   4.235   6.146  13.730 -3.2783 -2.6705  2.7081
 5386TIP3    H237650   4.084   6.156  13.720 -2.9864  3.8844 -0.3160
 5387TIP3   OH237651   6.319   4.356   0.924  0.2125 -0.2907  0.3020
 5387TIP3    H137652   6.331   4.297   0.999  1.9484  1.3974  1.4650
 5387TIP3    H237653   6.392   4.335   0.866 -0.4196 -0.7453 -0.3428
 5388TIP3   OH237654   1.285   4.006   5.606  0.4795 -0.3099  0.3538
 5388TIP3    H137655   1.277   3.915   5.634  0.8844  0.3705  2.9073
 5388TIP3    H237656   1.216   4.052   5.654  1.0934  0.9127  0.0932
 5389TIP3   OH237657   2.973   4.820   3.536 -0.0309 -0.0096 -0.7504
 5389TIP3    H137658   2.884   4.830   3.568 -0.0471 -1.6058 -0.2282
 5389TIP3    H237659   2.974   4.735   3.492  1.7922 -1.2079  1.3504
 5390TIP3   OH237660   6.127   5.915   0.384  0.4173 -0.5852  0.0214
 5390TIP3    H137661   6.162   5.844   0.437  2.5931  1.8637  2.1154
 5390TIP3    H237662   6.190   5.925   0.312  0.2631 -0.5840 -0.1150
 5391TIP3   OH237663   5.946   4.114  11.973  0.4752  0.0254  0.4358
 5391TIP3    H137664   5.955   4.172  12.049  0.6947  0.0495  0.3920
 5391TIP3    H237665   6.004   4.041  11.992  2.8194  1.3884 -1.0051
 5392TIP3   OH237666   2.233   3.175  13.293 -0.8765  0.5165  0.1280
 5392TIP3    H137667   2.212   3.195  13.384  2.0920  1.6976  0.6465
 5392TIP3    H237668   2.241   3.260  13.251 -0.6434  0.0159 -0.8713
 5393TIP3   OH237669   6.143   1.867   2.477  0.1695 -0.4014  0.0008
 5393TIP3    H137670   6.138   1.772   2.490 -1.7237 -0.2328  0.9149
 5393TIP3    H237671   6.144   1.903   2.565  0.0647  0.4483 -0.3416
 5394TIP3   OH237672   1.268   3.338  15.906  0.0334  0.3282  0.4594
 5394TIP3    H137673   1.219   3.406  15.951 -1.6729  0.2451 -1.1711
 5394TIP3    H237674   1.276   3.268  15.971  0.0722  1.2762  1.5080
 5395TIP3   OH237675   5.353   2.503   1.331  0.0000  0.5724  0.5148
 5395TIP3    H137676   5.320   2.416   1.309 -0.8292  1.0928 -0.3324
 5395TIP3    H237677   5.425   2.486   1.392 -1.5253 -0.6005  2.0685
 5396TIP3   OH237678   3.370   0.099   6.063  0.0851  0.4313  0.7308
 5396TIP3    H137679   3.377   0.097   6.159 -1.3029 -1.1739  0.8566
 5396TIP3    H237680   3.389   0.010   6.036  0.4497  0.8679 -0.5072
 5397TIP3   OH237681   0.211   0.251  14.692  0.0572 -0.2281 -0.1822
 5397TIP3    H137682   0.202   0.249  14.787 -1.2364  2.2790 -0.1754
 5397TIP3    H237683   0.257   0.332  14.673 -1.1070  0.1133 -1.7559
 5398TIP3   OH237684   4.482   3.859  15.915  0.4186  0.1022  0.2569
 5398TIP3    H137685   4.509   3.881  16.004 -1.2517  2.4098  0.2951
 5398TIP3    H237686   4.557   3.881  15.861 -0.0022  3.0063  0.6928
 5399TIP3   OH237687   3.110   0.449  11.680 -0.4986 -0.5028  0.1188
 5399TIP3    H137688   3.128   0.539  11.707  0.7061 -0.0333 -1.9684
 5399TIP3    H237689   3.015   0.444  11.672 -0.6330  0.3244  1.0422
 5400TIP3   OH237690   4.423   3.759   5.171 -0.0659 -0.3289  0.2099
 5400TIP3    H137691   4.492   3.816   5.206  1.9346 -1.2287 -1.9957
 5400TIP3    H237692   4.360   3.819   5.131  0.7565  0.4365  0.0405
 5401TIP3   OH237693   3.587   2.583  15.963  0.0334 -0.0037  0.4576
 5401TIP3    H137694   3.528   2.657  15.978 -0.5952  0.0308 -1.8530
 5401TIP3    H237695   3.530   2.513  15.930  1.2428  0.1406 -2.1542
 5402TIP3   OH237696   0.625   6.542   1.707 -0.1536 -0.2609  0.2317
 5402TIP3    H137697   0.629   6.458   1.661  3.0367  0.6151 -1.3644
 5402TIP3    H237698   0.630   6.518   1.800 -0.9309 -1.8653 -0.1015
 5403TIP3   OH237699   1.418   6.072  16.498  0.6479  0.3122  0.5635
 5403TIP3    H137700   1.359   6.044  16.568  0.4491 -0.4201  0.1108
 5403TIP3    H237701   1.499   6.023  16.513 -0.5001 -2.5086 -1.6488
 5404TIP3   OH237702   4.746   5.879   1.279 -0.0648  0.8999 -0.1899
 5404TIP3    H137703   4.759   5.800   1.332 -0.1087  0.7093 -0.4597
 5404TIP3    H237704   4.651   5.885   1.268 -0.0472  0.8458 -0.3830
 5405TIP3   OH237705   6.216   5.496  15.523 -0.0492 -0.1822 -0.3528
 5405TIP3    H137706   6.225   5.407  15.487 -2.4579 -0.5505 -0.2398
 5405TIP3    H237707   6.229   5.554  15.448 -2.6906 -0.8591 -1.4552
 5406TIP3   OH237708   3.880   5.976  14.873  0.1694 -0.1652  0.2822
 5406TIP3    H137709   3.931   5.922  14.933 -0.3439 -1.2946 -0.2689
 5406TIP3    H237710   3.789   5.964  14.901 -0.0314 -0.3521 -0.4335
 5407TIP3   OH237711   6.427   6.414  13.143 -0.3622  0.6176  0.0429
 5407TIP3    H137712   6.412   6.503  13.175  0.0803  0.3074  1.1408
 5407TIP3    H237713   6.515   6.392  13.171 -0.0503  0.2094 -1.1683
 5408TIP3   OH237714   4.500   4.314   4.507  0.3563  0.1411  0.6513
 5408TIP3    H137715   4.528   4.400   4.540 -0.0005  0.1756  0.8768
 5408TIP3    H237716   4.404   4.317   4.513  0.2199  0.4756 -1.2100
 5409TIP3   OH237717   4.165   6.124  11.906  0.4543 -0.2430  0.4864
 5409TIP3    H137718   4.241   6.166  11.947  0.2824 -1.3290  2.0235
 5409TIP3    H237719   4.117   6.196  11.865  0.3261  1.0756  2.7714
 5410TIP3   OH237720   2.432   6.040   0.025 -0.0257 -0.0650  0.4639
 5410TIP3    H137721   2.510   5.990   0.048 -0.4195 -0.0629  1.9076
 5410TIP3    H237722   2.444   6.062  -0.068  0.2060 -2.7441 -0.2489
 5411TIP3   OH237723   3.032   2.146   4.845 -0.3509  0.9841  0.0241
 5411TIP3    H137724   3.083   2.172   4.769 -1.0410  1.1977 -0.3755
 5411TIP3    H237725   2.953   2.105   4.809 -0.8050  1.3219  0.6037
 5412TIP3   OH237726   1.085   3.366   2.525  0.4470  1.0836 -0.1728
 5412TIP3    H137727   1.072   3.442   2.468  1.0949  0.2287 -1.5007
 5412TIP3    H237728   1.177   3.371   2.551  0.5002  0.7515 -0.2894
 5413TIP3   OH237729   2.397   4.472  13.352 -0.0214 -0.3134 -0.5772
 5413TIP3    H137730   2.404   4.503  13.443 -0.4114 -0.6606 -0.4252
 5413TIP3    H237731   2.441   4.540  13.301  0.7899 -0.4397 -0.0683
 5414TIP3   OH237732   1.802   4.019   0.944  0.2961  0.0273 -0.2137
 5414TIP3    H137733   1.809   3.924   0.951 -2.2303 -0.0734  4.0412
 5414TIP3    H237734   1.876   4.053   0.994 -0.2098  0.2011  0.4308
 5415TIP3   OH237735   5.940   0.317   1.503  0.5073 -0.3408  0.3713
 5415TIP3    H137736   5.906   0.331   1.414  0.2350  0.3062  0.5717
 5415TIP3    H237737   5.863   0.297   1.556  0.7269 -1.2364  0.3769
 5416TIP3   OH237738   6.337   1.641   6.089 -0.4838  0.2982  0.2489
 5416TIP3    H137739   6.253   1.658   6.046 -0.5604 -2.0369 -0.6564
 5416TIP3    H237740   6.315   1.639   6.183 -1.8187 -1.7983 -0.0366
 5417TIP3   OH237741   2.959   3.307   4.495  0.6310 -0.3526 -0.2037
 5417TIP3    H137742   3.017   3.383   4.495  0.7385 -0.4279 -0.9085
 5417TIP3    H237743   2.956   3.279   4.587  0.7805  0.3528  0.0225
 5418TIP3   OH237744   4.838   1.889   4.808 -0.5185  0.0179 -0.0498
 5418TIP3    H137745   4.860   1.860   4.896 -0.9359 -0.0893  0.0214
 5418TIP3    H237746   4.883   1.827   4.750 -1.7806 -1.0818  0.1055
 5419TIP3   OH237747   2.685   5.684   1.171  0.6071 -0.4620  0.1891
 5419TIP3    H137748   2.690   5.590   1.150  0.4619 -0.4823  0.2447
 5419TIP3    H237749   2.705   5.728   1.089 -0.3666 -0.5421 -0.1039
 5420TIP3   OH237750   3.547   2.585  12.676 -0.1900  0.0029 -0.1666
 5420TIP3    H137751   3.516   2.630  12.755  0.7195  0.8230 -0.2595
 5420TIP3    H237752   3.471   2.582  12.619 -0.8955 -0.6978  0.7789
 5421TIP3   OH237753   5.615   6.738  15.565 -0.2600 -0.3080 -0.1227
 5421TIP3    H137754   5.700   6.780  15.554 -1.5346  1.9169 -2.3254
 5421TIP3    H237755   5.580   6.729  15.476 -3.0771  0.5356  0.7755
 5422TIP3   OH237756   1.992   4.777   3.265  0.5085 -0.3132  0.0134
 5422TIP3    H137757   1.966   4.777   3.357  0.2417 -1.1656 -0.0617
 5422TIP3    H237758   1.929   4.836   3.222  0.4091 -0.2090  0.3044
 5423TIP3   OH237759   3.502   1.293  11.149 -0.1178  0.0948  0.0128
 5423TIP3    H137760   3.495   1.326  11.239 -1.4714 -0.2809  0.0780
 5423TIP3    H237761   3.423   1.325  11.106  0.5725  0.3575 -1.0862
 5424TIP3   OH237762   1.527   0.079   3.577  0.0189  0.7594  0.1877
 5424TIP3    H137763   1.533   0.073   3.481  2.6417 -0.7706  0.3606
 5424TIP3    H237764   1.531  -0.011   3.607 -1.5919  1.1522  1.7861
 5425TIP3   OH237765   1.357   5.046  11.593  0.4495 -0.1506  0.0285
 5425TIP3    H137766   1.309   5.004  11.665 -0.2559  0.8753  0.1839
 5425TIP3    H237767   1.328   5.137  11.596  0.3052 -0.1203 -1.6567
 5426TIP3   OH237768   2.312   3.308   2.818 -0.7997 -0.1921 -0.1583
 5426TIP3    H137769   2.405   3.304   2.837 -0.1352  1.8061 -2.3896
 5426TIP3    H237770   2.275   3.230   2.859  1.6384 -0.4845  1.7078
 5427TIP3   OH237771   2.038   5.624   4.019  0.0974  0.0489  0.0395
 5427TIP3    H137772   2.012   5.544   4.065  2.2710 -1.5898 -1.3788
 5427TIP3    H237773   1.961   5.647   3.967 -0.5269 -1.2236  0.3531
 5428TIP3   OH237774   4.071   2.859   5.646 -0.1612 -0.2641  0.3654
 5428TIP3    H137775   4.111   2.944   5.626 -1.5430  0.7500  1.6505
 5428TIP3    H237776   4.132   2.795   5.612  1.1505  1.2453 -0.2443
 5429TIP3   OH237777   5.219   5.175   1.514  0.4109  0.3057 -0.8159
 5429TIP3    H137778   5.163   5.231   1.568 -0.2131 -0.8596 -0.2307
 5429TIP3    H237779   5.162   5.103   1.486  1.8690 -1.6619  0.9227
 5430TIP3   OH237780   1.951   5.934  14.354 -0.1425 -0.2177  0.1433
 5430TIP3    H137781   1.877   5.964  14.408  1.3821 -1.9208  3.4897
 5430TIP3    H237782   1.912   5.918  14.268 -2.6872  3.0387  0.4698
 5431TIP3   OH237783   4.388   5.527  16.985 -0.1422 -0.3165  0.2538
 5431TIP3    H137784   4.308   5.491  17.024 -0.0462  0.7112  1.4593
 5431TIP3    H237785   4.406   5.607  17.035  0.3953  0.6934 -1.4591
 5432TIP3   OH237786   4.745   6.805  16.894  0.5676  0.4285 -0.2658
 5432TIP3    H137787   4.810   6.762  16.839  1.5553  0.2020  1.0298
 5432TIP3    H237788   4.664   6.801  16.843  1.5716  0.7835 -1.9347
 5433TIP3   OH237789   0.325   1.857   5.842  0.2070  0.1971  0.0809
 5433TIP3    H137790   0.243   1.818   5.872  0.8458  0.3687  2.2310
 5433TIP3    H237791   0.303   1.948   5.823 -0.1549  0.2065  0.5266
 5434TIP3   OH237792   2.166   0.635  12.645 -0.5772  0.3427 -0.7235
 5434TIP3    H137793   2.125   0.556  12.609 -0.1899  0.0100 -0.4551
 5434TIP3    H237794   2.094   0.695  12.661 -1.1440 -0.7132  0.9784
 5435TIP3   OH237795   2.059   1.728   2.476  0.2340  0.8399  0.2333
 5435TIP3    H137796   2.119   1.679   2.420 -1.0904 -0.5885  0.0209
 5435TIP3    H237797   2.047   1.673   2.553  0.7013  2.0180  1.1908
 5436TIP3   OH237798   0.799   3.811   4.375  0.1880  0.0889 -0.4378
 5436TIP3    H137799   0.859   3.833   4.446 -0.2424 -0.6350  0.1647
 5436TIP3    H237800   0.778   3.718   4.390 -0.3756  0.0935 -1.1632
 5437TIP3   OH237801   4.591   1.877   3.375 -0.1740 -0.8846 -0.3896
 5437TIP3    H137802   4.639   1.958   3.358 -2.0093  0.1970 -0.6586
 5437TIP3    H237803   4.625   1.846   3.459  0.9432 -0.1551 -0.5525
 5438TIP3   OH237804   6.433   5.957  11.117  0.7811 -0.0046  0.4016
 5438TIP3    H137805   6.407   5.968  11.025  1.7202 -0.1717  0.1044
 5438TIP3    H237806   6.507   5.895  11.114  1.4055  0.6746  1.1717
 5439TIP3   OH237807   1.590   0.717  16.654  0.7363  0.4476  0.5371
 5439TIP3    H137808   1.683   0.713  16.676  0.8252  2.6742  0.7926
 5439TIP3    H237809   1.583   0.670  16.571  2.1554  0.5072  0.3599
 5440TIP3   OH237810   0.789   4.385  10.435  0.3173 -0.6676  0.0262
 5440TIP3    H137811   0.839   4.376  10.353 -2.4687  0.6108 -1.9867
 5440TIP3    H237812   0.762   4.295  10.455  1.6419 -1.0968 -0.0047
 5441TIP3   OH237813   2.226   1.054   1.025 -0.0365  0.2695  0.5379
 5441TIP3    H137814   2.185   1.062   1.111 -1.8761  0.8689 -0.3358
 5441TIP3    H237815   2.170   1.106   0.967  0.6460 -0.8313 -1.1861
 5442TIP3   OH237816   1.251   1.843  14.964 -0.0647 -0.0116  0.4057
 5442TIP3    H137817   1.319   1.835  15.031 -0.5224 -0.8502  0.7912
 5442TIP3    H237818   1.269   1.772  14.903 -1.0314 -0.7216  0.9247
 5443TIP3   OH237819   0.780   0.333  10.994  0.1527  0.1861  0.8426
 5443TIP3    H137820   0.841   0.357  10.924  1.2142  1.1854  2.0628
 5443TIP3    H237821   0.771   0.238  10.987  2.7440 -0.1644  1.2774
 5444TIP3   OH237822   1.658   1.438   4.468 -0.1036 -0.3021 -0.2151
 5444TIP3    H137823   1.748   1.408   4.456  0.3164  0.3910  1.0558
 5444TIP3    H237824   1.604   1.364   4.439  0.8680 -0.8512 -0.6718
 5445TIP3   OH237825   0.510   5.113  14.194 -0.3261  0.2357  0.1539
 5445TIP3    H137826   0.539   5.036  14.243 -2.4353 -1.0664 -0.5227
 5445TIP3    H237827   0.431   5.142  14.238 -0.9144  0.5050 -1.0254
 5446TIP3   OH237828   4.144   2.743  16.481  0.2349 -0.9153 -0.2948
 5446TIP3    H137829   4.181   2.721  16.566 -0.9203  0.8247  0.7332
 5446TIP3    H237830   4.220   2.753  16.424  1.0040 -2.5570  0.3803
 5447TIP3   OH237831   4.817   6.266  16.157 -0.1370 -0.0111 -0.4612
 5447TIP3    H137832   4.854   6.250  16.071  1.0365 -1.1069  0.2183
 5447TIP3    H237833   4.728   6.230  16.151 -0.9016  1.9150 -1.8478
 5448TIP3   OH237834   4.590   1.597  11.565  0.4768  0.1971  0.0990
 5448TIP3    H137835   4.639   1.591  11.483  1.6047  1.5676  0.6286
 5448TIP3    H237836   4.528   1.669  11.550  0.5027  0.2728  0.3512
 5449TIP3   OH237837   1.904   5.148   2.377 -0.9041 -0.2618  0.1471
 5449TIP3    H137838   1.883   5.211   2.308 -1.1215  1.8059  1.9926
 5449TIP3    H237839   1.921   5.066   2.331  0.9189  1.4888 -2.5201
 5450TIP3   OH237840   5.847   4.646   5.293  0.2141 -0.4049 -0.6676
 5450TIP3    H137841   5.929   4.694   5.296  1.1483 -1.8817 -1.2904
 5450TIP3    H237842   5.864   4.573   5.233 -2.1344  0.3131 -2.3571
 5451TIP3   OH237843   6.302   6.212   0.278 -0.8723 -0.7900  0.0667
 5451TIP3    H137844   6.294   6.131   0.228 -2.0219 -0.3720 -0.4743
 5451TIP3    H237845   6.316   6.184   0.368  1.3692 -1.5675 -0.4618
 5452TIP3   OH237846   4.385   3.507   4.810 -0.5985 -0.1695  0.3002
 5452TIP3    H137847   4.292   3.520   4.792 -0.3443 -0.4094 -1.2487
 5452TIP3    H237848   4.428   3.522   4.726  0.5777 -1.9890  0.5443
 5453TIP3   OH237849   5.123   0.569  13.223 -0.2347  0.0951  0.7165
 5453TIP3    H137850   5.144   0.597  13.134  0.3830 -1.9427  0.1681
 5453TIP3    H237851   5.029   0.579  13.230 -0.2801  0.3348 -0.1667
 5454TIP3   OH237852   1.286   0.717  16.529  0.6011 -0.9332 -0.2836
 5454TIP3    H137853   1.313   0.748  16.615  0.5806 -0.3186 -0.4909
 5454TIP3    H237854   1.212   0.659  16.547  0.1226 -0.2305  0.0671
 5455TIP3   OH237855   0.629   3.960  15.895 -0.3101 -0.3728 -0.0845
 5455TIP3    H137856   0.606   3.867  15.888  0.7521 -0.6437 -0.1720
 5455TIP3    H237857   0.572   3.994  15.964  0.1085 -1.3656  0.7651
 5456TIP3   OH237858   5.807   2.069  15.884  0.1985  0.0766  0.4202
 5456TIP3    H137859   5.726   2.021  15.900 -0.1860  0.5459 -0.1049
 5456TIP3    H237860   5.869   2.033  15.948 -0.3254 -0.5136  0.6049
 5457TIP3   OH237861   4.876   2.523   5.280  0.0043 -0.2065  0.4161
 5457TIP3    H137862   4.950   2.466   5.258  2.1703  1.7239  2.1364
 5457TIP3    H237863   4.876   2.590   5.211  0.8046  0.5439  1.1051
 5458TIP3   OH237864   1.482   0.752  15.649 -0.0902 -0.9045  0.5527
 5458TIP3    H137865   1.427   0.821  15.685 -0.1658 -1.5401  1.6867
 5458TIP3    H237866   1.443   0.733  15.563  0.4728  1.0638 -0.1971
 5459TIP3   OH237867   3.097   3.661   0.985  0.0909 -0.4979  0.2735
 5459TIP3    H137868   3.077   3.693   1.072 -0.7485  0.6663 -0.3221
 5459TIP3    H237869   3.192   3.652   0.983  0.1486 -0.1025  1.1614
 5460TIP3   OH237870   6.140   6.168   3.686  0.2233 -0.3450 -0.6244
 5460TIP3    H137871   6.079   6.107   3.727  1.1684 -1.1020 -0.2994
 5460TIP3    H237872   6.085   6.233   3.644 -0.7942  0.6204  2.0435
 5461TIP3   OH237873   3.997   3.104   4.772 -0.3985  0.8088 -0.3855
 5461TIP3    H137874   3.935   3.145   4.711  0.6198  1.6733 -0.8700
 5461TIP3    H237875   4.022   3.175   4.831  2.6312  1.4394 -2.2144
 5462TIP3   OH237876   4.397   1.013   0.081  0.4342 -0.1183 -0.5129
 5462TIP3    H137877   4.348   1.040   0.003 -2.0905  0.8424  1.2611
 5462TIP3    H237878   4.467   1.078   0.088 -0.4951  0.9928 -0.9416
 5463TIP3   OH237879   0.023   5.345  16.094  0.6859 -0.3537 -0.3688
 5463TIP3    H137880   0.053   5.361  16.183 -0.4378 -1.6351  0.2766
 5463TIP3    H237881   0.057   5.258  16.072 -1.4292 -1.3413 -0.0457
 5464TIP3   OH237882   1.656   5.480   0.388 -0.0509 -0.8590  0.0230
 5464TIP3    H137883   1.666   5.410   0.454  1.6582 -1.7111 -1.0571
 5464TIP3    H237884   1.562   5.491   0.379 -0.3451 -1.9422  1.3560
 5465TIP3   OH237885   0.788   4.897  13.598 -0.4836  0.5693 -0.3211
 5465TIP3    H137886   0.776   4.992  13.590 -2.8149  0.2410 -1.8592
 5465TIP3    H237887   0.768   4.877  13.689  1.5632  1.6806  0.4289
 5466TIP3   OH237888   3.307   3.911   3.514 -0.7140  0.3702  0.2592
 5466TIP3    H137889   3.338   3.857   3.440 -0.1522  0.9221  0.0805
 5466TIP3    H237890   3.238   3.965   3.476 -1.5872 -0.5246  0.5441
 5467TIP3   OH237891   2.818   1.761   6.423  0.3397  0.2515 -0.0434
 5467TIP3    H137892   2.725   1.738   6.417  0.2925  0.8088 -2.4461
 5467TIP3    H237893   2.818   1.856   6.438  0.4944  0.4700 -1.3577
 5468TIP3   OH237894   6.109   5.174   5.843 -0.1055  0.7132  0.5133
 5468TIP3    H137895   6.048   5.182   5.916  0.1187  0.1417  0.7763
 5468TIP3    H237896   6.138   5.263   5.826  1.1261  0.6880  2.2393
 5469TIP3   OH237897   0.676   5.498   2.754  0.5426 -0.0098 -0.1057
 5469TIP3    H137898   0.715   5.415   2.727 -0.0545  0.2817 -1.9794
 5469TIP3    H237899   0.604   5.472   2.812 -0.1519 -0.8848 -1.3093
 5470TIP3   OH237900   1.751   3.129   6.529  0.0501  0.3650  0.4996
 5470TIP3    H137901   1.696   3.201   6.499  2.1830  2.7388  1.8724
 5470TIP3    H237902   1.840   3.161   6.520  1.3779 -3.2527 -1.5133
 5471TIP3   OH237903   3.154   3.890  11.003 -0.3688 -0.4743  1.1829
 5471TIP3    H137904   3.183   3.954  11.068 -0.3450 -1.5490  2.2712
 5471TIP3    H237905   3.058   3.895  11.006 -0.3590  0.0626  0.6895
 5472TIP3   OH237906   1.487   6.055  16.786 -0.3545 -0.4315  1.1910
 5472TIP3    H137907   1.524   5.967  16.787 -1.3195 -1.0481 -2.5837
 5472TIP3    H237908   1.560   6.112  16.809  1.0051 -2.0586  1.1177
 5473TIP3   OH237909   4.542   0.361   5.834 -0.1862  0.1341 -0.2097
 5473TIP3    H137910   4.547   0.441   5.886  0.4187 -0.7814  1.2014
 5473TIP3    H237911   4.517   0.391   5.747 -0.0330  1.8476  0.2920
 5474TIP3   OH237912   4.614   2.603  14.115 -0.5816  0.2428  0.2700
 5474TIP3    H137913   4.664   2.595  14.197 -1.4658  0.6779  0.8655
 5474TIP3    H237914   4.675   2.644  14.054  1.2425 -3.0318 -0.3516
 5475TIP3   OH237915   5.286   3.882  15.339  0.0407 -0.5505 -0.0904
 5475TIP3    H137916   5.382   3.871  15.341  0.1133  0.0381 -0.1768
 5475TIP3    H237917   5.270   3.935  15.262 -0.3074 -0.1992  0.2187
 5476TIP3   OH237918   0.561   6.052  13.805  0.2735 -0.4471 -0.0425
 5476TIP3    H137919   0.643   6.039  13.757 -0.2013 -0.7761 -0.7826
 5476TIP3    H237920   0.548   5.969  13.851  0.4396 -0.3321  0.2160
 5477TIP3   OH237921   2.872   2.049   0.276  0.2619  0.3126  0.1840
 5477TIP3    H137922   2.825   2.120   0.320 -0.2536  0.5602 -0.7452
 5477TIP3    H237923   2.806   2.004   0.225  1.3750  2.4115 -3.4565
 5478TIP3   OH237924   6.105   3.797  14.054  0.3362 -1.0850 -0.0809
 5478TIP3    H137925   6.013   3.814  14.032  0.5673  0.8796  0.2846
 5478TIP3    H237926   6.109   3.703  14.067 -1.8018 -1.1345  0.6189
 5479TIP3   OH237927   3.920   5.528  10.797  0.0114 -0.4209 -0.1167
 5479TIP3    H137928   3.997   5.489  10.754  0.7234 -0.4358  1.1204
 5479TIP3    H237929   3.868   5.452  10.825 -0.2030 -0.4190 -0.5062
 5480TIP3   OH237930   5.172   6.187  17.047 -0.5078  0.3395  0.2853
 5480TIP3    H137931   5.258   6.144  17.047 -0.6948 -0.0461  0.0305
 5480TIP3    H237932   5.139   6.172  16.959 -0.9660  0.2194  0.4766
 5481TIP3   OH237933   6.808   3.085   0.323 -0.1660  0.2871  0.3457
 5481TIP3    H137934   6.781   3.042   0.241 -0.9793  0.3202  0.5872
 5481TIP3    H237935   6.844   3.014   0.376  0.7830  0.3410 -0.2076
 5482TIP3   OH237936   5.056   2.014   4.285  0.0567 -0.1509  0.1328
 5482TIP3    H137937   5.130   2.072   4.263 -1.4718  1.5928 -0.7276
 5482TIP3    H237938   5.072   1.988   4.375  2.2650 -0.7187 -0.3477
 5483TIP3   OH237939   0.460   5.975   1.398 -0.0735 -0.2885  0.1995
 5483TIP3    H137940   0.427   6.024   1.474 -0.8907 -2.1085  1.0837
 5483TIP3    H237941   0.445   6.033   1.324 -2.1763  0.3183  1.0353
 5484TIP3   OH237942   2.313   6.736  13.540 -0.2411  0.4459 -1.0964
 5484TIP3    H137943   2.374   6.810  13.534 -0.1334  0.4142 -0.4100
 5484TIP3    H237944   2.356   6.673  13.597 -0.5924  0.0991 -1.2064
 5485TIP3   OH237945   6.734   5.418   4.042  0.1843 -0.1568 -0.5096
 5485TIP3    H137946   6.713   5.510   4.056  0.7303 -0.2577  1.1462
 5485TIP3    H237947   6.830   5.414   4.045  0.1420 -0.9078  0.4863
 5486TIP3   OH237948   1.880   5.279   4.923 -0.1535  0.4245  0.5470
 5486TIP3    H137949   1.872   5.330   5.004 -0.4522  0.2085  0.6574
 5486TIP3    H237950   1.966   5.303   4.888 -0.9670  2.2911 -0.2938
 5487TIP3   OH237951   0.382   4.695   1.934  0.1541  0.4345 -0.0123
 5487TIP3    H137952   0.422   4.765   1.883 -0.8184  0.0736 -1.3247
 5487TIP3    H237953   0.303   4.733   1.971 -0.6834 -0.0708 -1.1949
 5488TIP3   OH237954   4.797   5.231  11.817  0.6881 -0.4238  0.2295
 5488TIP3    H137955   4.740   5.245  11.893  2.0639  1.0250  1.0590
 5488TIP3    H237956   4.871   5.180  11.850  0.4032 -1.4109 -0.5991
 5489TIP3   OH237957   2.854   2.241   3.445 -0.0758 -0.5555  0.7434
 5489TIP3    H137958   2.929   2.235   3.385  0.1677 -1.8142  1.1489
 5489TIP3    H237959   2.891   2.278   3.525 -0.1066 -0.2283  0.6105
 5490TIP3   OH237960   5.957   4.687  11.417  0.3664 -0.3649  0.1944
 5490TIP3    H137961   5.936   4.765  11.468  2.9011  0.5269 -0.0242
 5490TIP3    H237962   5.934   4.614  11.474  0.8047  0.5790  1.6234
 5491TIP3   OH237963   2.040   1.055   1.995 -0.2452 -0.4942 -0.0154
 5491TIP3    H137964   2.136   1.061   1.992 -0.2981  1.2271  0.5599
 5491TIP3    H237965   2.023   0.991   2.064  0.5028 -0.7862 -0.0931
 5492TIP3   OH237966   6.150   2.708  15.831 -0.7124  1.0611 -0.1417
 5492TIP3    H137967   6.081   2.643  15.842 -0.9640  1.1180 -1.2368
 5492TIP3    H237968   6.152   2.725  15.737  0.8290  1.0278 -0.1425
 5493TIP3   OH237969   5.438   2.640  14.478  0.2511  0.0181  0.1231
 5493TIP3    H137970   5.364   2.631  14.419  0.7832 -3.0936 -0.2082
 5493TIP3    H237971   5.515   2.622  14.424  1.1409  1.3502  0.8708
 5494TIP3   OH237972   5.474   5.240  14.250  0.1376 -0.4838 -0.5318
 5494TIP3    H137973   5.399   5.285  14.211  0.1691 -0.4216 -0.5209
 5494TIP3    H237974   5.439   5.205  14.332  0.4216  0.5441  0.0444
 5495TIP3   OH237975   5.484   0.454  14.403 -0.1121  0.0909  0.6668
 5495TIP3    H137976   5.557   0.412  14.448 -2.0994 -0.2646  3.8266
 5495TIP3    H237977   5.430   0.381  14.371  0.6267  0.3533 -1.3548
 5496TIP3   OH237978   6.498   6.274  10.919  0.1913 -0.4411  0.2127
 5496TIP3    H137979   6.426   6.228  10.875  1.0959 -2.2377  0.5337
 5496TIP3    H237980   6.457   6.311  10.997 -0.3956 -1.5242  0.4442
 5497TIP3   OH237981   2.804   5.567   2.285 -0.1432 -0.0935 -0.0876
 5497TIP3    H137982   2.786   5.654   2.322  1.1770 -0.7601  2.2651
 5497TIP3    H237983   2.726   5.516   2.306 -0.3136  0.1243 -0.1815
 5498TIP3   OH237984   5.380   3.736   2.714  0.3620  0.2924  0.8006
 5498TIP3    H137985   5.432   3.811   2.688 -0.6766  1.9350  3.0727
 5498TIP3    H237986   5.439   3.682   2.767  1.2787 -0.8979 -1.3190
 5499TIP3   OH237987   5.307   2.210  14.608  0.1800  0.2326  0.0059
 5499TIP3    H137988   5.361   2.144  14.564  1.2823  1.0307  0.1140
 5499TIP3    H237989   5.265   2.163  14.680  1.9948 -0.1057  0.9009
 5500TIP3   OH237990   4.111   5.920   2.434 -0.2042 -0.3372 -0.2943
 5500TIP3    H137991   4.028   5.956   2.403 -0.7100 -1.4470 -0.2763
 5500TIP3    H237992   4.088   5.867   2.510  0.6696  0.1982  0.3642
 5501TIP3   OH237993   5.754   2.168   0.528  0.1539  0.1569  0.6970
 5501TIP3    H137994   5.760   2.153   0.623  1.2018 -1.9155  0.3617
 5501TIP3    H237995   5.719   2.086   0.493  1.7119  0.1228 -0.8988
 5502TIP3   OH237996   3.910   5.648   0.473  0.1505  0.1055  0.0860
 5502TIP3    H137997   3.827   5.605   0.493 -0.5449  0.8550 -1.0689
 5502TIP3    H237998   3.921   5.713   0.543  0.4254 -0.8395  0.9503
 5503TIP3   OH237999   3.622   5.222  15.130  0.1123  0.2798  0.6396
 5503TIP3    H138000   3.657   5.269  15.055  1.8388  0.0692  1.2592
 5503TIP3    H238001   3.549   5.275  15.161 -1.3967 -0.2140 -1.8448
 5504TIP3   OH238002   4.558   2.545   0.879 -0.3204 -0.6909  0.6018
 5504TIP3    H138003   4.652   2.531   0.870 -0.2810 -1.0611  1.5314
 5504TIP3    H238004   4.532   2.586   0.796  0.8211  0.3465  0.7236
 5505TIP3   OH238005   1.447   2.092   0.832 -0.2403  0.4385  0.1564
 5505TIP3    H138006   1.426   2.052   0.916  1.0339 -0.9629 -0.1371
 5505TIP3    H238007   1.372   2.074   0.776 -0.7281  0.6278  0.7470
 5506TIP3   OH238008   4.740   0.184   5.792 -0.4035 -0.1756 -0.2755
 5506TIP3    H138009   4.678   0.253   5.817  0.3290  0.2350  0.4494
 5506TIP3    H238010   4.766   0.206   5.703  0.4453  0.9652  0.2344
 5507TIP3   OH238011   3.957   1.221   1.153 -0.1915  0.4602  0.3815
 5507TIP3    H138012   4.000   1.153   1.207 -0.7348  0.3576  0.6891
 5507TIP3    H238013   4.029   1.258   1.102  0.0328 -0.7556 -0.2390
 5508TIP3   OH238014   4.170   2.153  16.761  0.1047 -0.0736 -0.1125
 5508TIP3    H138015   4.155   2.192  16.675  0.2367 -0.9547 -0.5457
 5508TIP3    H238016   4.207   2.224  16.814 -0.6366  0.6626 -0.5734
 5509TIP3   OH238017   5.242   4.703  15.096 -0.2169  0.3762  0.5077
 5509TIP3    H138018   5.323   4.663  15.127  0.6497  2.1901  0.6773
 5509TIP3    H238019   5.179   4.631  15.094  1.1438 -0.8747  1.2666
 5510TIP3   OH238020   2.810   2.742   2.016  0.3131  0.6585  0.0192
 5510TIP3    H138021   2.886   2.734   2.073  0.1659 -0.2421  0.1090
 5510TIP3    H238022   2.837   2.701   1.934 -0.3252 -0.3976  0.3169
 5511TIP3   OH238023   3.021   5.187   1.046  0.0707  0.8241 -0.1942
 5511TIP3    H138024   3.056   5.155   0.962 -0.6307 -0.2558 -0.0878
 5511TIP3    H238025   3.099   5.199   1.101  0.4665  0.7268 -0.7198
 5512TIP3   OH238026   0.404   0.394  10.920 -0.6219  0.5479 -0.6989
 5512TIP3    H138027   0.456   0.450  10.977  1.4272 -0.4764 -1.4404
 5512TIP3    H238028   0.319   0.388  10.962  0.5772  0.3673  1.9187
 5513TIP3   OH238029   6.802   4.258   2.118 -0.2815 -0.6852 -0.1499
 5513TIP3    H138030   6.878   4.213   2.081 -0.0012 -0.9068  0.6660
 5513TIP3    H238031   6.832   4.349   2.129  0.3421 -1.0432  1.3909
 5514TIP3   OH238032   4.932   0.855   4.737  0.2954 -0.2696 -0.2043
 5514TIP3    H138033   4.937   0.760   4.750  0.8257 -0.1343  0.6507
 5514TIP3    H238034   4.953   0.867   4.645  0.0634 -0.9922 -0.3628
 5515TIP3   OH238035   1.927   6.811   1.296  0.6911  0.5677  0.2214
 5515TIP3    H138036   1.834   6.831   1.284  0.9380  1.5687 -0.1500
 5515TIP3    H238037   1.930   6.756   1.374 -0.1150  1.5276  0.9668
 5516TIP3   OH238038   0.060   3.509  10.584  0.5083 -0.0379 -0.4849
 5516TIP3    H138039  -0.017   3.459  10.556  1.0736  0.2584 -2.7736
 5516TIP3    H238040   0.036   3.600  10.571  0.9771  0.0934 -0.4534
 5517TIP3   OH238041   6.592   2.367   1.514  0.5547  0.1427 -0.3510
 5517TIP3    H138042   6.654   2.355   1.586  0.2290 -1.3227 -0.2874
 5517TIP3    H238043   6.630   2.438   1.462  0.5449  1.5781  1.4934
 5518TIP3   OH238044   5.256   5.643  16.479  0.1983  0.4179 -0.1747
 5518TIP3    H138045   5.266   5.736  16.459 -0.9394  0.3007 -1.4614
 5518TIP3    H238046   5.161   5.629  16.481  0.3548 -0.7380 -0.0759
 5519TIP3   OH238047   2.689   6.386  12.033 -0.0532  0.5721  0.7273
 5519TIP3    H138048   2.604   6.380  12.077  0.6077  0.8655  2.0814
 5519TIP3    H238049   2.753   6.376  12.103  1.0400  0.3478 -0.2797
 5520TIP3   OH238050   2.698   5.362  15.875 -0.1015  0.5528  0.4052
 5520TIP3    H138051   2.616   5.403  15.905  0.0540  0.9882  0.2394
 5520TIP3    H238052   2.670   5.278  15.839 -0.6211  1.1285 -0.5942
 5521TIP3   OH238053   3.214   4.552  11.809 -0.4148  0.5830 -0.1434
 5521TIP3    H138054   3.199   4.476  11.753  0.8770 -0.6716  1.1195
 5521TIP3    H238055   3.262   4.517  11.885 -1.0743  2.4016  1.1922
 5522TIP3   OH238056   3.330   5.575  15.574 -0.2497 -0.3740 -0.0210
 5522TIP3    H138057   3.407   5.631  15.572 -0.4747 -0.0586  0.0941
 5522TIP3    H238058   3.287   5.590  15.490 -0.2077 -0.5223 -0.0698
 5523TIP3   OH238059   1.245   6.092   5.390  0.1681  0.2017  0.2417
 5523TIP3    H138060   1.224   6.042   5.469 -1.6280 -0.8642 -0.8513
 5523TIP3    H238061   1.173   6.154   5.382 -0.3499 -0.5481 -1.2130
 5524TIP3   OH238062   6.078   4.105   2.824 -0.2603 -0.1902  0.1639
 5524TIP3    H138063   6.017   4.149   2.766 -2.7633  0.5073  3.0943
 5524TIP3    H238064   6.045   4.015   2.830 -0.2233 -0.1655  0.7578
 5525TIP3   OH238065   4.808   0.604   2.569  0.5430 -0.1155 -0.0953
 5525TIP3    H138066   4.872   0.630   2.503  0.3345 -2.3553 -1.2845
 5525TIP3    H238067   4.723   0.625   2.529  0.4437 -0.0426  0.1484
 5526TIP3   OH238068   0.921   4.164   4.106  1.1883  0.4457 -0.0813
 5526TIP3    H138069   0.994   4.119   4.150  1.0791 -1.4110 -1.6243
 5526TIP3    H238070   0.943   4.257   4.112  2.6042  0.0716  1.3161
 5527TIP3   OH238071   0.242   0.279  16.250 -0.5260 -0.5236  0.0587
 5527TIP3    H138072   0.246   0.210  16.317 -1.1996  0.7131  1.4325
 5527TIP3    H238073   0.317   0.263  16.194  1.6718 -0.0629  2.6803
 5528TIP3   OH238074   1.771   1.704  17.060 -0.3505  0.0580 -1.3168
 5528TIP3    H138075   1.844   1.688  17.120  0.4333  1.7026 -1.7866
 5528TIP3    H238076   1.745   1.616  17.031  0.4553 -0.6490 -0.0028
 5529TIP3   OH238077   4.913   3.681  14.251  0.0976 -0.4521 -0.0842
 5529TIP3    H138078   4.943   3.702  14.162  0.1894 -0.3299 -0.0245
 5529TIP3    H238079   4.818   3.668  14.242  0.2242 -1.2572 -0.3520
 5530TIP3   OH238080   5.236   3.576   1.326 -0.1779  0.9715  0.0018
 5530TIP3    H138081   5.240   3.487   1.291 -0.3768  0.1429  1.9899
 5530TIP3    H238082   5.225   3.632   1.248 -0.6187 -0.7693 -1.2381
 5531TIP3   OH238083   0.862   4.272  14.425  0.1982  0.7552 -0.4350
 5531TIP3    H138084   0.825   4.202  14.478  0.8881  2.1925  2.1083
 5531TIP3    H238085   0.913   4.227  14.357 -1.4110 -1.1618 -0.4625
 5532TIP3   OH238086   5.481   1.291  15.165  0.1071  0.1745 -0.1725
 5532TIP3    H138087   5.459   1.324  15.078  0.8412  1.4931  0.1149
 5532TIP3    H238088   5.576   1.286  15.166  0.1307  0.6323  0.7115
 5533TIP3   OH238089   4.997   2.729   2.339  0.3558  0.1873  0.3766
 5533TIP3    H138090   5.069   2.714   2.401  0.3636  2.0742  0.8978
 5533TIP3    H238091   4.957   2.643   2.327  0.6147 -0.3129  2.6776
 5534TIP3   OH238092   0.439   2.043   4.606  1.0185  0.6255  0.1127
 5534TIP3    H138093   0.508   2.066   4.544 -0.5157 -0.5572 -2.1557
 5534TIP3    H238094   0.441   2.114   4.671  1.6571  2.8270 -2.1591
 5535TIP3   OH238095   6.130   3.591  11.415  1.0156 -0.1173  0.0004
 5535TIP3    H138096   6.151   3.681  11.391 -1.1486  0.0526 -1.5701
 5535TIP3    H238097   6.150   3.540  11.337 -1.5236 -0.3326 -0.5867
 5536TIP3   OH238098   6.456   1.943  16.317 -0.3808 -0.0796  0.4460
 5536TIP3    H138099   6.537   1.969  16.360 -0.4961 -1.1230  1.3332
 5536TIP3    H238100   6.452   1.998  16.239  1.2558 -0.1310  0.2947
 5537TIP3   OH238101   2.469   4.813   2.380  0.3277 -0.8052 -0.6085
 5537TIP3    H138102   2.433   4.730   2.412  0.6007 -0.7604 -0.1771
 5537TIP3    H238103   2.563   4.807   2.400 -0.1780  1.3206  3.3190
 5538TIP3   OH238104   5.034   1.109   2.086  0.2214 -0.6316 -0.0927
 5538TIP3    H138105   5.127   1.114   2.110 -0.1797 -0.3753  1.5391
 5538TIP3    H238106   5.025   1.166   2.010  0.8336  1.9196  1.6469
 5539TIP3   OH238107   4.720   0.878  14.058 -0.2337 -0.0580  0.3495
 5539TIP3    H138108   4.804   0.915  14.029 -0.8619  1.1414  0.0250
 5539TIP3    H238109   4.655   0.943  14.033 -1.2418 -0.8383  0.8808
 5540TIP3   OH238110   3.627   0.081  15.223 -0.1651 -0.0675  0.4037
 5540TIP3    H138111   3.708   0.034  15.243  0.2755  1.0242  1.2564
 5540TIP3    H238112   3.640   0.115  15.135  2.0282  3.4444  1.8828
 5541TIP3   OH238113   4.513   3.113  10.556  0.2559  0.7584 -0.5068
 5541TIP3    H138114   4.606   3.131  10.565 -0.0247  1.1506  2.4817
 5541TIP3    H238115   4.498   3.034  10.608 -1.0574  0.6178 -1.0629
 5542TIP3   OH238116   6.427   2.078   5.360 -0.1279 -0.5096 -0.2208
 5542TIP3    H138117   6.403   2.003   5.306 -1.0566 -1.9743  2.0832
 5542TIP3    H238118   6.501   2.047   5.412 -0.3344  0.2543  0.5502
 5543TIP3   OH238119   3.915   3.830   3.400 -0.4252  0.3896  0.0156
 5543TIP3    H138120   3.826   3.866   3.403 -0.4806  0.2376  0.2548
 5543TIP3    H238121   3.934   3.821   3.306 -0.8876 -0.1175 -0.0365
 5544TIP3   OH238122   4.529   0.657  12.915  0.0026  0.5025 -0.0414
 5544TIP3    H138123   4.464   0.613  12.860 -0.1168  0.2782  0.2746
 5544TIP3    H238124   4.613   0.629  12.880 -0.0726  0.8907 -0.5296
 5545TIP3   OH238125   1.779   5.637   1.285  0.0606  0.3753  0.4277
 5545TIP3    H138126   1.685   5.631   1.269 -0.0548 -1.1351  1.4402
 5545TIP3    H238127   1.818   5.579   1.220  0.0101 -1.3730  1.8596
 5546TIP3   OH238128   4.007   6.553  14.716 -0.2483  0.8324 -0.2429
 5546TIP3    H138129   4.009   6.466  14.755 -0.5912  1.1282  0.4531
 5546TIP3    H238130   4.005   6.537  14.621 -0.7369  0.0771 -0.1173
 5547TIP3   OH238131   2.337   6.828   4.858  0.2127  0.4980 -0.0703
 5547TIP3    H138132   2.303   6.885   4.926  2.4546  1.6957  0.1485
 5547TIP3    H238133   2.268   6.763   4.844 -2.2996  3.0006 -0.0702
 5548TIP3   OH238134   0.469   1.091  14.904  0.1457  0.0305  0.1004
 5548TIP3    H138135   0.415   1.130  14.973 -0.1310 -1.5796  0.8347
 5548TIP3    H238136   0.530   1.160  14.880 -1.8861  1.7734 -0.4300
 5549TIP3   OH238137   4.398   6.408  16.007 -0.4840  0.5621 -0.4036
 5549TIP3    H138138   4.317   6.458  16.003 -0.1136  1.1232 -1.3050
 5549TIP3    H238139   4.390   6.344  15.936 -0.1422  0.6241 -0.4993
 5550TIP3   OH238140   3.608   3.347   0.465 -0.5528  0.1733 -0.3734
 5550TIP3    H138141   3.522   3.311   0.443 -1.1934  1.1583  0.3755
 5550TIP3    H238142   3.641   3.290   0.534  0.1193 -1.1419 -1.7514
 5551TIP3   OH238143   5.263   2.499   4.026  0.8896  0.3565 -0.2421
 5551TIP3    H138144   5.212   2.423   4.055  1.0689  0.6327  0.8564
 5551TIP3    H238145   5.331   2.463   3.970 -0.2558 -0.0591 -1.4245
 5552TIP3   OH238146   0.563   0.443  12.989 -0.0027 -0.3277 -0.2634
 5552TIP3    H138147   0.480   0.395  12.985 -0.7441  0.8422  0.2726
 5552TIP3    H238148   0.626   0.387  12.945 -1.1939 -1.0312 -1.1270
 5553TIP3   OH238149   4.016   6.207  17.067  0.7497 -0.5534 -0.3055
 5553TIP3    H138150   4.038   6.215  16.974  2.4828 -0.5026  0.0646
 5553TIP3    H238151   3.950   6.138  17.071  1.3669 -1.2410 -1.4893
 5554TIP3   OH238152   6.495   0.748   1.997 -0.2235  0.2825 -0.0750
 5554TIP3    H138153   6.525   0.774   1.910  2.3076  1.3356  1.0171
 5554TIP3    H238154   6.427   0.682   1.980  1.2730 -0.7354 -2.8283
 5555TIP3   OH238155   0.484   6.482   6.462  0.0093 -0.6973 -0.1712
 5555TIP3    H138156   0.396   6.481   6.498 -0.5104  2.6989 -0.9693
 5555TIP3    H238157   0.493   6.399   6.416 -1.8657 -2.1043  1.8346
 5556TIP3   OH238158   3.940   0.371  14.223  0.0949  0.1981  0.3205
 5556TIP3    H138159   3.952   0.292  14.170  0.8821 -0.1050  0.9271
 5556TIP3    H238160   3.849   0.398  14.206 -0.5653 -1.4728  0.9301
 5557TIP3   OH238161   3.797   2.727   5.881  0.2937 -0.3547 -0.4753
 5557TIP3    H138162   3.847   2.653   5.916 -0.9633 -1.4300 -0.8910
 5557TIP3    H238163   3.756   2.767   5.958  1.0052 -0.0532 -0.2465
 5558TIP3   OH238164   5.647   2.757  12.146 -0.3123 -0.0941 -0.3433
 5558TIP3    H138165   5.605   2.829  12.193  2.2004  0.5654  1.1007
 5558TIP3    H238166   5.741   2.774  12.155  0.3448 -2.4729 -1.7131
 5559TIP3   OH238167   0.072   2.798   5.339  0.6235 -0.2705  0.2040
 5559TIP3    H138168   0.110   2.710   5.349 -0.6085 -1.0933 -1.8414
 5559TIP3    H238169   0.125   2.839   5.271  0.5629  0.2267  0.4527
 5560TIP3   OH238170   3.160   0.834   2.909  0.3103 -0.0201 -0.4132
 5560TIP3    H138171   3.243   0.856   2.950  0.3553  0.9881 -0.9891
 5560TIP3    H238172   3.147   0.904   2.845  0.2038 -1.4604 -2.0334
 5561TIP3   OH238173   3.231   0.181  12.809 -0.4104 -0.1017 -0.4669
 5561TIP3    H138174   3.145   0.204  12.843 -0.8719 -0.8881 -1.0906
 5561TIP3    H238175   3.214   0.127  12.732  0.6208  0.7739 -1.3560
 5562TIP3   OH238176   0.100   1.163   3.544 -0.5786 -0.8533 -0.0446
 5562TIP3    H138177   0.024   1.183   3.489 -0.4589 -0.0847  0.0683
 5562TIP3    H238178   0.069   1.175   3.633 -0.1054  0.2773 -0.0200
 5563TIP3   OH238179   6.346   3.825  13.239 -0.1773 -0.4938 -0.0285
 5563TIP3    H138180   6.390   3.752  13.197  2.2319  0.4683  0.6440
 5563TIP3    H238181   6.392   3.903  13.208  0.7925  0.3586  3.0976
 5564TIP3   OH238182   2.830   3.956  13.837  0.2302 -0.0627  0.8911
 5564TIP3    H138183   2.895   3.943  13.906  1.3379 -0.5870 -0.2123
 5564TIP3    H238184   2.818   3.870  13.798 -2.1822 -0.2839  1.9203
 5565TIP3   OH238185   1.720   2.809   0.892  0.7932  0.3126  0.0236
 5565TIP3    H138186   1.732   2.865   0.815 -1.4274  0.8159 -0.0292
 5565TIP3    H238187   1.682   2.728   0.857  0.5953  0.2048  0.4821
 5566TIP3   OH238188   1.599   6.601   3.924  0.2587  0.5453 -0.0758
 5566TIP3    H138189   1.544   6.679   3.931 -0.3788  0.2089 -1.1097
 5566TIP3    H238190   1.676   6.621   3.978 -0.2965  1.5266  0.3834
 5567TIP3   OH238191   3.419   5.492  15.994  0.0487 -0.3812 -0.0424
 5567TIP3    H138192   3.340   5.542  15.974  0.9621  1.5552  0.9208
 5567TIP3    H238193   3.474   5.501  15.917  0.1642  0.0193  0.0860
 5568TIP3   OH238194   1.300   1.919   1.465 -0.6830  0.0732 -0.2636
 5568TIP3    H138195   1.231   1.864   1.501 -0.2768 -0.4113 -0.2221
 5568TIP3    H238196   1.376   1.862   1.458  0.0192  0.8450  0.6546
 5569TIP3   OH238197   5.206   5.758   4.305 -0.5529  0.7123  0.2157
 5569TIP3    H138198   5.145   5.795   4.369 -2.3664  0.7293 -1.4221
 5569TIP3    H238199   5.185   5.802   4.223  0.4800 -0.5435 -0.7714
 5570TIP3   OH238200   1.784   5.738   0.451 -0.0850  0.0853 -0.0266
 5570TIP3    H138201   1.715   5.789   0.409 -1.5084 -1.3508  0.4390
 5570TIP3    H238202   1.742   5.653   0.469  0.8930  0.1530  2.9606
 5571TIP3   OH238203   1.403   4.075   0.646  0.1598  0.2606  0.3274
 5571TIP3    H138204   1.497   4.059   0.653  0.2161  0.9663  1.3747
 5571TIP3    H238205   1.362   4.006   0.699  0.1797  0.9109  1.2057
 5572TIP3   OH238206   1.506   2.188   4.259  0.1155 -0.1565 -0.6976
 5572TIP3    H138207   1.586   2.221   4.220  0.6246  0.5002  0.8308
 5572TIP3    H238208   1.441   2.256   4.244  1.5603  2.6724  3.9242
 5573TIP3   OH238209   3.387   0.661   6.226  0.4505 -0.3561  0.2477
 5573TIP3    H138210   3.345   0.588   6.273  0.7856 -0.4430  0.4181
 5573TIP3    H238211   3.428   0.712   6.296  1.4684 -0.8186 -0.0021
 5574TIP3   OH238212   2.364   2.677  14.315  0.1558 -0.2886  0.1201
 5574TIP3    H138213   2.455   2.707  14.305  0.1346  0.8445  2.5266
 5574TIP3    H238214   2.370   2.582  14.303  1.7955 -0.3153  0.7724
 5575TIP3   OH238215   4.757   6.475   6.604 -0.0938 -0.4987 -0.5349
 5575TIP3    H138216   4.756   6.440   6.693  0.0864 -0.1976 -0.4100
 5575TIP3    H238217   4.688   6.428   6.559 -0.8276  0.0174  0.0297
 5576TIP3   OH238218   5.731   0.799  12.756 -0.0858 -0.8589  0.0701
 5576TIP3    H138219   5.728   0.891  12.782 -2.3169 -1.1317  1.0272
 5576TIP3    H238220   5.773   0.799  12.670  0.1091  1.0202  0.1317
 5577TIP3   OH238221   3.358   0.179   5.359 -1.0311  0.0103  0.5094
 5577TIP3    H138222   3.304   0.158   5.283 -0.3744  0.0705  0.0247
 5577TIP3    H238223   3.349   0.274   5.369 -0.2785  0.1560 -0.1393
 5578TIP3   OH238224   0.028   2.926  14.095 -0.0431  0.2560  0.1847
 5578TIP3    H138225  -0.043   2.904  14.155  0.3689 -1.6001  0.0631
 5578TIP3    H238226   0.051   3.016  14.116 -0.9094  0.1347  1.7768
 5579TIP3   OH238227   5.316   1.269   4.475 -0.7941  0.7856  0.3901
 5579TIP3    H138228   5.252   1.257   4.546  0.3605  0.7293  1.4682
 5579TIP3    H238229   5.382   1.202   4.491 -0.1483  1.2379 -0.3337
 5580TIP3   OH238230   0.496   1.958   3.301  0.4659  0.5808 -0.4830
 5580TIP3    H138231   0.416   2.009   3.287  0.0274  0.0581  0.0754
 5580TIP3    H238232   0.479   1.875   3.257 -0.0540 -0.2467  1.1956
 5581TIP3   OH238233   4.052   4.291   0.958  0.5968 -0.1862  0.1252
 5581TIP3    H138234   3.970   4.298   0.908  0.1095 -2.1616  0.5681
 5581TIP3    H238235   4.120   4.289   0.891  0.3356  1.6522 -0.2472
 5582TIP3   OH238236   4.813   6.543  14.327  0.1180 -0.1037 -0.0467
 5582TIP3    H138237   4.825   6.553  14.232 -2.0586  0.7738 -0.2842
 5582TIP3    H238238   4.895   6.504  14.357  0.7978 -0.5756 -2.3087
 5583TIP3   OH238239   5.490   2.232  14.079 -0.0822 -0.4674 -0.4082
 5583TIP3    H138240   5.490   2.138  14.097 -1.5593 -0.9044 -2.2899
 5583TIP3    H238241   5.410   2.264  14.121  0.8698  0.1652  0.9938
 5584TIP3   OH238242   5.549   4.716  15.401 -0.1216  0.0315  0.3228
 5584TIP3    H138243   5.613   4.648  15.420  0.2668  0.9924  2.8511
 5584TIP3    H238244   5.496   4.680  15.330  1.8920 -1.6440 -0.4246
 5585TIP3   OH238245   1.851   4.661   2.661 -0.2101  0.6075 -0.0156
 5585TIP3    H138246   1.832   4.677   2.753 -1.7017  0.0263 -0.1932
 5585TIP3    H238247   1.806   4.731   2.614 -1.5441 -0.4628 -0.4135
 5586TIP3   OH238248   3.963   3.062  15.362 -0.0438  0.6420 -0.3030
 5586TIP3    H138249   3.903   3.077  15.434 -0.0268  1.2257 -0.4074
 5586TIP3    H238250   3.909   3.069  15.283  0.2367  1.6404 -0.4224
 5587TIP3   OH238251   0.632   0.459   1.162 -0.2242  0.6288 -0.1931
 5587TIP3    H138252   0.586   0.539   1.141  0.9544  1.5875  0.6937
 5587TIP3    H238253   0.724   0.479   1.146 -0.0274 -1.0797 -1.5054
 5588TIP3   OH238254   3.089   5.929  11.135 -0.7236 -0.3832 -0.1630
 5588TIP3    H138255   3.151   5.893  11.071 -0.9485 -0.2371 -0.4608
 5588TIP3    H238256   3.081   5.860  11.201  1.1044  0.2576  0.8118
 5589TIP3   OH238257   4.306   0.608   1.242 -0.5267 -0.0843  0.0144
 5589TIP3    H138258   4.235   0.584   1.183  0.7845 -0.6007 -1.4096
 5589TIP3    H238259   4.316   0.702   1.232  0.1237 -0.2633 -1.1238
 5590TIP3   OH238260   5.686   0.367   3.040 -0.1508  0.2829 -0.0872
 5590TIP3    H138261   5.598   0.331   3.030 -0.1033 -0.3666  1.5619
 5590TIP3    H238262   5.678   0.459   3.015 -0.8333 -0.2056 -1.8881
 5591TIP3   OH238263   2.042   5.776   3.306  0.2741  0.6961  0.1287
 5591TIP3    H138264   2.031   5.870   3.295 -5.4520  0.5090  1.0541
 5591TIP3    H238265   2.105   5.767   3.377 -0.1720  3.9208  1.0800
 5592TIP3   OH238266   0.169   2.548   5.952 -0.4048 -0.0784 -0.0612
 5592TIP3    H138267   0.085   2.545   5.997 -1.6438 -0.1606 -2.2209
 5592TIP3    H238268   0.223   2.482   5.996 -0.2400  2.1138  3.4348
 5593TIP3   OH238269   3.169   2.716  11.857  0.6319  0.0376 -0.4357
 5593TIP3    H138270   3.190   2.722  11.764 -0.2646  1.7587 -0.5660
 5593TIP3    H238271   3.128   2.799  11.878 -0.9831 -1.0497  1.0431
 5594TIP3   OH238272   3.743   1.936   3.105  0.4667 -0.1737  0.6444
 5594TIP3    H138273   3.745   2.027   3.074  0.0477  0.3753  2.1597
 5594TIP3    H238274   3.832   1.918   3.133  0.6149 -0.3416  0.0873
 5595TIP3   OH238275   0.925   5.359   2.574 -0.0978 -0.0622  0.5376
 5595TIP3    H138276   0.868   5.286   2.548  0.8815 -0.9593  0.8194
 5595TIP3    H238277   0.913   5.366   2.668  0.6656 -0.6350  0.6871
 5596TIP3   OH238278   5.990   5.444   3.389  0.2043 -0.5153 -0.4889
 5596TIP3    H138279   6.057   5.511   3.382  0.3982 -0.7046 -0.4434
 5596TIP3    H238280   5.959   5.449   3.479  1.5048 -1.7188  0.0439
 5597TIP3   OH238281   2.695   4.462   1.584 -0.1133  0.0388 -0.2151
 5597TIP3    H138282   2.687   4.552   1.614  0.8204  0.0157  0.1132
 5597TIP3    H238283   2.787   4.440   1.595 -0.6501 -1.6348  1.6581
 5598TIP3   OH238284   5.724   5.652   4.806  0.2227 -0.3520  0.1602
 5598TIP3    H138285   5.679   5.587   4.752  0.7881  0.9017 -1.9666
 5598TIP3    H238286   5.803   5.608   4.836  1.2464 -0.4054 -2.2970
 5599TIP3   OH238287   6.203   4.494  14.501  0.3938 -0.2680 -0.1957
 5599TIP3    H138288   6.171   4.543  14.577  3.1680 -0.3822  1.1880
 5599TIP3    H238289   6.221   4.560  14.435  0.1269  0.1077  0.1065
 5600TIP3   OH238290   2.146   4.467  14.893  0.3156 -0.1163 -0.4391
 5600TIP3    H138291   2.098   4.388  14.870 -2.6563  0.7211  2.1907
 5600TIP3    H238292   2.089   4.539  14.867  2.0951  1.1726 -1.0184
 5601TIP3   OH238293   5.077   5.904  15.121  0.3201  0.4242 -0.1808
 5601TIP3    H138294   5.137   5.973  15.092 -0.0972  0.6773 -0.4588
 5601TIP3    H238295   5.072   5.915  15.216  2.6106 -1.1430  0.2076
 5602TIP3   OH238296   3.460   4.812  14.392 -0.1849  0.1907 -0.2996
 5602TIP3    H138297   3.413   4.746  14.340 -2.3755  0.0460  1.6896
 5602TIP3    H238298   3.400   4.887  14.395  1.0801  1.2338 -0.2126
 5603TIP3   OH238299   0.232   0.231  13.858 -0.1584  0.2718  0.8147
 5603TIP3    H138300   0.265   0.217  13.769  1.3587  0.7144  1.2681
 5603TIP3    H238301   0.151   0.181  13.861  1.0017 -1.8250 -0.0741
 5604TIP3   OH238302   0.962   5.914  14.922  0.4946 -0.5915  0.6823
 5604TIP3    H138303   1.007   5.908  15.006  0.0853  3.8661  1.4698
 5604TIP3    H238304   0.872   5.885  14.940  0.9151 -1.6533  1.1751
 5605TIP3   OH238305   1.978   2.176   1.296 -0.2467 -0.5848  0.0929
 5605TIP3    H138306   1.988   2.213   1.208  0.7368 -1.6377 -0.2684
 5605TIP3    H238307   2.027   2.094   1.293  1.6136  0.3375  2.2332
 5606TIP3   OH238308   5.788   6.606   0.816 -0.0536  0.7868 -0.0950
 5606TIP3    H138309   5.777   6.533   0.755  1.1172  0.7137 -0.2411
 5606TIP3    H238310   5.852   6.574   0.880 -0.8670  1.0567  0.8789
 5607TIP3   OH238311   2.099   4.921  17.088  0.0691 -0.2701 -0.1612
 5607TIP3    H138312   2.117   4.965  17.005  2.3033 -0.4385  0.1787
 5607TIP3    H238313   2.090   4.829  17.065  0.6169 -0.3075 -0.2284
 5608TIP3   OH238314   5.318   4.163   1.002 -0.3558 -0.3109  0.0872
 5608TIP3    H138315   5.322   4.075   0.967 -1.0790  0.1264 -1.1506
 5608TIP3    H238316   5.229   4.193   0.982  1.2218  2.4772 -4.1012
 5609TIP3   OH238317   3.679   4.574   1.123  0.3155 -0.8970 -0.5867
 5609TIP3    H138318   3.720   4.618   1.048  0.9713  0.5724  0.5781
 5609TIP3    H238319   3.752   4.548   1.178 -0.0437  3.9217  2.7551
 5610TIP3   OH238320   0.006   0.064  16.557  0.5874 -0.3362  0.3389
 5610TIP3    H138321   0.012   0.148  16.603  0.6071  0.4201 -0.9806
 5610TIP3    H238322  -0.083   0.061  16.523  0.8673 -0.4161 -0.4041
 5611TIP3   OH238323   3.349   2.487   1.403 -0.1952  0.4355  0.3072
 5611TIP3    H138324   3.426   2.463   1.351 -0.8344 -1.6547  0.2248
 5611TIP3    H238325   3.385   2.514   1.488  0.6634 -0.6452  0.3193
 5612TIP3   OH238326   2.708   5.226   3.297  0.6674 -0.8288  0.6730
 5612TIP3    H138327   2.636   5.188   3.347 -0.4183  1.8746  1.3317
 5612TIP3    H238328   2.743   5.153   3.245 -2.8826 -2.1677 -0.0898
 5613TIP3   OH238329   6.161   1.046  13.646  0.1610 -0.5835  0.3709
 5613TIP3    H138330   6.178   0.967  13.697 -0.8187 -0.2268  1.2933
 5613TIP3    H238331   6.096   1.020  13.581  1.7514 -1.1545 -1.0554
 5614TIP3   OH238332   4.508   4.101  15.605 -0.4239  0.0915  0.0089
 5614TIP3    H138333   4.558   4.110  15.524 -2.2129  1.1376 -1.0567
 5614TIP3    H238334   4.450   4.026  15.588  1.2306 -1.6471  1.5440
 5615TIP3   OH238335   0.276   5.704  14.358 -0.3410 -0.1679 -0.1109
 5615TIP3    H138336   0.224   5.666  14.287 -0.6168 -1.8581  0.9292
 5615TIP3    H238337   0.220   5.773  14.394 -1.7593 -1.6652  0.7075
 5616TIP3   OH238338   1.171   4.286   4.841 -0.9915 -0.3368  0.2823
 5616TIP3    H138339   1.205   4.257   4.926 -1.0280 -0.0664  0.3899
 5616TIP3    H238340   1.220   4.365   4.821 -0.5658 -0.7221 -0.2316
 5617TIP3   OH238341   2.190   3.085  12.109  0.4756 -0.2822 -0.7330
 5617TIP3    H138342   2.122   3.128  12.161  0.9921  0.3905 -0.5971
 5617TIP3    H238343   2.239   3.033  12.172 -0.0691 -0.9817 -0.8755
 5618TIP3   OH238344   2.625   3.834   5.161 -0.1145 -0.2484  0.2444
 5618TIP3    H138345   2.557   3.871   5.104  0.1143  0.8410  0.6507
 5618TIP3    H238346   2.682   3.786   5.102 -1.3401 -1.3500 -0.0766
 5619TIP3   OH238347   0.412   0.441   2.889  0.5495  0.2412 -0.5160
 5619TIP3    H138348   0.493   0.490   2.878  0.9614 -0.3477 -0.1608
 5619TIP3    H238349   0.343   0.506   2.875  1.0815  0.9592  0.1279
 5620TIP3   OH238350   3.318   2.872   5.324 -0.5386 -0.8143 -0.3759
 5620TIP3    H138351   3.321   2.904   5.234 -1.3069 -2.2462 -0.9467
 5620TIP3    H238352   3.406   2.835   5.339  0.0017  0.5390 -0.0735
 5621TIP3   OH238353   3.599   1.977   5.933  0.1878  0.1015  0.0270
 5621TIP3    H138354   3.644   2.056   5.964 -1.9893  0.1312  3.8037
 5621TIP3    H238355   3.658   1.905   5.956  0.5594  0.4301  0.1061
 5622TIP3   OH238356   3.028   3.317   1.849 -0.1488 -0.1606 -0.1749
 5622TIP3    H138357   2.983   3.388   1.895 -1.0246 -0.6228 -0.2783
 5622TIP3    H238358   3.061   3.357   1.769 -1.7616 -0.1111 -0.8693
 5623TIP3   OH238359   4.056   3.414   3.917  0.5562  0.0647 -0.2581
 5623TIP3    H138360   4.041   3.373   3.831  1.1692 -0.0544 -0.3131
 5623TIP3    H238361   4.132   3.470   3.903  0.0695  0.7885 -0.0319
 5624TIP3   OH238362   3.686   1.009   3.234 -0.3923  0.5502 -0.0143
 5624TIP3    H138363   3.764   1.051   3.271 -1.6951  2.8525  0.2700
 5624TIP3    H238364   3.649   0.958   3.307  0.0968  0.5365  0.2285
 5625TIP3   OH238365   3.111   4.719  16.264 -0.1900  0.4888 -0.6881
 5625TIP3    H138366   3.061   4.735  16.184  1.5249 -1.9321 -2.3796
 5625TIP3    H238367   3.147   4.805  16.287 -2.3533  1.6247 -1.2961
 5626TIP3   OH238368   6.591   2.404  11.415  0.4849 -0.5646  0.1190
 5626TIP3    H138369   6.517   2.446  11.371  1.6903 -0.0666 -1.5432
 5626TIP3    H238370   6.568   2.406  11.508 -1.4754 -0.2357 -0.3247
 5627TIP3   OH238371   1.267   5.208  12.327  0.0165 -0.3180  0.1278
 5627TIP3    H138372   1.226   5.177  12.407 -0.8199 -1.7211 -0.8029
 5627TIP3    H238373   1.211   5.280  12.297 -2.3512 -2.6599 -1.5092
 5628TIP3   OH238374   4.165   1.788  10.485 -0.4472  0.0372  0.2717
 5628TIP3    H138375   4.139   1.715  10.429 -1.7538 -0.4850  1.4741
 5628TIP3    H238376   4.245   1.758  10.528  1.3732  0.9820 -2.2174
 5629TIP3   OH238377   2.030   4.486   4.736  0.2234  0.2745  0.2249
 5629TIP3    H138378   2.083   4.564   4.753 -2.2929  1.8723  1.2436
 5629TIP3    H238379   1.986   4.468   4.819  1.9827 -3.3948  0.5762
 5630TIP3   OH238380   1.835   5.614   2.947 -0.9067  0.7904  0.0532
 5630TIP3    H138381   1.860   5.690   2.893 -1.6994  0.3575 -0.9388
 5630TIP3    H238382   1.835   5.541   2.886  1.9623 -0.4891  1.3899
 5631TIP3   OH238383   4.422   5.752   5.176 -0.2184 -0.2501  0.0940
 5631TIP3    H138384   4.510   5.749   5.138 -0.9222  0.0682 -1.6329
 5631TIP3    H238385   4.434   5.797   5.260  1.7599 -3.0473  1.4730
 5632TIP3   OH238386   2.191   4.512  15.296  0.0135  0.5009  0.3604
 5632TIP3    H138387   2.158   4.435  15.344  0.5476  0.8630  1.3547
 5632TIP3    H238388   2.279   4.485  15.267 -0.4597  0.1423 -0.7909
 5633TIP3   OH238389   3.682   6.074   3.795  0.0929  0.4692 -0.3165
 5633TIP3    H138390   3.649   6.121   3.872 -0.2445 -1.8728  1.0632
 5633TIP3    H238391   3.615   6.089   3.728 -2.2941 -1.5288  1.4378
 5634TIP3   OH238392   2.813   1.201   1.455 -0.5469 -0.8023  0.7152
 5634TIP3    H138393   2.734   1.240   1.418  1.9136  3.2376 -0.9170
 5634TIP3    H238394   2.835   1.129   1.396 -0.7508  0.7542 -1.3397
 5635TIP3   OH238395   4.360   2.850   3.133 -0.2071  0.4566 -0.1020
 5635TIP3    H138396   4.431   2.788   3.118  0.1080  0.9234 -0.5573
 5635TIP3    H238397   4.289   2.818   3.078  0.0700  0.6849 -0.6002
 5636TIP3   OH238398   2.681   1.240   2.916  0.1168 -0.0118  0.3058
 5636TIP3    H138399   2.645   1.328   2.926 -0.1556 -0.0047 -0.6942
 5636TIP3    H238400   2.678   1.203   3.005  0.3094  1.0061  0.7471
 5637TIP3   OH238401   2.856   5.008  16.899  0.5322 -0.2134  0.1221
 5637TIP3    H138402   2.785   4.977  16.844 -1.2740 -0.7022  2.5257
 5637TIP3    H238403   2.861   4.945  16.971  1.0174  1.6467  1.8503
 5638TIP3   OH238404   1.999   6.100  13.093  0.6320 -0.5951  0.2015
 5638TIP3    H138405   2.015   6.164  13.162 -2.0696 -0.5494  0.9335
 5638TIP3    H238406   2.064   6.119  13.026  1.9624  0.7786  1.7926
 5639TIP3   OH238407   1.875   1.514  15.199 -0.0088  0.8292 -0.0792
 5639TIP3    H138408   1.792   1.491  15.156  0.3597 -0.8623  0.0557
 5639TIP3    H238409   1.943   1.489  15.136  0.4973 -0.8668  1.0751
 5640TIP3   OH238410   5.008   1.655  11.376 -0.3957  0.3261  0.7012
 5640TIP3    H138411   4.947   1.674  11.447  0.5653  1.6484  1.2223
 5640TIP3    H238412   5.054   1.576  11.403 -1.0632 -0.0215  0.8365
 5641TIP3   OH238413   0.217   0.773   1.850 -0.4846 -0.5100  0.1006
 5641TIP3    H138414   0.226   0.679   1.866 -0.8357 -0.6736 -0.6159
 5641TIP3    H238415   0.193   0.810   1.935  3.5062 -0.4835  1.4587
 5642TIP3   OH238416   3.842   0.078   1.059  0.4037  0.9268  0.0321
 5642TIP3    H138417   3.925   0.110   1.023  0.2298  0.8677 -0.4302
 5642TIP3    H238418   3.850  -0.018   1.053  0.0500  0.9279 -0.6172
 5643TIP3   OH238419   5.852   0.555   0.147  1.3031  0.1330 -0.1509
 5643TIP3    H138420   5.780   0.618   0.139  1.2005 -0.1078 -1.4324
 5643TIP3    H238421   5.912   0.594   0.210  0.8850  1.1595 -0.3708
 5644TIP3   OH238422   0.405   6.239   1.510 -0.4926  0.0489 -0.0434
 5644TIP3    H138423   0.497   6.256   1.532 -0.6345  2.9234 -1.2678
 5644TIP3    H238424   0.356   6.270   1.586 -0.5972  3.0868 -1.2123
 5645TIP3   OH238425   4.495   6.173   2.155  0.3808  0.6056 -0.3887
 5645TIP3    H138426   4.414   6.145   2.113  0.7944  1.5499 -1.8888
 5645TIP3    H238427   4.478   6.165   2.249 -0.4745 -1.8718 -0.6933
 5646TIP3   OH238428   5.252   4.101  10.372 -0.7512 -0.4088  0.1969
 5646TIP3    H138429   5.237   4.014  10.411  0.1762 -1.1820 -1.1186
 5646TIP3    H238430   5.173   4.117  10.320 -0.3585 -1.0775 -0.6267
 5647TIP3   OH238431   5.549   1.991  15.946 -0.1388 -0.4291 -0.2321
 5647TIP3    H138432   5.477   1.972  15.885  0.1969  0.3605 -0.8979
 5647TIP3    H238433   5.507   2.041  16.016 -0.0215  1.3348 -1.3532
 5648TIP3   OH238434   3.538   3.283  12.793  0.0117  0.1767  0.2584
 5648TIP3    H138435   3.492   3.265  12.710  2.4900  1.1820 -1.4720
 5648TIP3    H238436   3.480   3.341  12.841 -0.9384  0.6726 -1.4011
 5649TIP3   OH238437   4.978   6.099   4.552 -0.3602  0.2284  0.0933
 5649TIP3    H138438   5.034   6.142   4.487 -1.1313  0.3890 -0.4821
 5649TIP3    H238439   4.906   6.062   4.500 -0.8767  0.1780  0.8378
 5650TIP3   OH238440   0.354   0.869   4.342 -0.2946 -0.7903  0.1865
 5650TIP3    H138441   0.282   0.896   4.284  0.3421  1.6510  0.4380
 5650TIP3    H238442   0.310   0.837   4.421 -1.1439  0.5429  0.2880
 5651TIP3   OH238443   1.307   4.899  13.213  0.0022 -0.6520 -0.0403
 5651TIP3    H138444   1.318   4.952  13.134 -2.9640  0.1478 -0.0233
 5651TIP3    H238445   1.258   4.955  13.273 -0.6066 -2.3694  1.1427
 5652TIP3   OH238446   6.380   3.977   4.213 -0.0508 -0.4160  0.7731
 5652TIP3    H138447   6.420   4.049   4.261 -1.6647 -0.5025  2.3562
 5652TIP3    H238448   6.421   3.898   4.248 -0.6320 -0.4290  1.4486
 5653TIP3   OH238449   2.893   2.911   5.225  0.4731  0.6806 -0.2094
 5653TIP3    H138450   2.872   2.900   5.132  0.1542  0.1853 -0.0854
 5653TIP3    H238451   2.808   2.903   5.269  0.9260 -1.6314  0.3353
 5654TIP3   OH238452   5.943   3.559  11.660 -0.1588 -0.2808 -0.0607
 5654TIP3    H138453   6.034   3.548  11.689 -0.0601  1.4031  0.3772
 5654TIP3    H238454   5.947   3.554  11.565 -0.0371 -2.8759  0.0136
 5655TIP3   OH238455   2.964   5.579   3.766 -0.2734  0.1928  0.5107
 5655TIP3    H138456   2.967   5.489   3.735  1.1734  0.1192  0.7787
 5655TIP3    H238457   2.898   5.621   3.711 -0.2797 -0.7942 -0.2610
 5656TIP3   OH238458   1.936   1.144   4.286 -0.0979 -0.2336 -0.1397
 5656TIP3    H138459   1.885   1.066   4.267  0.1211 -0.2682 -0.6029
 5656TIP3    H238460   2.027   1.115   4.276  0.0063 -0.1267  0.4898
 5657TIP3   OH238461   1.421   5.838   2.814 -0.2420  0.1859 -0.5398
 5657TIP3    H138462   1.387   5.849   2.903 -0.3769 -0.0930 -0.5573
 5657TIP3    H238463   1.364   5.772   2.775 -1.5863  1.8588 -1.5442
 5658TIP3   OH238464   4.541   6.494   0.558 -0.1606  0.4001  0.3295
 5658TIP3    H138465   4.589   6.553   0.617 -1.0092  0.7326  0.7001
 5658TIP3    H238466   4.607   6.466   0.494  0.7778  0.0588  1.4014
 5659TIP3   OH238467   4.074   0.718  14.287  0.3354  0.5440 -0.1199
 5659TIP3    H138468   4.021   0.678  14.218 -1.6935  0.7802  1.2078
 5659TIP3    H238469   4.141   0.653  14.307  0.5283  0.1800 -1.7767
 5660TIP3   OH238470   2.075   0.420   0.569  0.1662 -0.5602 -0.0895
 5660TIP3    H138471   2.040   0.335   0.596 -0.1111 -0.1572  0.9023
 5660TIP3    H238472   2.107   0.406   0.480 -0.1735 -1.6126 -0.0662
 5661TIP3   OH238473   6.221   0.734  15.380 -0.1990 -0.3014 -0.1057
 5661TIP3    H138474   6.221   0.672  15.307 -1.0280 -1.3848  0.7846
 5661TIP3    H238475   6.264   0.687  15.452 -0.8827  0.1168  0.5929
 5662TIP3   OH238476   2.458   5.133   3.891 -0.0873  0.1094  0.5544
 5662TIP3    H138477   2.490   5.093   3.972  1.5237 -0.1647 -0.1791
 5662TIP3    H238478   2.497   5.080   3.822  0.1380  1.4885 -0.4110
 5663TIP3   OH238479   4.943   6.032   1.726  0.1599 -0.5912 -0.1602
 5663TIP3    H138480   5.028   6.001   1.758  0.3398 -0.2621 -0.3087
 5663TIP3    H238481   4.949   6.025   1.631  0.0065 -0.6001 -0.1695
 5664TIP3   OH238482   4.433   2.020   1.279 -0.1738 -0.0207  0.1200
 5664TIP3    H138483   4.527   2.018   1.297  0.0912  0.9505 -1.0055
 5664TIP3    H238484   4.412   1.932   1.250  0.9029  0.3282 -1.8956
 5665TIP3   OH238485   1.747   1.183  13.300 -0.2567  0.0529 -0.3429
 5665TIP3    H138486   1.839   1.205  13.284 -0.5659  0.3341 -1.8922
 5665TIP3    H238487   1.699   1.264  13.281 -0.7080  0.4736  2.2495
 5666TIP3   OH238488   5.829   4.146   1.694  0.4196 -0.6206 -0.3866
 5666TIP3    H138489   5.896   4.214   1.700  0.2555 -0.5953  1.9765
 5666TIP3    H238490   5.754   4.190   1.654  0.1861  0.7611  1.4491
 5667TIP3   OH238491   2.835   0.252   1.479 -0.5634 -0.2105 -0.2522
 5667TIP3    H138492   2.894   0.279   1.408  2.1108 -1.1082  1.5024
 5667TIP3    H238493   2.869   0.168   1.508 -1.2576  0.3568  2.4285
 5668TIP3   OH238494   5.593   4.214  13.996  0.4304  0.2632 -0.4706
 5668TIP3    H138495   5.635   4.283  13.946  0.5414  0.1879 -0.4804
 5668TIP3    H238496   5.518   4.257  14.038 -0.9124 -0.1124 -2.3609
 5669TIP3   OH238497   4.796   5.978  16.046  0.3867 -0.1533  0.5793
 5669TIP3    H138498   4.738   6.032  16.099  0.9579  1.6256 -0.5238
 5669TIP3    H238499   4.844   6.040  15.991  2.8067 -1.5830  0.8995
 5670TIP3   OH238500   3.933   4.502   5.691  0.0695  0.5857  0.1549
 5670TIP3    H138501   3.961   4.417   5.658  1.0297  0.6637  0.7036
 5670TIP3    H238502   3.897   4.547   5.615  1.8433  0.6084 -0.7426
 5671TIP3   OH238503   3.422   3.260  11.367 -0.1645  0.2280  0.0664
 5671TIP3    H138504   3.458   3.328  11.423  0.0182 -0.3767  0.6961
 5671TIP3    H238505   3.484   3.254  11.293 -1.1187  1.9620 -0.9294
 5672TIP3   OH238506   0.034   2.795  12.980  0.0131  0.0223  0.2380
 5672TIP3    H138507  -0.007   2.855  12.917 -1.1587 -0.0842  0.8646
 5672TIP3    H238508   0.090   2.739  12.927  0.2132  0.9138 -0.5115
 5673TIP3   OH238509   4.210   5.914  16.792 -0.1275  0.0612  0.2120
 5673TIP3    H138510   4.201   5.907  16.887 -0.0936 -2.6247  0.1047
 5673TIP3    H238511   4.299   5.947  16.779 -0.5446  1.6259  1.0809
 5674TIP3   OH238512   3.394   4.277  11.470  0.0619 -0.3840  0.3061
 5674TIP3    H138513   3.440   4.344  11.419 -0.3874 -0.0768  0.2981
 5674TIP3    H238514   3.464   4.228  11.514  0.3812  2.0880  2.8861
 5675TIP3   OH238515   3.677   3.242  16.915 -0.2656 -0.2257 -0.3085
 5675TIP3    H138516   3.694   3.256  16.822  1.2265  0.5650  0.0580
 5675TIP3    H238517   3.763   3.229  16.954 -0.8068  0.0854  1.0677
 5676TIP3   OH238518   2.176   0.246  15.965  0.0513  0.4442 -0.0587
 5676TIP3    H138519   2.087   0.260  15.932  0.7073  1.4961 -1.5362
 5676TIP3    H238520   2.210   0.174  15.912  0.3391  0.5855 -0.0705
 5677TIP3   OH238521   5.561   1.608  15.336  0.4884  0.0341  0.2994
 5677TIP3    H138522   5.601   1.590  15.252 -1.0022  0.3812 -0.5211
 5677TIP3    H238523   5.564   1.703  15.346 -0.1087  0.0661  0.2254
 5678TIP3   OH238524   2.643   5.019   5.287 -0.0947 -0.1538 -0.1417
 5678TIP3    H138525   2.718   5.000   5.232  0.3616 -2.9884  1.2245
 5678TIP3    H238526   2.567   5.009   5.230  0.4529 -0.7397 -0.7749
 5679TIP3   OH238527   0.219   5.957  12.829  0.0880 -0.2005  0.3986
 5679TIP3    H138528   0.289   6.014  12.799  0.1194 -0.1084  0.6451
 5679TIP3    H238529   0.262   5.873  12.848  0.2971  0.1232  1.4240
 5680TIP3   OH238530   5.854   6.349   1.721 -0.3656 -0.1122 -0.1577
 5680TIP3    H138531   5.801   6.423   1.750  0.1594 -0.3058  1.3652
 5680TIP3    H238532   5.926   6.345   1.784  0.1333 -1.3361 -0.7820
 5681TIP3   OH238533   0.051   1.996  16.993 -0.1798  0.0422  0.0609
 5681TIP3    H138534   0.080   1.952  17.073  0.4680  0.6455  0.1620
 5681TIP3    H238535  -0.044   1.983  16.993 -0.1798 -0.0653  0.8721
 5682TIP3   OH238536   2.572   2.766  12.340  0.0613 -0.0781 -0.4033
 5682TIP3    H138537   2.643   2.706  12.315 -0.2262  0.3373 -2.4156
 5682TIP3    H238538   2.612   2.827  12.401  1.0605 -0.6892 -0.4170
 5683TIP3   OH238539   0.813   2.892   4.008 -0.5336 -0.0717 -0.3088
 5683TIP3    H138540   0.759   2.845   4.072  1.4868 -0.4518  1.2421
 5683TIP3    H238541   0.750   2.936   3.950 -2.4599 -0.4322  1.3959
 5684TIP3   OH238542   2.243   0.577  15.653 -0.3192 -0.0008 -0.7553
 5684TIP3    H138543   2.210   0.658  15.614  0.2934  1.0185  0.7562
 5684TIP3    H238544   2.176   0.512  15.634 -1.4890  1.1762 -0.8016
 5685TIP3   OH238545   1.998   6.130   1.426  0.2632 -0.3123 -0.2042
 5685TIP3    H138546   2.030   6.207   1.379 -1.2721  0.8256  0.5292
 5685TIP3    H238547   1.925   6.098   1.373 -0.4643  0.0333  0.5653
 5686TIP3   OH238548   2.314   2.167  13.629  0.3821 -0.4045  0.2589
 5686TIP3    H138549   2.399   2.179  13.587  0.3367 -1.0937 -0.0400
 5686TIP3    H238550   2.295   2.252  13.669 -0.0137  0.5687 -1.8894
 5687TIP3   OH238551   1.802   2.137  12.205  0.5035 -0.1357  0.0255
 5687TIP3    H138552   1.752   2.160  12.284  2.1659 -0.2920  1.1847
 5687TIP3    H238553   1.835   2.220  12.172  0.2715 -0.1290 -0.1953
 5688TIP3   OH238554   0.723   1.478   1.622  0.7159  0.9254 -0.3032
 5688TIP3    H138555   0.716   1.571   1.644 -1.6374  0.7663 -0.1041
 5688TIP3    H238556   0.639   1.441   1.650  0.6024 -0.7636 -2.6338
 5689TIP3   OH238557   6.468   0.222  11.400 -0.1792 -0.6297  0.1488
 5689TIP3    H138558   6.433   0.253  11.484 -0.0340 -2.3136  0.8808
 5689TIP3    H238559   6.508   0.299  11.360 -3.3984  1.0674 -0.0693
 5690TIP3   OH238560   6.753   2.228  15.827 -0.2286 -0.0981 -0.2927
 5690TIP3    H138561   6.763   2.244  15.920  2.1243 -0.1199 -0.4874
 5690TIP3    H238562   6.773   2.312  15.786 -0.3337 -0.3254 -0.8222
 5691TIP3   OH238563   1.530   3.955  11.414  1.0226  0.7441  0.2145
 5691TIP3    H138564   1.449   3.943  11.365 -0.2826 -0.2811  2.4607
 5691TIP3    H238565   1.573   4.030  11.372 -0.9819  1.2004 -1.1625
 5692TIP3   OH238566   2.416   2.846  10.722 -0.7887  0.4180 -0.2538
 5692TIP3    H138567   2.376   2.782  10.781 -1.2633  1.1702  0.2546
 5692TIP3    H238568   2.506   2.853  10.753 -1.1759  1.1995  0.7354
 5693TIP3   OH238569   4.043   4.054   1.092 -0.3089 -0.0435  0.5121
 5693TIP3    H138570   4.131   4.016   1.094 -0.2539  0.0632  0.1209
 5693TIP3    H238571   4.053   4.134   1.041 -0.6857 -0.1697  0.2383
 5694TIP3   OH238572   0.030   0.700   2.454  0.3933 -0.2117 -0.1520
 5694TIP3    H138573  -0.035   0.703   2.525 -0.0596  0.9822 -0.5872
 5694TIP3    H238574   0.111   0.672   2.497  0.5493  2.0528  1.1917
 5695TIP3   OH238575   0.071   1.186   1.256  0.1098 -0.7206 -0.0728
 5695TIP3    H138576   0.133   1.114   1.252  0.4365 -0.3926 -1.4729
 5695TIP3    H238577  -0.002   1.158   1.201  0.0719 -0.1307 -0.3292
 5696TIP3   OH238578   3.701   1.057   5.562 -0.5372  0.7694 -0.4375
 5696TIP3    H138579   3.714   0.963   5.576 -1.6821  0.5322 -0.8619
 5696TIP3    H238580   3.789   1.092   5.553 -0.1014 -0.3155 -0.5898
 5697TIP3   OH238581   4.327   0.208  15.638 -0.8024  0.1923 -0.5923
 5697TIP3    H138582   4.365   0.236  15.555 -2.8896 -1.4089 -2.2121
 5697TIP3    H238583   4.239   0.243  15.637 -2.6568 -3.8467 -1.5622
 5698TIP3   OH238584   1.217   4.628  11.613  0.0614  0.1881  0.2815
 5698TIP3    H138585   1.274   4.666  11.546 -1.4945  2.0351 -0.0792
 5698TIP3    H238586   1.182   4.548  11.573 -1.1981  1.4885 -1.3589
 5699TIP3   OH238587   1.277   3.276   3.561 -0.0912 -0.1460 -0.5170
 5699TIP3    H138588   1.284   3.365   3.527 -0.3012 -0.7769 -2.2860
 5699TIP3    H238589   1.300   3.284   3.654 -2.4742  2.1376 -0.0039
 5700TIP3   OH238590   6.621   5.209   2.465  0.1372 -0.5144 -0.0470
 5700TIP3    H138591   6.653   5.260   2.390 -0.3870 -0.0007  0.0687
 5700TIP3    H238592   6.535   5.247   2.484 -0.7918 -2.2240 -0.6830
 5701TIP3   OH238593   1.220   0.717  11.883  0.1161  0.1317 -0.0104
 5701TIP3    H138594   1.131   0.751  11.879 -0.8597 -2.1306  1.1516
 5701TIP3    H238595   1.275   0.796  11.882 -1.7502  1.5531 -2.3759
 5702TIP3   OH238596   2.166   3.893  11.133 -0.5542  0.2956 -0.0796
 5702TIP3    H138597   2.170   3.988  11.121 -0.2788  0.2936 -0.0067
 5702TIP3    H238598   2.094   3.880  11.196 -0.2884  0.4911  0.2677
 5703TIP3   OH238599   1.286   0.739  15.022  0.7196 -0.4557 -0.1989
 5703TIP3    H138600   1.206   0.689  15.035  0.3295  0.1947 -0.1039
 5703TIP3    H238601   1.258   0.830  15.016  1.2917 -0.3351 -1.6069
 5704TIP3   OH238602   2.952   0.275   3.323 -0.4101 -0.4870  0.5819
 5704TIP3    H138603   2.958   0.326   3.242  0.0944  0.4269  1.1834
 5704TIP3    H238604   2.861   0.283   3.351  0.2044  2.3997  2.1104
 5705TIP3   OH238605   2.984   4.754  15.764 -0.2937 -0.1415 -0.1958
 5705TIP3    H138606   2.940   4.838  15.757 -1.3142 -0.6871 -0.6075
 5705TIP3    H238607   2.999   4.727  15.673  1.3650  0.2427 -0.0779
 5706TIP3   OH238608   5.804   4.975  13.030  0.2922  0.0787 -0.7238
 5706TIP3    H138609   5.816   4.882  13.013  0.4908  0.1897 -1.1934
 5706TIP3    H238610   5.877   4.999  13.087 -0.9229 -0.5126  1.1734
 5707TIP3   OH238611   5.522   0.153  12.243  0.2125  0.2592  0.3652
 5707TIP3    H138612   5.570   0.108  12.313  2.6529  0.4143 -1.0841
 5707TIP3    H238613   5.520   0.090  12.171 -1.9223  0.2390  0.3768
 5708TIP3   OH238614   1.719   2.081  12.488 -0.3261  0.2414  0.5438
 5708TIP3    H138615   1.650   2.127  12.536  0.3570 -0.0461  1.8539
 5708TIP3    H238616   1.750   2.015  12.550  1.2902  0.5269  0.0644
 5709TIP3   OH238617   5.138   0.968   4.102 -0.2819 -0.1871  0.3284
 5709TIP3    H138618   5.127   0.892   4.159 -1.9037 -0.5334 -0.3875
 5709TIP3    H238619   5.063   1.024   4.121 -0.1956  0.2585 -0.5874
 5710TIP3   OH238620   2.186   5.945  15.618  0.2239  0.3073  0.3842
 5710TIP3    H138621   2.229   5.982  15.540  1.2472 -0.9411  0.3271
 5710TIP3    H238622   2.107   5.902  15.584  0.6455 -0.1976  0.0315
 5711TIP3   OH238623   5.744   4.013   3.190  0.4502 -0.6149 -0.4473
 5711TIP3    H138624   5.717   4.007   3.282 -0.9936 -0.5925 -0.8497
 5711TIP3    H238625   5.735   4.106   3.169  2.8682 -0.2236 -0.0407
 5712TIP3   OH238626   5.714   2.610  10.910 -0.1642 -0.1465 -0.7109
 5712TIP3    H138627   5.679   2.534  10.864  0.1098 -1.1416  0.6298
 5712TIP3    H238628   5.764   2.658  10.844  1.6034 -2.3896 -1.1180
 5713TIP3   OH238629   4.015   6.222   3.476  0.0583 -0.0744 -0.0104
 5713TIP3    H138630   4.072   6.242   3.550 -0.7750 -0.7231  0.8306
 5713TIP3    H238631   3.927   6.243   3.507 -0.2039  0.7852 -1.2447
 5714TIP3   OH238632   6.019   6.830   1.049 -0.2350  0.5692 -0.3605
 5714TIP3    H138633   6.006   6.906   0.992  0.2792  0.2890 -0.8648
 5714TIP3    H238634   5.947   6.834   1.111  1.9949  3.8864  2.3860
 5715TIP3   OH238635   6.453   4.816  15.214 -0.0296  0.1146 -0.3879
 5715TIP3    H138636   6.410   4.734  15.191 -1.7261  1.0069 -0.5590
 5715TIP3    H238637   6.498   4.797  15.297 -0.3711 -0.9791 -0.4369
 5716TIP3   OH238638   5.450   4.681   2.201  0.4498  0.3517 -0.2423
 5716TIP3    H138639   5.499   4.727   2.270  2.3773 -0.4884 -0.9900
 5716TIP3    H238640   5.447   4.590   2.231  0.9876  0.0508 -1.0743
 5717TIP3   OH238641   4.188   4.002  15.978  0.0981 -0.0560 -0.1220
 5717TIP3    H138642   4.270   3.958  15.957  0.3023  0.9978 -1.7260
 5717TIP3    H238643   4.214   4.091  16.003 -0.5877  0.5989 -1.6243
 5718TIP3   OH238644   5.574   2.865  16.097 -0.1407  0.0360 -0.6207
 5718TIP3    H138645   5.618   2.879  16.013  2.4977 -0.4194  0.5637
 5718TIP3    H238646   5.585   2.772  16.114  1.1610  0.4339  1.0562
 5719TIP3   OH238647   1.834   6.676   1.530  0.1523  0.0619 -0.1794
 5719TIP3    H138648   1.848   6.646   1.620 -1.9526  0.4452  0.3379
 5719TIP3    H238649   1.739   6.671   1.519  0.2335  1.6197 -1.8193
 5720TIP3   OH238650   6.423   3.294  12.918 -0.1632  0.0725  0.0408
 5720TIP3    H138651   6.513   3.323  12.901  0.1774  0.4861  2.2032
 5720TIP3    H238652   6.389   3.269  12.832  1.9372  0.1045 -0.8622
 5721TIP3   OH238653   2.442   5.673  11.356  0.2697 -0.2286 -0.1493
 5721TIP3    H138654   2.353   5.696  11.327 -0.6163  0.3748  2.7279
 5721TIP3    H238655   2.498   5.741  11.317 -0.4758 -0.6154 -1.9999
 5722TIP3   OH238656   1.358   1.474  11.250 -0.0544  0.0434 -0.5549
 5722TIP3    H138657   1.340   1.407  11.184 -1.4575  0.9150 -1.1203
 5722TIP3    H238658   1.410   1.540  11.204  0.1679 -0.0071 -0.3801
 5723TIP3   OH238659   3.091   1.238   1.868 -0.5251 -0.6867 -0.3245
 5723TIP3    H138660   3.062   1.241   1.777 -0.6981 -1.1409 -0.2918
 5723TIP3    H238661   3.149   1.161   1.871  1.9418  1.0360 -0.7324
 5724TIP3   OH238662   3.147   2.466  13.915 -0.0931 -0.2015 -0.9721
 5724TIP3    H138663   3.119   2.540  13.861  1.1596  0.4560 -0.7517
 5724TIP3    H238664   3.220   2.428  13.867 -0.6721 -1.2714 -1.0445
 5725TIP3   OH238665   2.981   5.390   4.130  0.0372 -0.5433 -0.3238
 5725TIP3    H138666   2.931   5.314   4.158 -1.6649  0.7186  0.1864
 5725TIP3    H238667   3.055   5.353   4.080  0.5384 -2.6048  1.7905
 5726TIP3   OH238668   6.051   3.992  15.702 -0.1623  0.2027  0.2608
 5726TIP3    H138669   5.957   3.993  15.721 -0.1027  1.5768  0.6353
 5726TIP3    H238670   6.084   4.073  15.742  1.1847 -0.2591  0.1364
 5727TIP3   OH238671   5.290   0.581  13.562  0.1248  0.0983  0.5401
 5727TIP3    H138672   5.329   0.667  13.577  0.5349 -0.4762  3.2760
 5727TIP3    H238673   5.294   0.537  13.647 -2.3528 -1.7083 -0.1427
 5728TIP3   OH238674   0.523   6.391  16.734 -0.0051 -0.6492 -0.3033
 5728TIP3    H138675   0.612   6.355  16.727  0.3046 -0.2050  1.0176
 5728TIP3    H238676   0.467   6.314  16.744  0.5239 -0.8773  1.3173
 5729TIP3   OH238677   1.619   5.682   4.537 -0.7438  0.1397  0.6492
 5729TIP3    H138678   1.634   5.652   4.627  0.7953  0.3775  0.5065
 5729TIP3    H238679   1.693   5.647   4.487 -0.8617  1.1112 -0.2578
 5730TIP3   OH238680   2.655   5.974   4.768  0.7049 -0.1081 -0.4529
 5730TIP3    H138681   2.678   6.002   4.857 -0.3353 -1.2452  0.1961
 5730TIP3    H238682   2.610   6.050   4.731  2.7872  1.0694 -0.7147
 5731TIP3   OH238683   1.008   0.249  12.459  0.0626 -0.1443 -0.0571
 5731TIP3    H138684   0.915   0.240  12.479  0.2655 -0.7626  0.6591
 5731TIP3    H238685   1.041   0.159  12.455  0.7940  0.0879  0.5540
 5732TIP3   OH238686   4.597   0.387   1.580 -0.3927  0.4532  0.3167
 5732TIP3    H138687   4.605   0.476   1.613 -0.1820  0.0032  1.5622
 5732TIP3    H238688   4.503   0.368   1.584 -0.3576  0.3550  0.8491
 5733TIP3   OH238689   0.670   3.731   1.977  0.0054 -0.3640 -0.6976
 5733TIP3    H138690   0.666   3.640   2.004  0.4487  0.4010  2.3509
 5733TIP3    H238691   0.581   3.764   1.987  0.7187  0.8726  4.2396
 5734TIP3   OH238692   4.828   6.546  16.585  0.6316  0.3585  0.3029
 5734TIP3    H138693   4.864   6.575  16.501 -0.5626  0.7944 -0.0831
 5734TIP3    H238694   4.838   6.622  16.642 -0.2607  0.7318 -0.0066
 5735TIP3   OH238695   2.869   1.328   3.235  0.8380 -0.0036 -0.2943
 5735TIP3    H138696   2.919   1.404   3.207 -1.8823  1.1931 -2.3444
 5735TIP3    H238697   2.876   1.267   3.161 -0.9576  0.3786 -0.8357
 5736TIP3   OH238698   0.025   0.420  13.423  0.2818 -0.7287 -0.0928
 5736TIP3    H138699  -0.031   0.493  13.398 -0.3688 -1.1686  0.0594
 5736TIP3    H238700   0.012   0.410  13.517 -0.2045 -1.5085 -0.2342
 5737TIP3   OH238701   3.970   1.336  14.035 -0.1272  0.0191  0.0662
 5737TIP3    H138702   3.924   1.392  13.972  0.2378  1.1161  0.7489
 5737TIP3    H238703   4.044   1.388  14.063 -0.3037 -0.4341  1.4395
 5738TIP3   OH238704   5.301   3.122   0.705 -0.0375  0.0444  0.0795
 5738TIP3    H138705   5.344   3.155   0.784  1.8322  0.2564 -0.9683
 5738TIP3    H238706   5.217   3.087   0.736 -0.5588  2.5515  1.7519
 5739TIP3   OH238707   2.956   6.658  11.429  0.0939  0.0097  0.6600
 5739TIP3    H138708   2.961   6.754  11.429  0.8013 -0.0115 -0.1392
 5739TIP3    H238709   2.923   6.635  11.516 -0.5663  0.9975  0.6815
 5740TIP3   OH238710   6.001   1.971   3.874 -0.4798  0.0932 -0.4055
 5740TIP3    H138711   6.040   1.992   3.790 -0.3115 -0.7614 -0.5472
 5740TIP3    H238712   5.952   1.890   3.858  0.8641 -0.9838  0.6872
 5741TIP3   OH238713   0.135   2.811  16.837  0.5229  0.1304  0.0406
 5741TIP3    H138714   0.053   2.804  16.788  1.2489  1.5668 -1.4726
 5741TIP3    H238715   0.134   2.734  16.895 -1.1898 -0.6974 -0.9828
 5742TIP3   OH238716   5.174   4.714  17.029  0.3607  0.2798  0.4997
 5742TIP3    H138717   5.173   4.805  16.998 -2.2827 -0.2099 -1.1653
 5742TIP3    H238718   5.082   4.689  17.031  1.0641 -2.6052  0.2137
 5743TIP3   OH238719   1.416   2.733  13.580  0.4698 -0.1919  0.2564
 5743TIP3    H138720   1.427   2.707  13.672  1.5202  0.9396  0.4762
 5743TIP3    H238721   1.332   2.780  13.579  1.0682  0.9507  0.9405
 5744TIP3   OH238722   6.334   6.507  12.890  0.6775  0.5881 -0.1552
 5744TIP3    H138723   6.375   6.475  12.970  0.0069  2.5896  1.0705
 5744TIP3    H238724   6.327   6.430  12.834  0.7384 -0.9957  1.8837
 5745TIP3   OH238725   4.582   4.653  11.410  0.4165 -0.4118 -0.4993
 5745TIP3    H138726   4.498   4.684  11.377 -1.1013 -0.9347  2.6039
 5745TIP3    H238727   4.632   4.733  11.428  0.9280 -0.1027 -2.8794
 5746TIP3   OH238728   1.549   5.325   2.963  0.3435  0.2283 -0.4589
 5746TIP3    H138729   1.633   5.322   2.917  1.0451  0.3038  0.7727
 5746TIP3    H238730   1.572   5.343   3.054 -0.8460 -1.7060  0.2967
 5747TIP3   OH238731   5.502   4.478   0.496  0.2891 -0.7440  0.7222
 5747TIP3    H138732   5.540   4.395   0.466 -0.2645 -0.8441  0.2925
 5747TIP3    H238733   5.483   4.526   0.416 -2.5714 -1.6146  0.7643
 5748TIP3   OH238734   1.832   6.567  16.435 -0.1412  0.4623 -0.6791
 5748TIP3    H138735   1.745   6.578  16.472  0.7200  0.4148  1.5143
 5748TIP3    H238736   1.819   6.570  16.340 -2.3801  1.3515 -0.3902
 5749TIP3   OH238737   3.284   3.747  13.550  0.0494 -0.1066  0.4834
 5749TIP3    H138738   3.325   3.763  13.465 -0.6796  0.3714  0.2174
 5749TIP3    H238739   3.272   3.834  13.588 -0.8194 -0.2254  0.5068
 5750TIP3   OH238740   2.677   0.414   1.636  0.1813 -0.4612 -0.4231
 5750TIP3    H138741   2.723   0.365   1.568 -0.7305 -0.9275 -0.7188
 5750TIP3    H238742   2.645   0.493   1.592 -1.6682 -1.4504 -0.9394
 5751TIP3   OH238743   0.766   4.689  10.573 -0.0930 -0.6340 -0.6906
 5751TIP3    H138744   0.788   4.744  10.498  0.7532  1.2444  0.8670
 5751TIP3    H238745   0.847   4.683  10.623 -0.7284 -1.5582  0.2746
 5752TIP3   OH238746   2.684   6.168   4.976 -0.9861  0.4643 -0.6085
 5752TIP3    H138747   2.723   6.208   5.054 -1.1295 -1.4646  0.5265
 5752TIP3    H238748   2.704   6.229   4.905  2.5882  0.4512  0.2093
 5753TIP3   OH238749   0.947   1.909   0.483  0.2497 -0.3075  0.1261
 5753TIP3    H138750   1.001   1.912   0.562 -0.0217  0.9505  0.2912
 5753TIP3    H238751   0.916   1.819   0.478 -1.2786  0.0101  2.5374
 5754TIP3   OH238752   3.578   4.582   0.597 -0.0503  0.1486 -0.2332
 5754TIP3    H138753   3.529   4.621   0.525 -0.7090  0.9899  0.6369
 5754TIP3    H238754   3.510   4.559   0.661  0.4902 -0.8867 -0.0187
 5755TIP3   OH238755   5.106   0.859   6.377 -0.2372  0.0237 -0.0633
 5755TIP3    H138756   5.096   0.909   6.457 -0.5949  2.6252 -1.6125
 5755TIP3    H238757   5.020   0.818   6.363 -0.2222 -0.3039  0.7480
 5756TIP3   OH238758   0.299   1.405   2.735 -0.6107 -0.2579  0.2917
 5756TIP3    H138759   0.307   1.394   2.830 -0.2969 -1.2280  0.1636
 5756TIP3    H238760   0.367   1.468   2.712 -0.1404 -0.6466  0.6048
 5757TIP3   OH238761   0.040   1.491  15.271 -0.0266 -0.1308 -0.2245
 5757TIP3    H138762  -0.056   1.491  15.274 -0.0490 -0.0819 -0.8009
 5757TIP3    H238763   0.064   1.398  15.271  0.0091 -0.1686  1.6840
 5758TIP3   OH238764   2.342   3.593  17.059 -0.1951 -0.3043  0.8429
 5758TIP3    H138765   2.265   3.537  17.044  0.3608 -0.5931 -1.4350
 5758TIP3    H238766   2.387   3.592  16.975  0.9270  1.9613  1.3618
 5759TIP3   OH238767   2.539   5.440   2.325  0.7332 -0.4505 -0.4590
 5759TIP3    H138768   2.495   5.522   2.348  0.7307 -0.3902 -0.6797
 5759TIP3    H238769   2.472   5.373   2.338  0.4755 -0.3242 -1.0997
 5760TIP3   OH238770   1.427   6.523   4.370  0.2547 -0.3802 -0.8185
 5760TIP3    H138771   1.415   6.505   4.464  0.0251  1.2320 -0.5003
 5760TIP3    H238772   1.384   6.450   4.326  1.5681 -1.9120  0.2989
 5761TIP3   OH238773   4.032   5.483  15.799  0.0555  0.3536 -0.4254
 5761TIP3    H138774   4.090   5.430  15.745  1.8345  1.4133  0.3355
 5761TIP3    H238775   4.043   5.448  15.888 -1.3754 -0.1533 -0.4220
 5762TIP3   OH238776   1.555   0.988   3.075 -0.4225  0.3230  0.3278
 5762TIP3    H138777   1.485   0.994   3.010 -1.0368 -0.6968  0.8704
 5762TIP3    H238778   1.518   1.029   3.154  0.0820  0.9684  0.2377
 5763TIP3   OH238779   0.449   3.735   5.781 -0.5251  0.0202 -0.4643
 5763TIP3    H138780   0.544   3.750   5.782 -0.5140 -0.0310  0.9120
 5763TIP3    H238781   0.417   3.782   5.858 -1.7883  0.9848 -1.5268
 5764TIP3   OH238782   5.799   3.702   3.759  0.0144 -0.4042 -0.0253
 5764TIP3    H138783   5.877   3.756   3.762 -0.0308 -0.2019 -1.7455
 5764TIP3    H238784   5.832   3.612   3.771  0.3955 -0.2461  0.1316
 5765TIP3   OH238785   6.182   5.883  14.438 -0.0960  0.2060 -0.1522
 5765TIP3    H138786   6.220   5.800  14.408  0.4061  0.0538  0.8694
 5765TIP3    H238787   6.187   5.879  14.533 -3.0679  0.0306  0.0762
 5766TIP3   OH238788   1.385   5.264   4.276 -0.4788 -0.0388  0.3289
 5766TIP3    H138789   1.422   5.179   4.252  0.3917  0.3890  0.0977
 5766TIP3    H238790   1.337   5.292   4.198  0.2099  0.1933 -0.0274
 5767TIP3   OH238791   0.158   6.603  11.386 -0.5226 -0.5700  0.3818
 5767TIP3    H138792   0.183   6.590  11.295  0.7666  0.3974  0.5672
 5767TIP3    H238793   0.131   6.695  11.390  0.6221 -0.2524  1.2152
 5768TIP3   OH238794   3.434   0.971  12.983  0.6254  0.2546  0.3181
 5768TIP3    H138795   3.509   0.941  12.931 -0.8851 -1.6266 -0.8968
 5768TIP3    H238796   3.358   0.952  12.929 -0.9525 -0.5675  2.6425
 5769TIP3   OH238797   3.885   6.537   0.400  0.1690  0.0354  0.2174
 5769TIP3    H138798   3.806   6.484   0.407  1.3111 -1.6072  1.8568
 5769TIP3    H238799   3.903   6.567   0.489  1.4751  0.2091 -0.0721
 5770TIP3   OH238800   5.711   3.631   2.563 -0.1517 -0.6421 -0.4051
 5770TIP3    H138801   5.717   3.611   2.656  1.4465 -1.4638 -0.6525
 5770TIP3    H238802   5.740   3.551   2.519 -2.4366 -0.8424 -1.6739
 5771TIP3   OH238803   6.074   0.482  12.206 -0.2119 -0.5362 -0.1640
 5771TIP3    H138804   6.035   0.523  12.129  0.0826  0.6578  0.2912
 5771TIP3    H238805   6.090   0.392  12.180 -2.2216 -0.7771 -0.7328
 5772TIP3   OH238806   4.929   4.042  16.330  0.0028  0.4077 -0.3380
 5772TIP3    H138807   4.894   4.128  16.351 -0.8320 -0.3008  1.4668
 5772TIP3    H238808   4.923   3.993  16.413  0.3036 -1.4253 -1.3350
 5773TIP3   OH238809   3.989   1.419  16.417 -0.9378 -0.4045  0.0648
 5773TIP3    H138810   3.969   1.337  16.462 -1.2532  0.6493  1.9571
 5773TIP3    H238811   4.043   1.468  16.479 -2.6256  1.7372 -0.0451
 5774TIP3   OH238812   6.162   4.658  12.851 -0.3420  1.0305 -0.2954
 5774TIP3    H138813   6.258   4.655  12.845 -0.1416 -1.5456  2.0980
 5774TIP3    H238814   6.142   4.749  12.871  1.9236  1.1690  1.9065
 5775TIP3   OH238815   1.019   0.633  13.040  0.2515  0.0245 -0.5739
 5775TIP3    H138816   1.009   0.681  12.958 -1.4292 -0.7684 -0.8610
 5775TIP3    H238817   0.968   0.553  13.028  2.3827 -1.5385  0.1619
 5776TIP3   OH238818   4.065   5.440  14.196  0.3388  0.4630 -0.3625
 5776TIP3    H138819   4.124   5.413  14.125  1.0033  0.3758  0.2027
 5776TIP3    H238820   4.109   5.515  14.236  0.7432 -0.4243  0.9094
 5777TIP3   OH238821   6.426   5.788   1.958 -0.0474 -0.5890  0.2268
 5777TIP3    H138822   6.449   5.874   1.924 -1.6574  0.3745  1.4018
 5777TIP3    H238823   6.494   5.767   2.022  2.3500 -1.8908 -2.5288
 5778TIP3   OH238824   5.643   6.060   3.858 -0.5171 -0.3461  0.1244
 5778TIP3    H138825   5.561   6.094   3.823 -0.4907 -0.3695  0.0379
 5778TIP3    H238826   5.617   6.006   3.932 -0.6129 -0.6903 -0.1584
 5779TIP3   OH238827   3.730   1.807   2.719 -0.3831 -0.2605 -0.1256
 5779TIP3    H138828   3.740   1.722   2.676 -1.5885 -0.4191 -0.1189
 5779TIP3    H238829   3.697   1.865   2.650  5.0741  1.6440 -1.6390
 5780TIP3   OH238830   5.945   6.699   0.481  0.3353  0.1769 -0.1775
 5780TIP3    H138831   5.923   6.707   0.573  0.5367  0.0616 -0.1200
 5780TIP3    H238832   5.988   6.614   0.474  0.9407  0.4890 -0.2600
 5781TIP3   OH238833   5.151   4.722   3.949 -0.2654 -0.4048 -0.7549
 5781TIP3    H138834   5.067   4.706   3.991  1.1879 -1.5779  1.9848
 5781TIP3    H238835   5.176   4.637   3.912  1.6097 -1.3985  2.4042
 5782TIP3   OH238836   0.867   5.316  15.005 -0.3063 -0.6120 -0.1812
 5782TIP3    H138837   0.910   5.328  15.089 -0.9551 -1.4485  0.2886
 5782TIP3    H238838   0.776   5.340  15.020 -0.6251 -1.6148 -0.3898
 5783TIP3   OH238839   2.553   6.659  12.909 -0.1094  0.1568 -0.2198
 5783TIP3    H138840   2.552   6.587  12.972  1.4924  0.3761  0.1033
 5783TIP3    H238841   2.480   6.640  12.850  0.2829 -1.7564 -0.1620
 5784TIP3   OH238842   6.601   3.803  14.455  0.5059 -0.2129 -0.4235
 5784TIP3    H138843   6.516   3.766  14.478  1.1347 -0.6968  1.3071
 5784TIP3    H238844   6.581   3.881  14.403 -1.0532  0.4428  1.0673
 5785TIP3   OH238845   4.101   3.607  12.969  0.0823  0.0299  0.2140
 5785TIP3    H138846   4.130   3.696  12.950  1.0393 -0.5197 -1.0035
 5785TIP3    H238847   4.143   3.585  13.052  0.6509  0.3717  0.0249
 5786TIP3   OH238848   3.955   2.844   4.002 -0.1306 -0.3207 -0.2920
 5786TIP3    H138849   3.991   2.877   4.084  2.4641  0.4542 -1.6001
 5786TIP3    H238850   4.019   2.778   3.973 -1.1568 -0.8155 -1.5277
 5787TIP3   OH238851   4.621   4.524   2.644  0.4563  0.1288  0.5100
 5787TIP3    H138852   4.622   4.445   2.591 -0.3788  1.8862 -2.3716
 5787TIP3    H238853   4.710   4.534   2.675  0.8259 -1.3441 -0.0080
 5788TIP3   OH238854   6.492   2.683   1.663  0.3687 -0.1040  0.2563
 5788TIP3    H138855   6.572   2.720   1.700  1.1800 -0.3711 -1.1739
 5788TIP3    H238856   6.518   2.650   1.577 -1.3631  0.1365 -0.3973
 5789TIP3   OH238857   3.143   0.649  14.517 -0.2698 -0.1401  0.2430
 5789TIP3    H138858   3.179   0.735  14.539 -1.9505  0.6365  0.0933
 5789TIP3    H238859   3.052   0.652  14.548 -0.2046 -2.0953  0.7962
 5790TIP3   OH238860   4.482   1.913  15.333 -0.3582 -0.6730  0.3042
 5790TIP3    H138861   4.523   1.968  15.401 -2.4900  0.5246  0.7201
 5790TIP3    H238862   4.389   1.936  15.338 -0.9283 -2.4689 -1.3125
 5791TIP3   OH238863   5.942   5.598   2.738 -0.8032  0.2744 -0.2284
 5791TIP3    H138864   5.881   5.528   2.761 -0.4235 -0.0071 -0.0767
 5791TIP3    H238865   6.026   5.569   2.773 -0.5864  0.6710 -0.4190
 5792TIP3   OH238866   3.667   2.814   3.634  0.3871  0.1743 -0.3421
 5792TIP3    H138867   3.653   2.832   3.727 -0.6157 -2.6573  0.1589
 5792TIP3    H238868   3.762   2.812   3.623  0.5359  2.6669  0.0865
 5793TIP3   OH238869   6.803   4.653  16.848  0.2056  0.6860  0.3759
 5793TIP3    H138870   6.784   4.745  16.826  0.7085  0.3336 -1.7734
 5793TIP3    H238871   6.717   4.612  16.856 -0.0179  1.1674  0.4835
 5794TIP3   OH238872   2.217   6.377   1.526 -0.0626  0.3654  0.3324
 5794TIP3    H138873   2.295   6.406   1.574  1.2566 -0.9661 -0.8937
 5794TIP3    H238874   2.147   6.379   1.591  1.3740 -0.1362  1.9924
 5795TIP3   OH238875   2.240   1.850   3.914  0.5487 -0.9027  0.3017
 5795TIP3    H138876   2.319   1.903   3.924  1.2117 -1.4268 -1.6719
 5795TIP3    H238877   2.241   1.791   3.988  1.4002 -0.1576  0.9084
 5796TIP3   OH238878   1.601   6.259  14.608 -0.1468 -0.2632 -0.0742
 5796TIP3    H138879   1.638   6.325  14.548  0.9222  0.2961  1.1623
 5796TIP3    H238880   1.575   6.309  14.685 -1.9983 -0.9010 -0.2363
 5797TIP3   OH238881   0.583   1.774  14.109  0.0580  0.2844  0.5891
 5797TIP3    H138882   0.669   1.744  14.078  0.0311  0.0922  0.7004
 5797TIP3    H238883   0.563   1.849  14.054  0.6360  0.7920  1.0435
 5798TIP3   OH238884   6.565   0.532   4.969  0.2405 -1.2149 -0.0536
 5798TIP3    H138885   6.588   0.445   5.002  0.6847 -0.1422  2.7303
 5798TIP3    H238886   6.469   0.532   4.967  0.1821 -1.2839  1.5186
 5799TIP3   OH238887   2.607   1.020  13.274 -0.1707 -0.3900  0.9649
 5799TIP3    H138888   2.548   1.087  13.309 -1.0584  0.6053 -2.0740
 5799TIP3    H238889   2.687   1.067  13.252 -0.8117 -0.1901 -1.2235
 5800TIP3   OH238890   6.654   1.936  17.119 -0.6171 -0.3744  0.5922
 5800TIP3    H138891   6.671   1.846  17.147 -0.2012 -0.1482  1.0871
 5800TIP3    H238892   6.579   1.929  17.060 -0.9593 -0.9785  1.0809
 5801TIP3   OH238893   0.956   1.375   5.130  0.1748  0.3515  0.2112
 5801TIP3    H138894   0.879   1.376   5.073 -0.1154  0.2583  0.6003
 5801TIP3    H238895   0.921   1.367   5.219  0.4897  2.7135  0.6161
 5802TIP3   OH238896   0.292   4.155   1.677  0.0234 -0.2585 -0.7012
 5802TIP3    H138897   0.256   4.080   1.630  0.8540 -0.4242 -1.0897
 5802TIP3    H238898   0.376   4.124   1.711  2.1492  1.4476 -3.8474
 5803TIP3   OH238899   3.155   6.615  13.531 -0.1519  0.4724  0.2149
 5803TIP3    H138900   3.216   6.682  13.501 -0.3173 -0.4547 -2.5157
 5803TIP3    H238901   3.209   6.552  13.578  0.8225  0.3023 -1.0735
 5804TIP3   OH238902   2.178   5.023   3.853 -0.3786 -0.3895  0.3241
 5804TIP3    H138903   2.181   4.937   3.812 -1.7869  1.0142 -3.0509
 5804TIP3    H238904   2.270   5.049   3.860 -0.0323 -1.0458 -1.2675
 5805TIP3   OH238905   0.682   2.083  11.216 -0.1359 -0.6344 -0.0654
 5805TIP3    H138906   0.768   2.123  11.207 -0.9743  0.8600 -2.6904
 5805TIP3    H238907   0.683   2.008  11.157 -0.6234 -0.6339 -0.0846
 5806TIP3   OH238908   3.769   4.463  13.503  0.0165  0.3929  0.2626
 5806TIP3    H138909   3.774   4.528  13.433  0.3479 -0.6973 -0.7587
 5806TIP3    H238910   3.676   4.449  13.516 -0.0705 -0.6267 -1.1851
 5807TIP3   OH238911   0.430   2.930   2.781 -0.7745 -0.2627 -0.2645
 5807TIP3    H138912   0.428   2.839   2.810 -0.8321 -0.5362 -1.0965
 5807TIP3    H238913   0.487   2.929   2.704  0.0997  0.5965  0.3324
 5808TIP3   OH238914   2.250   6.111  12.039  0.0102  0.1158  1.1320
 5808TIP3    H138915   2.319   6.178  12.039 -0.3325  0.5098 -0.3542
 5808TIP3    H238916   2.288   6.038  12.088  1.0307  0.7734  1.3630
 5809TIP3   OH238917   5.206   2.010  13.532  0.6210 -0.0746 -0.4575
 5809TIP3    H138918   5.133   1.969  13.579  1.3544 -1.3041 -0.3395
 5809TIP3    H238919   5.194   1.981  13.441  0.4311  0.5107 -0.6218
 5810TIP3   OH238920   0.228   3.485   5.539 -0.1893 -0.4693  0.3993
 5810TIP3    H138921   0.236   3.570   5.496  2.1978 -0.8374 -0.0319
 5810TIP3    H238922   0.134   3.468   5.542 -0.7189  2.1214  0.4044
 5811TIP3   OH238923   3.427   2.558   2.648  0.0536  0.1829  0.5547
 5811TIP3    H138924   3.338   2.538   2.677 -0.0471  0.2089  0.2729
 5811TIP3    H238925   3.454   2.632   2.701 -1.2781  2.2563 -1.4745
 5812TIP3   OH238926   5.501   2.024   5.681  0.5813 -0.1123  0.0346
 5812TIP3    H138927   5.541   2.096   5.730  0.6666  0.8646 -1.3906
 5812TIP3    H238928   5.540   1.945   5.719 -0.1105  0.5022  2.1715
 5813TIP3   OH238929   2.655   3.767  15.620  0.2171 -0.1368 -0.2253
 5813TIP3    H138930   2.643   3.697  15.556 -1.5009 -0.8321  0.7847
 5813TIP3    H238931   2.695   3.724  15.695 -0.6568 -0.0178  0.3231
 5814TIP3   OH238932   4.500   6.413  15.689  0.2335  0.2537  0.8807
 5814TIP3    H138933   4.586   6.412  15.647 -0.8452  0.0518 -1.5168
 5814TIP3    H238934   4.467   6.323  15.677 -1.1791  0.8864 -0.2895
 5815TIP3   OH238935   2.847   3.682   6.125 -0.1430 -0.2365 -0.6537
 5815TIP3    H138936   2.830   3.615   6.191 -0.0433 -0.4352 -0.8281
 5815TIP3    H238937   2.914   3.738   6.164 -2.0243  1.2783  0.5493
 5816TIP3   OH238938   3.995   3.166  11.962  0.0604 -0.9019 -0.3763
 5816TIP3    H138939   3.901   3.156  11.944 -0.2775  0.8219  0.1782
 5816TIP3    H238940   4.001   3.252  12.005  1.6151 -1.9034  1.5875
 5817TIP3   OH238941   1.021   3.634  11.249 -0.3884  0.8767  0.7101
 5817TIP3    H138942   0.974   3.708  11.210  0.1319  0.1225 -1.5526
 5817TIP3    H238943   0.953   3.583  11.292 -1.8211 -0.1826 -2.4782
 5818TIP3   OH238944   1.604   6.016  16.042 -0.5612 -0.6296  0.7199
 5818TIP3    H138945   1.606   5.983  16.132 -1.1153 -0.5407  0.7721
 5818TIP3    H238946   1.696   6.033  16.020 -0.4569 -0.2141  1.4335
 5819TIP3   OH238947   0.621   1.260  12.432  0.2477 -0.8194  0.5702
 5819TIP3    H138948   0.644   1.189  12.371  0.0812 -0.1483 -0.2920
 5819TIP3    H238949   0.528   1.247  12.450  0.5389 -1.6649  1.5657
 5820TIP3   OH238950   6.471   4.452   2.267  0.4417  0.4423  0.0820
 5820TIP3    H138951   6.451   4.359   2.264  1.1369  0.3011 -0.5941
 5820TIP3    H238952   6.391   4.493   2.298 -1.5118  0.0929 -3.8479
 5821TIP3   OH238953   1.861   0.242  16.065 -0.1372 -0.3051 -0.1676
 5821TIP3    H138954   1.791   0.259  16.128  0.4013 -0.8744  0.6169
 5821TIP3    H238955   1.822   0.258  15.979 -0.5742  1.6314  0.3362
 5822TIP3   OH238956   6.523   5.655   1.492  0.4645 -0.1859 -0.3300
 5822TIP3    H138957   6.475   5.624   1.569  2.0310 -0.1662  0.7190
 5822TIP3    H238958   6.511   5.750   1.492  2.0697  0.0736  1.1298
 5823TIP3   OH238959   3.423   2.319   3.933  0.2441 -0.4498 -0.2792
 5823TIP3    H138960   3.496   2.364   3.891 -0.0306 -0.3047 -0.6063
 5823TIP3    H238961   3.438   2.226   3.913  0.5962 -0.4693  0.0628
 5824TIP3   OH238962   3.192   5.950  15.712  0.0678  0.1448  0.0834
 5824TIP3    H138963   3.239   5.943  15.629 -0.5957 -0.5147 -0.2462
 5824TIP3    H238964   3.188   6.044  15.729  1.7865  0.2162  0.2982
 5825TIP3   OH238965   5.981   4.188  14.125  0.1038  0.3270 -0.3662
 5825TIP3    H138966   5.908   4.154  14.177  0.2219 -0.6831 -0.8338
 5825TIP3    H238967   6.056   4.137  14.154 -0.1032 -1.3813 -2.5797
 5826TIP3   OH238968   0.694   0.578  10.349  0.7293  0.0500 -0.2362
 5826TIP3    H138969   0.778   0.541  10.324  1.6564  0.8442  1.5615
 5826TIP3    H238970   0.715   0.663  10.387 -0.7666 -0.1980  1.2692
 5827TIP3   OH238971   1.557   2.102   3.383 -0.9492  0.1385 -0.1765
 5827TIP3    H138972   1.571   2.168   3.315  0.4598 -0.3185 -0.3646
 5827TIP3    H238973   1.484   2.049   3.350 -1.1939  0.7531 -0.6601
 5828TIP3   OH238974   6.665   3.391  12.795 -0.1006  0.5994 -0.1284
 5828TIP3    H138975   6.645   3.352  12.711 -2.5422 -0.3297  0.8025
 5828TIP3    H238976   6.611   3.470  12.799 -1.2492 -0.1991  1.1443
 5829TIP3   OH238977   0.658   2.997   3.805 -0.6991 -0.1323 -0.1871
 5829TIP3    H138978   0.641   3.088   3.778  0.2231  0.7399  1.9269
 5829TIP3    H238979   0.749   2.982   3.779 -0.6117 -0.1813  0.1486
 5830TIP3   OH238980   2.322   6.713  14.092  0.5481  0.5143 -0.2548
 5830TIP3    H138981   2.305   6.620  14.107 -0.3714  0.2550 -2.5526
 5830TIP3    H238982   2.410   6.715  14.054  1.7565  0.9183  2.3453
 5831TIP3   OH238983   1.285   0.882  14.177  0.1810  0.1386  0.1382
 5831TIP3    H138984   1.343   0.950  14.143 -0.1048  0.7908  0.9347
 5831TIP3    H238985   1.213   0.878  14.115  1.5051 -1.3735 -1.4273
 5832TIP3   OH238986   2.091   3.674   2.014  0.3201 -0.1890  0.0673
 5832TIP3    H138987   2.170   3.669   1.960 -0.3400  2.2081 -1.2331
 5832TIP3    H238988   2.045   3.592   1.997  1.1257 -0.3534 -1.4226
 5833TIP3   OH238989   1.363   4.084  12.697 -0.2323 -0.1488  0.2231
 5833TIP3    H138990   1.271   4.098  12.675  0.1931  1.2535 -0.8354
 5833TIP3    H238991   1.385   4.156  12.756  0.4809  0.2657 -0.5173
 5834TIP3   OH238992   0.374   2.576  14.282  0.2182  0.3248  0.7129
 5834TIP3    H138993   0.429   2.612  14.213  2.4459 -1.6300  1.3247
 5834TIP3    H238994   0.387   2.635  14.356  1.6217 -0.1225  0.8585
 5835TIP3   OH238995   3.045   1.255   1.589 -0.0861  0.1445 -0.9295
 5835TIP3    H138996   2.961   1.233   1.551 -0.5760  1.4096 -0.6376
 5835TIP3    H238997   3.109   1.237   1.520 -0.5211 -1.2612 -0.9943
 5836TIP3   OH238998   5.027   2.094  12.768 -0.1400 -0.5131 -0.1607
 5836TIP3    H138999   5.049   2.108  12.860  0.6021  0.6328 -0.4860
 5836TIP3    H239000   5.013   2.182  12.733  1.3728 -0.7798 -1.5560
 5837TIP3   OH239001   6.356   5.184  15.476 -0.2114 -0.3583 -0.5094
 5837TIP3    H139002   6.404   5.106  15.502  0.0592  0.7120  2.8170
 5837TIP3    H239003   6.264   5.160  15.484 -0.1863 -0.9517 -1.8130
 5838TIP3   OH239004   1.581   5.784   1.734  0.0555 -0.1693  0.4403
 5838TIP3    H139005   1.612   5.868   1.700  0.5958 -1.0456 -1.3355
 5838TIP3    H239006   1.486   5.788   1.724  0.1771 -0.3099 -1.0599
 5839TIP3   OH239007   0.977   5.535  11.857  0.3723  0.0903 -0.4866
 5839TIP3    H139008   0.915   5.474  11.817  0.2979  0.0688 -0.3387
 5839TIP3    H239009   0.927   5.615  11.868  0.2723 -0.0300 -0.0570
 5840TIP3   OH239010   0.912   6.384   1.132  0.0190  0.7657  0.0625
 5840TIP3    H139011   0.900   6.332   1.053  1.6540 -0.0886  0.3269
 5840TIP3    H239012   0.934   6.320   1.200  0.4039  1.6370  0.7797
 5841TIP3   OH239013   4.027   3.347  14.177 -0.2161  0.0487  0.1590
 5841TIP3    H139014   3.939   3.325  14.148 -1.0312  0.2352  2.3179
 5841TIP3    H239015   4.084   3.313  14.109 -1.9203 -0.6637 -0.9694
 5842TIP3   OH239016   2.337   0.789   5.469 -0.4907  0.0144 -0.2924
 5842TIP3    H139017   2.362   0.881   5.483 -0.8772 -0.0047  0.5375
 5842TIP3    H239018   2.352   0.775   5.375 -0.2372  0.8671 -0.3898
 5843TIP3   OH239019   5.078   3.714   1.126  0.6943 -1.0194  0.9272
 5843TIP3    H139020   5.113   3.796   1.160  1.7513 -1.2421  0.3947
 5843TIP3    H239021   4.983   3.724   1.132  0.8256  0.0089  1.4018
 5844TIP3   OH239022   5.461   1.355   2.663  0.3636 -0.2187  0.5538
 5844TIP3    H139023   5.529   1.341   2.597 -0.0644 -2.2106  0.4762
 5844TIP3    H239024   5.408   1.427   2.628  2.0271  0.9429  0.3176
 5845TIP3   OH239025   1.724   4.202   5.961 -0.1273 -0.4770 -0.5201
 5845TIP3    H139026   1.795   4.147   5.994  1.5006  0.9656 -1.3893
 5845TIP3    H239027   1.644   4.154   5.981  1.1349 -2.5880 -0.2670
 5846TIP3   OH239028   0.729   5.014   0.111  0.2022 -0.2108 -0.0634
 5846TIP3    H139029   0.742   5.093   0.165  1.0050 -0.7778  0.6016
 5846TIP3    H239030   0.635   4.995   0.120 -0.0034  0.6557 -0.2283
 5847TIP3   OH239031   4.887   5.975   5.741 -0.5347  0.0627 -0.2936
 5847TIP3    H139032   4.821   5.922   5.696 -0.4974 -0.1013 -0.1521
 5847TIP3    H239033   4.837   6.037   5.793 -0.5822 -0.7890  0.6903
 5848TIP3   OH239034   2.762   2.515   1.445  0.1842 -0.0320  0.1527
 5848TIP3    H139035   2.808   2.466   1.377 -0.0154 -0.7381  0.5102
 5848TIP3    H239036   2.704   2.574   1.397  0.4559 -0.1255 -0.2932
 5849TIP3   OH239037   3.141   2.937  15.245  0.0681 -0.4386 -0.2058
 5849TIP3    H139038   3.191   2.985  15.180 -0.2899 -0.4643 -0.5048
 5849TIP3    H239039   3.177   2.966  15.329 -0.8067  1.1244 -0.3334
 5850TIP3   OH239040   6.195   6.495  14.136  0.2246 -0.1883 -0.5535
 5850TIP3    H139041   6.216   6.429  14.069 -0.5601 -1.1138  0.0877
 5850TIP3    H239042   6.149   6.446  14.204 -1.0932  1.1705 -0.4189
 5851TIP3   OH239043   4.802   4.530  12.598  0.1382  0.3926 -0.0984
 5851TIP3    H139044   4.858   4.504  12.671  1.1995  0.3426 -0.9012
 5851TIP3    H239045   4.825   4.622  12.583  0.7261  0.0986 -1.0568
 5852TIP3   OH239046   4.215   1.027   1.054 -0.8093 -0.3102 -0.2692
 5852TIP3    H139047   4.153   0.991   0.990  0.4078 -1.7527 -0.7131
 5852TIP3    H239048   4.224   1.119   1.029  0.2215 -0.9856 -2.7693
 5853TIP3   OH239049   5.517   4.185   3.329  0.2437 -0.8489  0.1519
 5853TIP3    H139050   5.584   4.236   3.284 -0.0146 -2.5895 -2.4650
 5853TIP3    H239051   5.563   4.141   3.400  1.0407  0.7836  0.6815
 5854TIP3   OH239052   1.162   5.997  13.671 -0.0871  0.5492  0.1632
 5854TIP3    H139053   1.141   6.057  13.742  2.0937  1.2902  0.2541
 5854TIP3    H239054   1.128   5.913  13.700 -0.9449  1.2155  1.1858
 5855TIP3   OH239055   5.960   1.244   1.326 -0.0348  0.1962  0.2916
 5855TIP3    H139056   5.884   1.257   1.268 -1.3230  0.3568  1.9247
 5855TIP3    H239057   5.957   1.151   1.349 -1.1618  0.6168  2.1220
 5856TIP3   OH239058   0.003   4.049   4.416 -0.4167 -0.6059 -0.1039
 5856TIP3    H139059   0.046   3.973   4.456  0.5221 -0.5489 -0.9699
 5856TIP3    H239060   0.054   4.124   4.447  0.1152 -0.5345 -1.1028
 5857TIP3   OH239061   3.098   3.145   4.189  0.1826  0.5565 -0.8750
 5857TIP3    H139062   3.008   3.115   4.177  0.2781  0.0232 -0.2869
 5857TIP3    H239063   3.093   3.240   4.183 -0.7065  0.6541  0.9706
 5858TIP3   OH239064   4.619   5.898  11.639  0.2110 -0.5848 -0.6230
 5858TIP3    H139065   4.640   5.984  11.677  0.0991 -0.1307 -1.5643
 5858TIP3    H239066   4.524   5.901  11.625  0.0783 -1.1824  0.0962
 5859TIP3   OH239067   3.742   1.951  12.412  0.5168  0.3928  0.4278
 5859TIP3    H139068   3.732   2.020  12.346  1.0853 -1.9158 -2.2689
 5859TIP3    H239069   3.655   1.911  12.418  0.6856  0.0073  0.3532
 5860TIP3   OH239070   2.414   0.540   2.666  0.6491  0.1852 -0.1622
 5860TIP3    H139071   2.346   0.601   2.638  1.1504 -0.1177 -2.1534
 5860TIP3    H239072   2.400   0.531   2.760 -2.6611 -0.6164 -0.6066
 5861TIP3   OH239073   3.653   0.329  11.223  0.2555  0.0758  0.4706
 5861TIP3    H139074   3.729   0.322  11.282  1.4958  1.3185 -0.8857
 5861TIP3    H239075   3.589   0.380  11.273 -0.1342 -1.8126  2.0074
 5862TIP3   OH239076   0.697   1.220  10.625 -0.6256 -0.2960 -0.3529
 5862TIP3    H139077   0.717   1.129  10.645 -0.2862 -0.3627 -0.9722
 5862TIP3    H239078   0.604   1.230  10.644 -0.2479 -0.2246  1.7056
 5863TIP3   OH239079   2.308   6.119   4.190  1.0074  0.3385 -0.4444
 5863TIP3    H139080   2.402   6.102   4.185  1.2356  1.5484 -0.4674
 5863TIP3    H239081   2.296   6.205   4.150 -0.2847 -0.3281 -1.5804
 5864TIP3   OH239082   3.010   0.884  12.598  0.0742  0.0039  0.9424
 5864TIP3    H139083   2.979   0.970  12.569 -1.4480 -0.7334  0.2538
 5864TIP3    H239084   3.088   0.868  12.545 -1.2931 -0.2600 -1.1389
 5865TIP3   OH239085   3.060   5.224  16.462  0.7524 -0.0564  0.4814
 5865TIP3    H139086   3.078   5.174  16.542 -0.4036 -0.6954  0.3693
 5865TIP3    H239087   3.146   5.255  16.434  1.5504 -2.0810  0.5024
 5866TIP3   OH239088   6.772   3.363   2.207  0.0847  0.5551 -0.1038
 5866TIP3    H139089   6.725   3.283   2.229  0.5594 -0.2704 -1.8708
 5866TIP3    H239090   6.846   3.333   2.153  0.3553  2.1692 -0.6892
 5867TIP3   OH239091   6.534   5.451  13.401 -1.3658 -0.0983 -0.0004
 5867TIP3    H139092   6.567   5.375  13.449  1.3027  0.7078 -0.4203
 5867TIP3    H239093   6.529   5.421  13.310 -1.0937 -0.0061 -0.0456
 5868TIP3   OH239094   2.161   2.686  16.284  0.1766 -0.2446  0.3465
 5868TIP3    H139095   2.143   2.592  16.283  2.8440 -0.8360 -0.7220
 5868TIP3    H239096   2.114   2.721  16.209 -1.8733 -0.4184  1.4645
 5869TIP3   OH239097   1.851   2.134  14.565  0.0046 -0.6484  0.1979
 5869TIP3    H139098   1.921   2.110  14.626  0.3753  0.6446  0.2962
 5869TIP3    H239099   1.896   2.171  14.489 -0.4374 -2.4662 -1.0266
 5870TIP3   OH239100   3.660   2.435   3.803  0.7017  0.1199 -0.6751
 5870TIP3    H139101   3.673   2.529   3.799 -0.5308  0.2785 -2.0382
 5870TIP3    H239102   3.725   2.404   3.866  1.0145  1.8836 -0.0671
 5871TIP3   OH239103   6.041   5.713  15.445  0.0613 -0.3650 -1.0678
 5871TIP3    H139104   5.994   5.642  15.488 -0.4616  0.1125 -0.8294
 5871TIP3    H239105   5.992   5.730  15.365 -0.8835  0.8912 -0.2736
 5872TIP3   OH239106   6.748   5.849   2.355 -0.0017  0.6407  0.0735
 5872TIP3    H139107   6.831   5.801   2.352 -0.1330  0.4543 -1.7172
 5872TIP3    H239108   6.744   5.884   2.444  1.6880  0.1150  0.3988
 5873TIP3   OH239109   4.214   5.848  13.778  0.0597 -0.8107 -0.2070
 5873TIP3    H139110   4.278   5.914  13.803  1.0468 -1.5322 -0.7751
 5873TIP3    H239111   4.253   5.803  13.703 -0.6245 -1.9707  0.0997
 5874TIP3   OH239112   5.813   2.161   3.415 -0.0289  0.0207 -0.0511
 5874TIP3    H139113   5.899   2.123   3.399 -1.2966 -2.4496 -1.6150
 5874TIP3    H239114   5.812   2.240   3.361  1.7799  1.0217  1.2836
 5875TIP3   OH239115   5.941   6.487  13.229 -0.5638  0.2559 -0.4970
 5875TIP3    H139116   5.919   6.551  13.162 -1.9969 -0.7952 -1.0880
 5875TIP3    H239117   5.856   6.457  13.263  0.0690 -0.9852  0.0776
 5876TIP3   OH239118   4.803   2.255  16.287 -0.8040 -0.4256 -0.4920
 5876TIP3    H139119   4.750   2.315  16.234 -0.7220  1.1463  1.1086
 5876TIP3    H239120   4.796   2.289  16.376  0.4979 -1.9414  0.2441
 5877TIP3   OH239121   3.896   6.137  14.241 -0.2370 -1.1007  0.0532
 5877TIP3    H139122   3.914   6.166  14.331 -0.2724 -1.6534  0.2432
 5877TIP3    H239123   3.803   6.114  14.242 -0.1205 -1.5752  0.0073
 5878TIP3   OH239124   0.846   6.270   2.277 -0.5226 -0.3785  0.1038
 5878TIP3    H139125   0.815   6.359   2.291 -2.0839 -0.7719 -0.5771
 5878TIP3    H239126   0.903   6.252   2.351  1.0697  1.6907 -0.5325
 5879TIP3   OH239127   3.464   5.776  13.719  0.5348  0.3564  0.8992
 5879TIP3    H139128   3.558   5.760  13.727  0.2512 -3.5632 -1.2577
 5879TIP3    H239129   3.442   5.752  13.629 -2.6010  0.8968  1.3949
 5880TIP3   OH239130   5.721   4.856   0.416 -0.2817 -0.0894  0.0977
 5880TIP3    H139131   5.762   4.771   0.400 -2.2494 -0.8521 -1.1779
 5880TIP3    H239132   5.720   4.899   0.331 -1.4021  0.2017  0.2360
 5881TIP3   OH239133   4.197   6.047   3.980  0.5902  0.3911  0.3455
 5881TIP3    H139134   4.208   6.047   3.885  3.8982  2.9367  0.5524
 5881TIP3    H239135   4.145   6.126   3.998 -0.7700 -0.5430  0.6728
 5882TIP3   OH239136   2.682   0.969   1.033  0.4171 -0.0118 -0.5517
 5882TIP3    H139137   2.609   1.029   1.051  0.1151 -0.1621 -1.2570
 5882TIP3    H239138   2.650   0.884   1.064  1.8055  0.5432  2.9284
 5883TIP3   OH239139   1.733   1.420   1.692 -0.0585  0.3105 -0.1879
 5883TIP3    H139140   1.737   1.416   1.596 -0.4943  2.9492 -0.3680
 5883TIP3    H239141   1.642   1.399   1.713  0.2364 -1.1569 -0.2343
 5884TIP3   OH239142   0.193   4.832  11.221  0.0921 -0.2430 -0.1866
 5884TIP3    H139143   0.281   4.844  11.258 -0.3281 -1.1335  1.1755
 5884TIP3    H239144   0.208   4.781  11.142  1.1207  2.6040 -1.9849
 5885TIP3   OH239145   5.391   6.128   3.859 -0.2513 -0.4707 -0.4938
 5885TIP3    H139146   5.375   6.099   3.949 -2.3606  0.2603 -0.5725
 5885TIP3    H239147   5.366   6.052   3.805 -2.0367  0.0870 -0.5364
 5886TIP3   OH239148   2.570   3.939  13.948  0.4029 -0.0480  0.7016
 5886TIP3    H139149   2.657   3.930  13.909  0.6122 -0.1711  1.1778
 5886TIP3    H239150   2.512   3.887  13.892  0.3924  1.0574 -0.3450
 5887TIP3   OH239151   3.177   4.220   2.886 -0.1902 -0.1942  0.0959
 5887TIP3    H139152   3.091   4.230   2.925 -0.7258 -1.2031 -0.7696
 5887TIP3    H239153   3.182   4.127   2.861  1.8857 -0.6438  1.7972
 5888TIP3   OH239154   4.271   4.088   1.480  0.5367 -0.3709  0.2620
 5888TIP3    H139155   4.185   4.116   1.512  0.1950 -0.4518 -0.5725
 5888TIP3    H239156   4.303   4.163   1.430  0.7710 -0.4955  0.2278
 5889TIP3   OH239157   1.748   2.712   3.543 -0.1886 -0.3553  0.5474
 5889TIP3    H139158   1.718   2.623   3.560 -0.6607 -0.9449 -2.6532
 5889TIP3    H239159   1.669   2.764   3.540 -0.1620 -0.3299  0.1082
 5890TIP3   OH239160   4.629   2.905  14.680  0.4498  0.0203  0.1856
 5890TIP3    H139161   4.652   2.958  14.756  0.9043 -2.1399  1.6554
 5890TIP3    H239162   4.712   2.887  14.637  0.2227  1.0053 -0.7180
 5891TIP3   OH239163   5.023   5.764   3.769 -0.2602 -0.3339 -0.0186
 5891TIP3    H139164   5.070   5.705   3.711  0.9390 -0.5000  1.0801
 5891TIP3    H239165   5.086   5.786   3.838 -1.4790  0.2300  0.9637
 5892TIP3   OH239166   0.926   2.783   3.464  0.2239 -0.3477  0.0940
 5892TIP3    H139167   0.940   2.691   3.440  1.6378 -0.2162  0.3347
 5892TIP3    H239168   1.001   2.829   3.428 -0.8592  0.8648 -0.7019
 5893TIP3   OH239169   0.155   4.072  15.056  0.7616  0.3961 -0.5425
 5893TIP3    H139170   0.132   4.067  15.149  2.6319  0.8592  0.0017
 5893TIP3    H239171   0.171   3.981  15.030 -1.0823  0.1159 -0.8176
 5894TIP3   OH239172   4.397   0.910  14.815 -0.3174  0.4288 -0.1509
 5894TIP3    H139173   4.312   0.866  14.820  0.9273 -2.1395  1.0074
 5894TIP3    H239174   4.456   0.843  14.780  1.6553  1.3002  1.2859
 5895TIP3   OH239175   5.504   3.736   4.261  0.4024 -0.1753  0.1461
 5895TIP3    H139176   5.509   3.688   4.343  0.7976 -1.0228 -0.3539
 5895TIP3    H239177   5.591   3.726   4.222  0.2260  0.2295 -0.3665
 5896TIP3   OH239178   3.165   5.774   0.538 -0.0452  0.1330 -0.3016
 5896TIP3    H139179   3.123   5.800   0.456  2.1533 -1.2543 -1.9631
 5896TIP3    H239180   3.258   5.782   0.521  0.4752 -0.5397  1.9723
 5897TIP3   OH239181   0.192   3.792  16.140 -0.4543  0.0647 -0.4003
 5897TIP3    H139182   0.141   3.759  16.214  0.3672 -1.0192 -0.3007
 5897TIP3    H239183   0.280   3.806  16.176 -0.5156  1.4224 -0.7016
 5898TIP3   OH239184   6.711   3.453  14.350 -0.0046 -0.0293 -0.2650
 5898TIP3    H139185   6.794   3.404  14.344 -0.4409 -0.8473  0.3030
 5898TIP3    H239186   6.660   3.406  14.415 -1.1623  0.1219 -1.0417
 5899TIP3   OH239187   0.343   3.498   4.522 -0.5315 -0.0362 -0.5447
 5899TIP3    H139188   0.408   3.447   4.473 -1.6612  0.9163 -3.2066
 5899TIP3    H239189   0.387   3.518   4.605  0.4404 -4.1252  0.1595
 5900TIP3   OH239190   2.802   2.011   4.696  0.3080 -0.2317  0.5002
 5900TIP3    H139191   2.730   2.073   4.684 -0.1112 -0.6232  1.0289
 5900TIP3    H239192   2.765   1.926   4.674  1.1242 -0.2150 -1.1197
 5901TIP3   OH239193   4.597   3.075   3.245  0.1385 -0.4094  0.7544
 5901TIP3    H139194   4.565   3.030   3.166 -0.7067  0.0344  0.8383
 5901TIP3    H239195   4.638   3.155   3.212 -1.8591  0.7083  0.8694
 5902TIP3   OH239196   5.412   3.964  11.277 -0.6890  0.4206 -0.1764
 5902TIP3    H139197   5.382   3.911  11.351  0.9229  2.7412  2.3195
 5902TIP3    H239198   5.505   3.942  11.268 -0.0669  2.4850  0.7096
 5903TIP3   OH239199   3.867   2.314  13.279  0.3813  0.2580 -0.3677
 5903TIP3    H139200   3.885   2.366  13.357 -0.7707 -0.1248  0.1717
 5903TIP3    H239201   3.930   2.241  13.284  1.1378  0.8874 -0.4588
 5904TIP3   OH239202   1.583   0.462  13.933  0.1078  0.3784  0.2053
 5904TIP3    H139203   1.611   0.536  13.987 -0.5348  0.2045  0.7950
 5904TIP3    H239204   1.490   0.478  13.916 -0.6869 -1.4323  2.3266
 5905TIP3   OH239205   4.031   2.577  11.791 -0.2399 -0.2893 -0.4822
 5905TIP3    H139206   4.028   2.660  11.742  1.3208  0.4599  0.5838
 5905TIP3    H239207   4.060   2.603  11.878  0.1975 -1.9572 -0.1057
 5906TIP3   OH239208   5.288   0.146   1.610  0.4258  0.3847 -0.5931
 5906TIP3    H139209   5.212   0.147   1.667  0.1248 -0.4736 -0.9748
 5906TIP3    H239210   5.254   0.172   1.524  0.2092 -1.6370 -1.1684
 5907TIP3   OH239211   0.132   2.819  14.759 -0.5621 -0.1758 -0.6967
 5907TIP3    H139212   0.064   2.752  14.764 -1.2768  0.3322 -2.5776
 5907TIP3    H239213   0.099   2.881  14.693  0.3793  1.6651  0.4654
 5908TIP3   OH239214   0.082   1.668   1.271  0.1183 -0.3532  0.1937
 5908TIP3    H139215   0.142   1.736   1.242  0.6885 -0.9810 -0.1205
 5908TIP3    H239216   0.108   1.590   1.222 -1.5685 -0.4147 -0.7072
 5909TIP3   OH239217   2.586   1.633  13.761  0.5485 -0.6049  0.3278
 5909TIP3    H139218   2.654   1.631  13.694 -0.9312 -0.9614 -1.2632
 5909TIP3    H239219   2.591   1.547  13.803  1.9377 -0.1255  1.1767
 5910TIP3   OH239220   5.414   0.710  10.446 -1.0544 -0.9661 -0.2833
 5910TIP3    H139221   5.447   0.687  10.532 -0.1165 -1.3272 -0.7222
 5910TIP3    H239222   5.487   0.692  10.386 -0.4213  2.4939 -0.7770
 5911TIP3   OH239223   5.218   3.854  14.584 -0.4728  0.4647 -0.2291
 5911TIP3    H139224   5.178   3.781  14.536  0.7591  0.3151 -1.0859
 5911TIP3    H239225   5.263   3.905  14.516  0.8192  0.5825  0.6738
 5912TIP3   OH239226   2.105   2.232  12.456 -0.4271 -0.5583  0.3359
 5912TIP3    H139227   2.159   2.155  12.474  1.1314  0.1053 -1.2603
 5912TIP3    H239228   2.103   2.238  12.361  1.5225  2.6688  0.3431
 5913TIP3   OH239229   5.519   5.701   1.879 -0.4439 -0.1089 -1.0242
 5913TIP3    H139230   5.512   5.727   1.787 -0.4914  0.0059 -0.9882
 5913TIP3    H239231   5.505   5.782   1.928 -1.0449 -0.2795 -0.9059
 5914TIP3   OH239232   1.297   1.031   3.820 -0.4488  0.6956  0.2475
 5914TIP3    H139233   1.373   1.072   3.778  1.5329 -2.9508 -0.1225
 5914TIP3    H239234   1.333   0.980   3.892 -2.4777 -1.3718 -0.0814
 5915TIP3   OH239235   4.556   5.908  12.635 -0.0393 -0.3143 -0.3345
 5915TIP3    H139236   4.619   5.839  12.657  0.6305  0.2120 -0.5665
 5915TIP3    H239237   4.607   5.989  12.634 -0.4645 -0.0228 -1.6411
 5916TIP3   OH239238   3.807   3.224  14.094 -0.1960 -0.0561 -0.1058
 5916TIP3    H139239   3.724   3.193  14.130 -0.0129 -0.3691  0.0561
 5916TIP3    H239240   3.841   3.148  14.045  0.1398 -0.0304  0.0878
 5917TIP3   OH239241   2.593   2.594   2.983  0.0218  0.2500  0.2820
 5917TIP3    H139242   2.611   2.511   3.028  0.5538 -0.4985 -1.2512
 5917TIP3    H239243   2.514   2.577   2.932 -0.2470  0.9089  0.4744
 5918TIP3   OH239244   3.838   4.600  15.849 -0.1923 -0.2377  0.0483
 5918TIP3    H139245   3.785   4.540  15.902 -0.1407 -1.4339 -1.2102
 5918TIP3    H239246   3.927   4.567  15.857  0.3093  1.3510  1.5812
 5919TIP3   OH239247   6.750   2.027   1.276 -0.4766 -0.5084 -0.1632
 5919TIP3    H139248   6.756   1.978   1.194  0.6277  0.2377 -0.5529
 5919TIP3    H239249   6.671   2.080   1.266  1.0717  1.6595 -1.9787
 5920TIP3   OH239250   1.366   4.780   1.235 -0.5423 -0.0888  0.2074
 5920TIP3    H139251   1.362   4.758   1.141  0.5609  0.2463  0.0693
 5920TIP3    H239252   1.443   4.732   1.267 -0.6291  0.1848  0.8358
 5921TIP3   OH239253   3.389   5.916  14.264  0.2764  0.3966  0.0307
 5921TIP3    H139254   3.457   5.883  14.322  0.8179  0.4140 -0.5854
 5921TIP3    H239255   3.308   5.875  14.296  0.3801  1.2314  1.4537
 5922TIP3   OH239256   0.441   3.942   3.947 -0.3579  0.5113 -0.0135
 5922TIP3    H139257   0.469   4.004   3.879 -0.5688  1.7859  1.0032
 5922TIP3    H239258   0.346   3.953   3.951 -0.5120 -0.5844 -0.4517
 5923TIP3   OH239259   5.121   1.928  14.695  0.5800  0.0807 -0.3235
 5923TIP3    H139260   5.215   1.915  14.709  0.3044  0.9699  3.4539
 5923TIP3    H239261   5.080   1.855  14.741 -0.7219 -1.7107 -3.9633
 5924TIP3   OH239262   1.038   0.350   1.968 -0.1210 -0.6054  0.2809
 5924TIP3    H139263   1.097   0.353   1.892  0.6791 -0.0735  0.9143
 5924TIP3    H239264   0.958   0.391   1.937 -0.7965 -2.7521 -1.0892
 5925TIP3   OH239265   3.410   1.769  16.273  0.0189 -0.2194 -0.5001
 5925TIP3    H139266   3.491   1.817  16.292  0.4163 -1.6362  1.7273
 5925TIP3    H239267   3.412   1.757  16.178  1.7890  0.8464 -0.6616
 5926TIP3   OH239268   6.404   4.102   4.844  0.3063  0.0235  0.1730
 5926TIP3    H139269   6.452   4.137   4.768  0.8022 -0.7406  0.1308
 5926TIP3    H239270   6.448   4.141   4.920  0.5380 -0.1117  0.1091
 5927TIP3   OH239271   3.675   3.043   5.831 -0.2491 -0.2311  0.5355
 5927TIP3    H139272   3.597   3.096   5.813 -1.3734 -1.8201  0.5138
 5927TIP3    H239273   3.676   3.034   5.927 -1.0569 -1.5218  0.4559
 5928TIP3   OH239274   6.406   5.186  12.212  0.6236 -0.2418 -0.2487
 5928TIP3    H139275   6.389   5.108  12.160 -0.5348 -1.1902  1.4265
 5928TIP3    H239276   6.319   5.226  12.223  1.1544  1.1072 -0.8022
 5929TIP3   OH239277   6.555   2.400  16.838  0.2185  0.3343 -0.3230
 5929TIP3    H139278   6.463   2.379  16.857  0.1939 -1.2191 -1.9039
 5929TIP3    H239279   6.554   2.430  16.748  1.1481  1.3339 -0.0158
 5930TIP3   OH239280   2.047   5.416   3.380 -0.1482  0.5233  0.2880
 5930TIP3    H139281   1.987   5.365   3.434 -1.1145 -0.3532 -1.5457
 5930TIP3    H239282   1.991   5.478   3.333  0.2344 -0.5955 -1.7782
 5931TIP3   OH239283   3.751   4.940  15.228 -0.0102 -0.0036 -0.5187
 5931TIP3    H139284   3.686   5.009  15.240 -0.4176 -0.6201  1.3429
 5931TIP3    H239285   3.716   4.886  15.157 -1.1345  0.1698 -0.1286
 5932TIP3   OH239286   2.530   2.866  15.491 -0.8309 -0.4157  0.1508
 5932TIP3    H139287   2.564   2.950  15.459  2.8376 -1.6161  0.4101
 5932TIP3    H239288   2.502   2.820  15.412 -0.4543  0.1120 -0.2995
 5933TIP3   OH239289   0.650   5.428  14.756 -0.7130  0.0130 -0.5491
 5933TIP3    H139290   0.614   5.507  14.716 -0.0159  0.0407 -1.1485
 5933TIP3    H239291   0.743   5.448  14.769 -0.5029 -0.7471 -0.8157
 5934TIP3   OH239292   0.440   4.622  12.999  0.1139 -0.2440 -0.3848
 5934TIP3    H139293   0.363   4.677  12.984  0.1331  0.0554  0.5354
 5934TIP3    H239294   0.407   4.549  13.051  0.3921 -0.2690 -0.2433
 5935TIP3   OH239295   2.062   1.776  15.849 -0.0546  0.8721  0.2359
 5935TIP3    H139296   2.127   1.843  15.869 -1.7098  2.1016  1.7731
 5935TIP3    H239297   1.985   1.824  15.819 -0.1949 -0.5697 -1.9828
 5936TIP3   OH239298   6.719   0.694   3.510 -0.0705  0.4273 -0.8279
 5936TIP3    H139299   6.772   0.672   3.587 -1.1891 -0.8108 -0.3626
 5936TIP3    H239300   6.701   0.609   3.469 -4.1426  0.3192  0.7344
 5937TIP3   OH239301   6.218   1.936   5.970 -0.2428 -0.4779 -0.3732
 5937TIP3    H139302   6.257   1.975   6.049  1.3026  0.9704 -1.7495
 5937TIP3    H239303   6.152   1.875   6.003 -0.7341  1.1812  2.0065
 5938TIP3   OH239304   5.560   0.811   2.743  0.1042  0.0063  0.5779
 5938TIP3    H139305   5.589   0.777   2.828  1.0023 -0.2746  0.1731
 5938TIP3    H239306   5.511   0.739   2.704 -0.5070  0.2154  0.9464
 5939TIP3   OH239307   4.974   2.650   3.302  0.1316 -0.4072  0.1584
 5939TIP3    H139308   4.896   2.705   3.311 -0.0472 -0.8488  1.7030
 5939TIP3    H239309   5.040   2.693   3.358  0.3835 -1.0648  0.3760
 5940TIP3   OH239310   4.765   6.114  14.325  0.4277 -0.2106  0.3340
 5940TIP3    H139311   4.853   6.111  14.362  0.3127  1.2797  0.8122
 5940TIP3    H239312   4.719   6.178  14.380 -0.6751 -0.2956 -0.4715
 5941TIP3   OH239313   4.571   5.396   0.480 -0.2722  0.3385 -0.5773
 5941TIP3    H139314   4.609   5.321   0.434  1.0324  1.7267 -1.8949
 5941TIP3    H239315   4.609   5.393   0.568  0.0689 -0.3306 -0.7400
 5942TIP3   OH239316   5.550   2.268  13.382  0.6716 -0.0765  0.0966
 5942TIP3    H139317   5.509   2.254  13.297 -0.2648 -1.0113  0.6892
 5942TIP3    H239318   5.619   2.202  13.387  1.4451  0.6621 -0.3520
 5943TIP3   OH239319   3.366   4.371   5.482  0.6408  0.3030  0.4546
 5943TIP3    H139320   3.422   4.399   5.554 -0.1375  1.6834  0.5641
 5943TIP3    H239321   3.277   4.389   5.512  0.3392  3.7592 -1.8399
 5944TIP3   OH239322   5.260   1.028   4.643 -0.1439  0.1780  0.2550
 5944TIP3    H139323   5.324   0.957   4.651 -1.9766 -1.6312 -0.3450
 5944TIP3    H239324   5.195   1.008   4.710 -1.5787  0.3176 -1.0645
 5945TIP3   OH239325   1.553   0.042   5.463  0.3380 -0.0792  0.0571
 5945TIP3    H139326   1.534   0.128   5.427  0.7363  0.1665  0.4280
 5945TIP3    H239327   1.553   0.054   5.558 -0.3274 -0.6423  0.1392
 5946TIP3   OH239328   2.351   0.468  14.900  0.1094 -0.1818 -0.2517
 5946TIP3    H139329   2.402   0.399  14.941  2.3805  1.2349 -0.5501
 5946TIP3    H239330   2.263   0.459  14.938  0.5504 -2.6483  0.3298
 5947TIP3   OH239331   5.130   5.734   6.315  0.5115 -0.1520  0.7061
 5947TIP3    H139332   5.043   5.726   6.353 -0.6105  0.7559 -1.4685
 5947TIP3    H239333   5.135   5.664   6.250  1.0436  0.3133  0.2212
 5948TIP3   OH239334   4.485   4.304   5.458 -0.0068 -0.0290  0.1090
 5948TIP3    H139335   4.430   4.328   5.533  0.5208 -0.8776  0.7876
 5948TIP3    H239336   4.575   4.310   5.490  0.3063  0.9832 -0.8874
 5949TIP3   OH239337   2.720   3.684  14.279 -0.1832 -0.6703 -0.0328
 5949TIP3    H139338   2.749   3.770  14.311 -0.3676 -0.3429 -0.7343
 5949TIP3    H239339   2.683   3.702  14.193 -1.7056 -1.2142  0.4847
 5950TIP3   OH239340   6.786   4.879  14.492  0.5143  0.4225  0.1076
 5950TIP3    H139341   6.753   4.870  14.581  1.3611  1.4229  0.5555
 5950TIP3    H239342   6.710   4.904  14.440  0.5064  2.7101  1.1080
 5951TIP3   OH239343   2.454   4.691  11.629 -0.1112 -0.1827  0.0105
 5951TIP3    H139344   2.519   4.649  11.685  1.6140  2.6974  0.4186
 5951TIP3    H239345   2.379   4.705  11.686  0.7565  0.6555  0.9961
 5952TIP3   OH239346   4.622   1.114   1.305  0.4968 -0.3953 -0.2859
 5952TIP3    H139347   4.717   1.126   1.304  0.2008  2.8002 -0.1023
 5952TIP3    H239348   4.591   1.174   1.373 -1.5375 -3.3612  1.6526
 5953TIP3   OH239349   0.789   3.849   5.039  0.0674  0.0804 -0.1814
 5953TIP3    H139350   0.718   3.886   4.987  0.9160 -0.1779 -1.5980
 5953TIP3    H239351   0.836   3.926   5.072 -2.9933  0.4308  4.1295
 5954TIP3   OH239352   6.135   1.449  13.996  0.2764 -0.6656  0.3852
 5954TIP3    H139353   6.214   1.459  13.943  0.2719 -1.3198  0.2470
 5954TIP3    H239354   6.129   1.530  14.047  0.9985 -0.5890  0.3500
 5955TIP3   OH239355   2.060   3.178   0.901  0.1152  0.0298 -0.4190
 5955TIP3    H139356   2.099   3.227   0.974  0.6378  0.2962 -0.8729
 5955TIP3    H239357   2.005   3.112   0.944  0.8942 -0.2194  0.2365
 5956TIP3   OH239358   4.918   0.896   6.114  0.2234  0.2706  0.2856
 5956TIP3    H139359   4.944   0.968   6.172 -0.9208 -0.5358  1.8948
 5956TIP3    H239360   4.877   0.832   6.173 -2.8292  0.2522 -1.6836
 5957TIP3   OH239361   2.531   4.529   2.716 -0.2737 -0.0535 -0.7640
 5957TIP3    H139362   2.481   4.536   2.797  1.7713  2.5535  0.4053
 5957TIP3    H239363   2.570   4.441   2.719 -0.8281 -0.2667  0.6904
 5958TIP3   OH239364   5.139   5.170   1.951 -0.2314 -0.1489  0.3459
 5958TIP3    H139365   5.132   5.096   2.011  0.5432  0.7014  1.5557
 5958TIP3    H239366   5.226   5.207   1.970 -0.0056  0.2032 -1.2560
 5959TIP3   OH239367   2.884   0.969   6.176 -0.0609 -1.0903 -0.0599
 5959TIP3    H139368   2.950   0.905   6.201  1.3278  0.1670 -0.3456
 5959TIP3    H239369   2.870   1.022   6.254 -0.3058 -0.9866 -0.1705
 5960TIP3   OH239370   3.526   3.498  11.472 -0.4613 -0.1882 -0.1338
 5960TIP3    H139371   3.566   3.581  11.498  0.3244 -1.6766  4.1725
 5960TIP3    H239372   3.440   3.499  11.514  0.0986 -2.0244  1.1615
 5961TIP3   OH239373   4.734   6.829  15.490  0.0455 -0.2572 -0.1164
 5961TIP3    H139374   4.645   6.797  15.505 -0.5355  0.2468 -2.1545
 5961TIP3    H239375   4.729   6.922  15.510 -0.5005  0.2242 -2.1757
 5962TIP3   OH239376   0.464   4.935  11.265  0.4288  0.1452  1.0275
 5962TIP3    H139377   0.502   4.895  11.187 -1.5417 -2.0164  1.0699
 5962TIP3    H239378   0.427   5.018  11.235 -0.1135 -0.5577 -0.2834
 5963TIP3   OH239379   6.214   2.181   3.250 -0.1134 -0.0132  0.2286
 5963TIP3    H139380   6.309   2.181   3.242 -0.0916 -3.4088 -1.0079
 5963TIP3    H239381   6.196   2.240   3.323  2.8750  1.0725  0.2062
 5964TIP3   OH239382   3.574   2.787   5.320  0.4097 -0.4528 -0.9697
 5964TIP3    H139383   3.660   2.777   5.280  0.3536 -2.3475 -0.6996
 5964TIP3    H239384   3.559   2.705   5.366 -1.3528  0.0165 -0.6267
 5965TIP3   OH239385   2.488   0.984   0.098  0.1823  0.0100 -0.5856
 5965TIP3    H139386   2.435   0.907   0.116 -0.2766  0.6985  1.2266
 5965TIP3    H239387   2.529   0.966   0.013 -0.1427 -2.0707 -0.3464
 5966TIP3   OH239388   6.037   6.354   5.194  0.6488 -0.1996 -0.0697
 5966TIP3    H139389   5.950   6.315   5.185  0.2347  0.6626  0.1165
 5966TIP3    H239390   6.094   6.280   5.214  0.1770 -0.9514 -1.3771
 5967TIP3   OH239391   5.248   2.623   4.943  0.5174  0.3305  0.6284
 5967TIP3    H139392   5.282   2.712   4.937  1.1121  0.0866  0.3368
 5967TIP3    H239393   5.286   2.578   4.868 -1.7721  0.4789 -0.7285
 5968TIP3   OH239394   5.083   4.892  14.858 -0.2157 -0.2482 -0.4841
 5968TIP3    H139395   5.022   4.916  14.928  2.7895  1.3302  1.8304
 5968TIP3    H239396   5.138   4.824  14.896  1.4309  0.5677 -1.2990
 5969TIP3   OH239397   5.361   4.804  12.126  0.4299  0.4264 -0.4023
 5969TIP3    H139398   5.375   4.755  12.208  1.0192 -0.1876 -0.8500
 5969TIP3    H239399   5.446   4.799  12.082 -0.4620 -1.1622 -2.0598
 5970TIP3   OH239400   2.478   3.191  11.890 -0.0423 -0.3024  0.2285
 5970TIP3    H139401   2.507   3.200  11.799 -1.4573  1.2739 -0.1089
 5970TIP3    H239402   2.418   3.264  11.904 -0.0923 -0.6814  2.3565
 5971TIP3   OH239403   2.398   3.064  17.060 -0.6529  0.0903 -0.4943
 5971TIP3    H139404   2.394   3.107  16.975 -1.1089 -1.5049 -1.3178
 5971TIP3    H239405   2.458   3.118  17.111  0.3486  0.5970 -2.1228
 5972TIP3   OH239406   0.317   3.590  12.354 -0.3981  0.5526  0.2598
 5972TIP3    H139407   0.331   3.540  12.435  1.2066 -0.7564 -0.7657
 5972TIP3    H239408   0.394   3.572  12.301 -2.2959 -0.2578 -2.4181
 5973TIP3   OH239409   6.185   4.834  11.576  0.2501  0.2099  0.4608
 5973TIP3    H139410   6.090   4.842  11.575  0.3282  1.4754 -0.5709
 5973TIP3    H239411   6.202   4.740  11.576 -1.0198 -0.0537 -0.6659
 5974TIP3   OH239412   6.167   3.123  16.368  0.0412  0.3462 -0.5002
 5974TIP3    H139413   6.235   3.073  16.413 -0.8290 -0.3371  0.0783
 5974TIP3    H239414   6.212   3.201  16.337  1.3575 -0.6121 -1.1125
 5975TIP3   OH239415   2.507   5.242  16.200 -0.1384  0.0536 -0.3517
 5975TIP3    H139416   2.601   5.251  16.216 -0.2330  0.6559 -0.0965
 5975TIP3    H239417   2.470   5.325  16.230 -0.7917 -0.3096 -0.1278
 5976TIP3   OH239418   1.889   5.983  10.580  0.6121  0.3477 -0.5172
 5976TIP3    H139419   1.803   6.023  10.569 -1.0659 -1.5027  3.5842
 5976TIP3    H239420   1.884   5.900  10.532 -0.5930 -0.4533  0.8971
 5977TIP3   OH239421   0.092   2.541  16.403 -0.4084  0.5885  0.1416
 5977TIP3    H139422   0.166   2.507  16.452 -0.5102  1.2179  0.7557
 5977TIP3    H239423   0.041   2.464  16.378 -0.5161  0.2672  1.2972
 5978TIP3   OH239424   4.489   2.856  12.856  0.0414 -0.3597 -0.0246
 5978TIP3    H139425   4.414   2.871  12.914 -1.0000 -1.3174 -1.0728
 5978TIP3    H239426   4.451   2.821  12.776  1.6499 -1.2239 -0.4564
 5979TIP3   OH239427   1.248   5.674   4.997 -0.3261 -0.0353 -0.2419
 5979TIP3    H139428   1.171   5.622   5.018 -0.6419  0.7630  0.6322
 5979TIP3    H239429   1.267   5.654   4.905 -0.4748 -1.6236  0.0531
 5980TIP3   OH239430   4.281   4.640   2.074  0.4623  0.1214 -0.3351
 5980TIP3    H139431   4.198   4.608   2.109  0.4331 -0.9959 -1.3557
 5980TIP3    H239432   4.259   4.677   1.988  1.0689 -0.6280 -0.8316
 5981TIP3   OH239433   4.929   1.357   3.582 -0.5951  0.4330 -0.4497
 5981TIP3    H139434   4.974   1.334   3.663  1.8443 -1.5641 -2.2014
 5981TIP3    H239435   4.932   1.453   3.579  1.9077  0.4618  0.5125
 5982TIP3   OH239436   4.807   1.699   0.272  0.4151  0.5447  0.4623
 5982TIP3    H139437   4.785   1.751   0.195  0.1280  1.3809  1.0951
 5982TIP3    H239438   4.766   1.614   0.257  1.6585  0.1628 -1.0119
 5983TIP3   OH239439   0.486   1.970  11.376  0.3206  0.2143 -0.1110
 5983TIP3    H139440   0.545   2.021  11.321 -0.0909  0.4651 -0.3266
 5983TIP3    H239441   0.517   1.880  11.367 -0.7360 -0.0140 -2.1032
 5984TIP3   OH239442   0.368   4.390  16.746 -0.2010 -0.1275  0.1847
 5984TIP3    H139443   0.421   4.335  16.689 -0.1079 -0.7621  0.8639
 5984TIP3    H239444   0.311   4.439  16.687  0.5696 -0.0408 -0.5021
 5985TIP3   OH239445   2.451   1.199  13.729  0.0051  0.4468 -0.0599
 5985TIP3    H139446   2.441   1.281  13.779  0.4162  1.7834 -2.0659
 5985TIP3    H239447   2.526   1.215  13.672  0.1702 -1.4103 -0.4049
 5986TIP3   OH239448   4.345   2.925   1.107 -0.0726  0.1232 -0.2181
 5986TIP3    H139449   4.330   3.019   1.105  2.1771  0.5357 -1.7176
 5986TIP3    H239450   4.351   2.900   1.014 -0.7013 -1.5149  0.1539
 5987TIP3   OH239451   2.446   4.442   3.680 -0.1370 -0.9075 -0.1145
 5987TIP3    H139452   2.422   4.478   3.766 -1.1721 -1.8113 -0.0109
 5987TIP3    H239453   2.428   4.513   3.618  1.4287  0.0595  0.4774
 5988TIP3   OH239454   1.531   0.639   5.507 -0.3871  0.0108  0.4368
 5988TIP3    H139455   1.556   0.547   5.506  1.3777  0.4626 -0.2056
 5988TIP3    H239456   1.577   0.676   5.582 -1.5811  0.2641  1.0703
 5989TIP3   OH239457   4.998   2.072  14.292  0.1397  0.0234  0.0713
 5989TIP3    H139458   4.975   1.979  14.304  0.8464 -0.0701  0.8463
 5989TIP3    H239459   4.970   2.093  14.203 -0.7345 -0.7227  0.1576
 5990TIP3   OH239460   5.802   4.380  14.606 -0.1620  0.3014 -0.1988
 5990TIP3    H139461   5.739   4.314  14.634  0.1974  0.7128  1.7704
 5990TIP3    H239462   5.887   4.342  14.627  0.0176  1.8209  2.1891
 5991TIP3   OH239463   2.717   0.940  14.196  0.4681  0.7067 -0.5091
 5991TIP3    H139464   2.711   0.847  14.172 -2.1165 -0.0473  2.4158
 5991TIP3    H239465   2.632   0.976  14.172  1.1883  2.1881 -0.9562
 5992TIP3   OH239466   2.434   6.657   0.496 -0.3567 -0.3349  0.1915
 5992TIP3    H139467   2.508   6.691   0.545  0.4599 -1.1073 -0.4802
 5992TIP3    H239468   2.357   6.685   0.546  0.3273  1.3414  0.3558
 5993TIP3   OH239469   2.606   5.054  13.855 -0.1267 -0.0455 -0.2938
 5993TIP3    H139470   2.637   4.993  13.788 -3.6995  0.1994 -2.4416
 5993TIP3    H239471   2.579   4.998  13.928  2.4977 -0.4164  0.4930
 5994TIP3   OH239472   6.397   5.107  10.482  0.6875  0.3583  0.1259
 5994TIP3    H139473   6.474   5.071  10.436  2.4548  1.9826  1.6405
 5994TIP3    H239474   6.410   5.202  10.480 -0.0148  0.5640  2.4902
 5995TIP3   OH239475   1.655   1.615   0.632 -1.0057  0.1175  0.8173
 5995TIP3    H139476   1.699   1.564   0.700 -1.9395 -1.1310  0.5282
 5995TIP3    H239477   1.662   1.706   0.661 -2.7441 -0.4731  3.4527
 5996TIP3   OH239478   3.962   1.092  15.624 -0.1551 -0.3422  0.7149
 5996TIP3    H139479   3.907   1.157  15.581 -1.1602  1.1099  3.9055
 5996TIP3    H239480   4.037   1.080  15.565 -1.0161  2.0688 -0.9929
 5997TIP3   OH239481   5.242   2.300   3.174 -0.3929 -0.5181 -0.3067
 5997TIP3    H139482   5.193   2.229   3.132  0.3588 -1.1378 -0.1724
 5997TIP3    H239483   5.193   2.319   3.254 -1.3348  0.0494 -0.9924
 5998TIP3   OH239484   2.558   0.007   0.673 -0.3714  0.3893 -1.1525
 5998TIP3    H139485   2.613   0.062   0.617  3.4199  0.2932  2.0091
 5998TIP3    H239486   2.501   0.069   0.719  2.1511  1.6030  0.5764
 5999TIP3   OH239487   5.666   6.219   2.078 -0.0010  0.4039 -0.3307
 5999TIP3    H139488   5.615   6.225   1.996  2.5927  2.0433 -1.9814
 5999TIP3    H239489   5.607   6.253   2.145 -2.0427 -0.4640 -1.5782
 6000TIP3   OH239490   0.074   6.424  11.895  0.0932 -0.0953 -0.2396
 6000TIP3    H139491   0.095   6.333  11.874 -1.3924 -0.0578 -2.1147
 6000TIP3    H239492   0.159   6.468  11.893  0.6641 -1.1546 -0.9154
 6001TIP3   OH239493   5.475   5.128  12.163 -0.3837  0.0235 -0.1423
 6001TIP3    H139494   5.433   5.178  12.093  1.6137 -0.9826 -2.1619
 6001TIP3    H239495   5.537   5.190  12.202 -0.2642  0.0807 -0.4212
 6002TIP3   OH239496   4.010   1.760  15.040 -0.6718  0.4066 -0.3048
 6002TIP3    H139497   3.935   1.810  15.008 -0.7801  0.7148  0.4119
 6002TIP3    H239498   4.082   1.785  14.982 -0.8428  1.0220 -0.2585
 6003TIP3   OH239499   5.234   5.769   6.006  0.2067 -0.4051  0.6439
 6003TIP3    H139500   5.296   5.744   6.074  0.5823 -1.1011  0.0667
 6003TIP3    H239501   5.149   5.771   6.050  0.3081 -1.7496  0.9472
 6004TIP3   OH239502   6.070   0.791   2.347 -0.3765 -0.2856  0.5216
 6004TIP3    H139503   6.148   0.763   2.394  0.2597  0.3529 -0.1280
 6004TIP3    H239504   5.998   0.771   2.407 -0.0817 -3.8068 -0.1267
 6005TIP3   OH239505   5.784   4.950  11.827  0.3185  0.6486 -0.1195
 6005TIP3    H139506   5.784   5.038  11.864  0.1175  0.4444  0.3781
 6005TIP3    H239507   5.876   4.923  11.827  0.3806  0.8573 -0.2802
 6006TIP3   OH239508   4.210   0.638  12.826 -0.3980  0.0543 -0.6463
 6006TIP3    H139509   4.271   0.586  12.774  1.0829 -1.8848  2.6715
 6006TIP3    H239510   4.124   0.612  12.795  0.3592 -2.8498 -0.6142
 6007TIP3   OH239511   4.559   2.154   1.554  0.1434 -0.4007  0.6436
 6007TIP3    H139512   4.623   2.098   1.511  2.5663  0.7556  2.4821
 6007TIP3    H239513   4.487   2.096   1.577  0.0345 -1.5878 -2.2661
 6008TIP3   OH239514   3.348   0.555   6.658  0.2888  0.0049  0.0513
 6008TIP3    H139515   3.427   0.533   6.706  1.4331  0.6934 -1.4371
 6008TIP3    H239516   3.282   0.493   6.690  1.5900 -1.0211  0.8364
 6009TIP3   OH239517   3.569   5.282   1.048  0.7005 -0.6255 -0.0484
 6009TIP3    H139518   3.502   5.292   1.115  0.1985  0.3251 -0.6682
 6009TIP3    H239519   3.628   5.356   1.061 -1.2191  1.5835 -2.6388
 6010TIP3   OH239520   3.786   4.889   0.968  0.0045 -0.2154  0.5615
 6010TIP3    H139521   3.738   4.963   0.931 -0.6457 -0.3677  1.0889
 6010TIP3    H239522   3.876   4.902   0.937 -0.3462  0.1129 -0.3741
 6011TIP3   OH239523   0.291   1.903   0.573  0.2448 -0.0507 -0.4075
 6011TIP3    H139524   0.198   1.911   0.549  0.1001 -1.7839 -0.5504
 6011TIP3    H239525   0.335   1.886   0.490  0.2446 -2.2437 -0.0401
 6012TIP3   OH239526   2.646   5.413  13.378 -0.4180  0.5667  0.2745
 6012TIP3    H139527   2.716   5.479  13.382 -0.8009  0.9321  0.9919
 6012TIP3    H239528   2.569   5.457  13.414 -0.6098 -0.3632  1.0211
 6013TIP3   OH239529   1.051   1.457   2.138 -0.2186 -0.6321  0.3510
 6013TIP3    H139530   1.037   1.441   2.231 -0.5449  0.9775  0.6156
 6013TIP3    H239531   0.964   1.456   2.100 -0.2100 -0.0616  0.3009
 6014TIP3   OH239532   3.374   5.080   1.570 -0.6728 -0.2720 -0.1457
 6014TIP3    H139533   3.317   5.157   1.569 -0.6538 -0.2393  0.5194
 6014TIP3    H239534   3.447   5.104   1.514 -0.0788  0.6703  0.9793
 6015TIP3   OH239535   1.611   3.463   4.099 -0.2314  0.0893  0.3666
 6015TIP3    H139536   1.525   3.504   4.092  0.1316  0.7258 -0.5333
 6015TIP3    H239537   1.598   3.389   4.159 -1.0399  1.1205  1.4976
 6016TIP3   OH239538   2.694   2.108  14.503  0.0139  0.1221  0.3694
 6016TIP3    H139539   2.746   2.034  14.536  0.8190  0.7097  0.4671
 6016TIP3    H239540   2.711   2.108  14.408  1.6961  1.3988  0.6193
 6017TIP3   OH239541   2.306   3.247   5.847  0.7962 -0.0619  0.4623
 6017TIP3    H139542   2.348   3.299   5.916 -1.5256  0.6907  1.3946
 6017TIP3    H239543   2.379   3.204   5.802  2.4664  0.3582  2.6203
 6018TIP3   OH239544   2.896   4.131   4.287 -0.1917  0.0030 -0.2493
 6018TIP3    H139545   2.851   4.057   4.248 -0.5887 -0.7171  1.4853
 6018TIP3    H239546   2.833   4.169   4.348  0.8031  0.3288  0.6035
 6019TIP3   OH239547   3.401   0.251   4.921 -0.0451 -0.0930  0.2677
 6019TIP3    H139548   3.333   0.250   4.988  1.3611 -0.2702  1.7592
 6019TIP3    H239549   3.356   0.227   4.840 -1.9828  1.0933  0.9341
 6020TIP3   OH239550   6.202   1.832  14.139 -0.6870 -0.7180 -0.4263
 6020TIP3    H139551   6.282   1.869  14.176 -0.6192 -1.0348 -0.2541
 6020TIP3    H239552   6.230   1.750  14.098 -0.5961  0.0425 -1.9504
 6021TIP3   OH239553   1.768   1.083   3.897  0.0223 -1.0041 -0.0261
 6021TIP3    H139554   1.859   1.110   3.909 -0.1575 -0.2143 -0.4142
 6021TIP3    H239555   1.738   1.060   3.985 -0.3532  1.8068  0.6668
 6022TIP3   OH239556   0.872   2.932  10.899  0.1894  0.1795 -0.7596
 6022TIP3    H139557   0.865   3.009  10.842 -1.3336  2.5085  2.2577
 6022TIP3    H239558   0.820   2.955  10.976  0.7962 -3.3951  0.9083
 6023TIP3   OH239559   3.852   4.148  10.602 -0.4441  0.5826  0.2554
 6023TIP3    H139560   3.872   4.189  10.685 -0.2775  0.7670  0.1245
 6023TIP3    H239561   3.898   4.201  10.537  0.5508 -0.3521  0.1663
 6024TIP3   OH239562   4.408   5.230   5.003 -0.7362  0.4379  0.1128
 6024TIP3    H139563   4.366   5.235   5.089  1.2871 -2.4256  1.4574
 6024TIP3    H239564   4.342   5.193   4.945 -1.7438  1.2730  0.6914
 6025TIP3   OH239565   1.608   6.547  15.630  0.3653  0.9353 -0.6344
 6025TIP3    H139566   1.693   6.590  15.629  1.4612 -1.0476  0.5390
 6025TIP3    H239567   1.584   6.543  15.722  0.6193 -1.3790 -0.5996
 6026TIP3   OH239568   6.674   4.782  13.814  0.1452 -0.1022  0.7163
 6026TIP3    H139569   6.656   4.811  13.904  1.6415  0.2086  0.9362
 6026TIP3    H239570   6.619   4.704  13.803 -0.0536 -0.1529  1.9078
 6027TIP3   OH239571   0.054   1.936   3.483  0.4980 -0.0106  0.6609
 6027TIP3    H139572   0.091   1.848   3.494  0.7143 -0.3575 -2.0911
 6027TIP3    H239573   0.006   1.931   3.400 -1.8242  1.7422  1.7620
 6028TIP3   OH239574   1.817   1.702  11.791 -0.7509  0.1530 -0.3904
 6028TIP3    H139575   1.812   1.649  11.871  0.7799 -1.1632 -1.1074
 6028TIP3    H239576   1.769   1.651  11.726 -1.4582  0.9180 -0.4788
 6029TIP3   OH239577   0.950   6.339   0.416  0.6426  0.8867 -0.0487
 6029TIP3    H139578   0.907   6.263   0.455 -2.8279  1.7916 -1.7245
 6029TIP3    H239579   1.006   6.374   0.486  0.7734 -1.9642  1.4063
 6030TIP3   OH239580   6.219   6.165  12.897 -0.6747 -0.2406  0.2801
 6030TIP3    H139581   6.213   6.071  12.881 -0.1541 -0.5859  1.8920
 6030TIP3    H239582   6.290   6.174  12.961 -0.9316  1.2152  0.4064
 6031TIP3   OH239583   5.525   0.912   3.945  0.3509 -0.2166  0.3930
 6031TIP3    H139584   5.511   0.998   3.983  0.7544  0.5402 -1.0767
 6031TIP3    H239585   5.473   0.913   3.864  1.4099 -0.8329 -0.3296
 6032TIP3   OH239586   6.838   5.959  11.065 -0.5472 -0.5753 -0.0699
 6032TIP3    H139587   6.834   6.037  11.009 -0.9531  0.2860  1.1135
 6032TIP3    H239588   6.755   5.913  11.049 -0.6171 -0.3871 -0.2477
 6033TIP3   OH239589   6.346   0.945   2.741 -0.6268  0.2174  0.4846
 6033TIP3    H139590   6.436   0.956   2.711 -0.4894 -0.8476  0.4374
 6033TIP3    H239591   6.316   1.033   2.761  0.0638  0.7125 -0.5332
 6034TIP3   OH239592   1.324   5.786   0.552  0.0237  0.1269 -0.0563
 6034TIP3    H139593   1.373   5.827   0.480  1.1662  0.3618  0.8279
 6034TIP3    H239594   1.384   5.722   0.588 -0.4038  0.2600  0.9182
 6035TIP3   OH239595   1.215   0.838   0.273 -0.2200 -0.1724 -0.0045
 6035TIP3    H139596   1.165   0.776   0.326 -0.2498 -0.5038 -0.4176
 6035TIP3    H239597   1.203   0.922   0.317 -1.0599 -0.2641 -0.0468
 6036TIP3   OH239598   1.742   2.028   2.103 -0.0995  0.0925  0.6780
 6036TIP3    H139599   1.816   1.974   2.077  0.6802  1.6520 -0.4536
 6036TIP3    H239600   1.690   1.971   2.160  1.5600 -1.2714  0.9010
 6037TIP3   OH239601   0.311   6.464   6.187  0.4211  0.9120 -0.0324
 6037TIP3    H139602   0.313   6.377   6.226 -0.1124  0.0402 -1.8332
 6037TIP3    H239603   0.278   6.521   6.257 -1.2509 -0.7028  0.5804
 6038TIP3   OH239604   2.730   4.794  16.342  0.2565 -0.1131 -0.3741
 6038TIP3    H139605   2.696   4.845  16.269 -1.4299 -0.8416 -0.1469
 6038TIP3    H239606   2.731   4.704  16.311  1.7393 -0.1685 -0.2488
 6039TIP3   OH239607   1.832   5.188   0.824  0.1552  0.1277  0.3158
 6039TIP3    H139608   1.784   5.136   0.889  1.1932 -0.9286  0.2725
 6039TIP3    H239609   1.837   5.132   0.747  1.7143  0.0675  0.4253
 6040TIP3   OH239610   1.155   3.399   0.677  0.4240 -0.1883 -0.4966
 6040TIP3    H139611   1.095   3.352   0.619  0.5312  1.3816 -1.9300
 6040TIP3    H239612   1.241   3.362   0.658  0.1439 -1.5090  0.6078
 6041TIP3   OH239613   0.143   5.426  10.995  0.4272 -0.6376 -0.3704
 6041TIP3    H139614   0.194   5.361  11.042 -1.3047 -3.1363 -1.6981
 6041TIP3    H239615   0.185   5.432  10.909 -0.0451 -0.8420 -0.6211
 6042TIP3   OH239616   6.537   0.346   5.593  0.2254 -0.4277 -0.3125
 6042TIP3    H139617   6.449   0.344   5.630  0.2609 -1.4335 -0.2677
 6042TIP3    H239618   6.559   0.440   5.589 -1.2842 -0.0858 -1.3810
 6043TIP3   OH239619   0.588   0.640  15.057 -0.0807  0.2266  0.4731
 6043TIP3    H139620   0.562   0.698  15.129 -1.0763  0.9636 -0.4364
 6043TIP3    H239621   0.546   0.557  15.077 -2.7579  1.2015 -0.6160
 6044TIP3   OH239622   1.733   5.851  11.096 -0.6147 -0.0979  0.1961
 6044TIP3    H139623   1.782   5.817  11.022 -1.2823  0.2755 -0.4267
 6044TIP3    H239624   1.683   5.775  11.128  1.3754 -0.8639  1.7306
 6045TIP3   OH239625   4.585   1.841   2.650  0.5689  0.0081 -0.1221
 6045TIP3    H139626   4.558   1.839   2.741  1.3879 -0.8076  0.1160
 6045TIP3    H239627   4.507   1.816   2.600 -0.2407  1.6839  0.2474
 6046TIP3   OH239628   1.261   1.501  12.242  0.5098  0.0357 -0.0017
 6046TIP3    H139629   1.224   1.469  12.324  0.1765 -0.0278 -0.1710
 6046TIP3    H239630   1.187   1.499  12.181  0.9665 -0.7804 -0.5421
 6047TIP3   OH239631   3.635   0.847   6.332  0.2849 -0.1294 -0.1069
 6047TIP3    H139632   3.584   0.923   6.301  1.5638  0.2838 -1.3267
 6047TIP3    H239633   3.589   0.818   6.410 -0.5437  1.5944  0.1069
 6048TIP3   OH239634   2.856   5.690   2.898  0.7545  0.0227  0.4643
 6048TIP3    H139635   2.771   5.696   2.853  1.1327  1.6788 -0.1198
 6048TIP3    H239636   2.909   5.634   2.841  0.8336  1.0968 -0.5717
 6049TIP3   OH239637   6.140   2.352   4.556  0.1932  0.1886  0.2893
 6049TIP3    H139638   6.163   2.420   4.492  2.0744  0.7859  1.5131
 6049TIP3    H239639   6.091   2.398   4.624 -0.7959 -0.2210 -0.1267
 6050TIP3   OH239640   5.501   4.220   0.763  0.1751  0.0396 -0.2677
 6050TIP3    H139641   5.438   4.243   0.831 -0.2051 -0.0954 -0.5662
 6050TIP3    H239642   5.584   4.259   0.791 -0.4837  1.9350 -0.8681
 6051TIP3   OH239643   4.862   3.529  10.260 -0.6078  0.0353 -0.1435
 6051TIP3    H139644   4.913   3.529  10.179 -0.4591 -0.4839 -0.0557
 6051TIP3    H239645   4.928   3.529  10.329 -0.7054 -1.1680 -0.0292
 6052TIP3   OH239646   2.296   3.987   2.461 -0.2953 -0.0138  0.0561
 6052TIP3    H139647   2.256   3.920   2.406  1.5445  0.5721 -2.1091
 6052TIP3    H239648   2.263   4.070   2.426 -1.2604  0.3312  1.6616
 6053TIP3   OH239649   6.395   3.296  13.849  0.2265 -1.0309 -0.2588
 6053TIP3    H139650   6.481   3.301  13.808  1.2233  0.1628  1.8072
 6053TIP3    H239651   6.372   3.386  13.869 -1.2728 -1.3795 -0.2855
 6054TIP3   OH239652   3.871   5.026  10.762  0.0704  0.3109 -0.3618
 6054TIP3    H139653   3.901   4.942  10.795  1.6798  0.4878 -1.2834
 6054TIP3    H239654   3.784   5.008  10.726  0.4826 -1.0093 -0.7371
 6055TIP3   OH239655   6.418   5.557  15.281  0.3874  0.3362  0.1011
 6055TIP3    H139656   6.405   5.612  15.359  1.0306  1.5294 -0.6037
 6055TIP3    H239657   6.498   5.591  15.241 -0.2320  0.1140 -1.3884
 6056TIP3   OH239658   6.367   1.523  12.923 -0.4682  0.0400  0.3746
 6056TIP3    H139659   6.298   1.569  12.874 -1.3059 -0.6593  0.8708
 6056TIP3    H239660   6.424   1.487  12.855 -0.5938  0.6055 -0.0466
 6057TIP3   OH239661   3.928   1.865   0.791 -0.2127  0.3054 -0.1045
 6057TIP3    H139662   3.994   1.929   0.814  0.0969  0.1410 -0.5137
 6057TIP3    H239663   3.951   1.838   0.702 -0.8784  0.3109 -0.2853
 6058TIP3   OH239664   1.332   3.948   4.269 -0.0668 -0.4702  0.0401
 6058TIP3    H139665   1.323   3.907   4.183  0.0381 -0.4949  0.0413
 6058TIP3    H239666   1.295   4.036   4.258  1.8757  0.3191 -0.6045
 6059TIP3   OH239667   2.103   2.813   0.174 -0.5293 -0.0483 -0.5437
 6059TIP3    H139668   2.069   2.853   0.094 -1.1884  0.9410  0.2050
 6059TIP3    H239669   2.040   2.744   0.195  0.3667 -1.2114 -1.5917
 6060TIP3   OH239670   5.880   2.880  14.975  0.3631  0.1267 -0.3236
 6060TIP3    H139671   5.868   2.971  14.948 -0.1625  0.0441 -0.3667
 6060TIP3    H239672   5.972   2.875  15.001 -0.1683  1.3113  2.0889
 6061TIP3   OH239673   4.890   0.045   0.977 -0.0778  0.0209  0.3239
 6061TIP3    H139674   4.980   0.020   0.995  0.6273  1.7352 -0.5900
 6061TIP3    H239675   4.845   0.037   1.061  1.4620  1.2674  1.3107
 6062TIP3   OH239676   2.306   3.787   0.804  0.6964 -0.0756  0.3422
 6062TIP3    H139677   2.349   3.739   0.734  0.8715 -0.6305  0.8261
 6062TIP3    H239678   2.215   3.755   0.803  0.8331 -0.4881  0.7179
 6063TIP3   OH239679   6.631   0.135  12.713 -0.0028  0.5009  0.0102
 6063TIP3    H139680   6.544   0.173  12.726 -0.2883  0.2779 -1.0975
 6063TIP3    H239681   6.652   0.155  12.621  0.7423 -0.2038  0.0185
 6064TIP3   OH239682   2.923   6.425  15.374 -0.4199  0.0705  0.2632
 6064TIP3    H139683   2.963   6.359  15.431  0.3628  0.1735 -0.1401
 6064TIP3    H239684   2.844   6.453  15.419  0.6218  0.7712  1.7280
 6065TIP3   OH239685   3.308   2.861   2.420 -0.1862 -0.0401 -0.7259
 6065TIP3    H139686   3.302   2.957   2.421 -1.8367 -0.1312  0.2139
 6065TIP3    H239687   3.251   2.835   2.348 -0.9377 -0.3678 -0.0250
 6066TIP3   OH239688   6.830   5.604  14.654  0.4334  0.1309  0.2354
 6066TIP3    H139689   6.852   5.517  14.685  1.9306  0.7906  1.1378
 6066TIP3    H239690   6.873   5.664  14.715 -0.5310  1.5157 -0.3676
 6067TIP3   OH239691   5.341   6.593   3.025 -0.4229  0.1894  0.1131
 6067TIP3    H139692   5.251   6.560   3.017 -0.3986 -0.3486  1.5974
 6067TIP3    H239693   5.371   6.557   3.109  0.9979  0.7988 -0.1154
 6068TIP3   OH239694   6.251   1.377  15.151  0.1082 -0.1889  0.0675
 6068TIP3    H139695   6.336   1.340  15.174  1.4591  1.8484 -1.2971
 6068TIP3    H239696   6.223   1.423  15.230  0.5228 -0.4240  0.3543
 6069TIP3   OH239697   3.348   5.048   6.026 -0.1861 -0.3096 -0.1527
 6069TIP3    H139698   3.374   5.108   6.096 -0.2331  0.3917 -0.7363
 6069TIP3    H239699   3.346   4.962   6.069  0.0606  0.0694  0.6406
 6070TIP3   OH239700   4.188   3.225   0.194  0.4951 -0.1473  0.4543
 6070TIP3    H139701   4.270   3.186   0.225 -0.3076 -1.3132  1.1813
 6070TIP3    H239702   4.188   3.209   0.099  0.6122 -1.1482  0.6076
 6071TIP3   OH239703   3.847   3.605  10.899  0.2422  0.8285  0.2764
 6071TIP3    H139704   3.789   3.655  10.956 -2.4765  0.0002 -1.5661
 6071TIP3    H239705   3.822   3.630  10.810  1.0625 -1.3007 -0.6368
 6072TIP3   OH239706   1.523   0.950  16.338 -0.1844 -0.7784 -0.2582
 6072TIP3    H139707   1.575   0.887  16.388 -0.6824 -1.1186 -0.1545
 6072TIP3    H239708   1.528   0.918  16.247  0.0701 -0.6135 -0.3021
 6073TIP3   OH239709   6.373   3.805   2.833  0.6380 -0.5323 -0.0749
 6073TIP3    H139710   6.278   3.803   2.829  0.6232 -2.4771  0.2289
 6073TIP3    H239711   6.395   3.898   2.833 -1.2657 -0.0364  0.2122
 6074TIP3   OH239712   6.314   0.312  14.781 -0.1927 -0.3339  0.4797
 6074TIP3    H139713   6.321   0.237  14.839 -0.1429 -3.0061 -2.7019
 6074TIP3    H239714   6.404   0.337  14.763 -0.1216 -1.1786 -0.3937
 6075TIP3   OH239715   1.118   2.850   1.802  0.4574 -0.6746  0.2509
 6075TIP3    H139716   1.054   2.920   1.812 -0.8883 -1.5859 -1.3701
 6075TIP3    H239717   1.174   2.879   1.730  1.5676 -0.1357  1.2934
 6076TIP3   OH239718   0.584   0.315  12.160 -0.4477  0.2015 -0.4966
 6076TIP3    H139719   0.577   0.224  12.132  0.1839 -0.2737  0.8332
 6076TIP3    H239720   0.505   0.330  12.212 -1.4335  0.9753 -2.1138
 6077TIP3   OH239721   2.526   0.126   3.134 -0.1574  1.0413  0.1847
 6077TIP3    H139722   2.450   0.097   3.184 -0.3099  1.8732  0.4469
 6077TIP3    H239723   2.535   0.061   3.064 -1.2780  1.0761 -0.0092
 6078TIP3   OH239724   0.034   4.924  13.146 -0.9680 -0.4264  0.1229
 6078TIP3    H139725   0.003   4.987  13.210  0.7919 -0.0336  0.6574
 6078TIP3    H239726   0.005   4.839  13.180 -2.3892 -0.0104 -0.0174
 6079TIP3   OH239727   2.200   0.089  14.128  0.3560 -0.0185 -0.2312
 6079TIP3    H139728   2.238   0.006  14.099 -1.5019 -0.2957 -2.1589
 6079TIP3    H239729   2.173   0.133  14.047  0.8065  2.2557  0.7771
 6080TIP3   OH239730   1.885   4.180   4.647 -0.1329  0.6309  0.2969
 6080TIP3    H139731   1.873   4.097   4.602  0.5203  1.4360 -1.4762
 6080TIP3    H239732   1.821   4.239   4.607 -1.6109  0.6428  2.5656
 6081TIP3   OH239733   4.182   6.400   2.390 -0.2602 -0.3829 -1.0781
 6081TIP3    H139734   4.164   6.494   2.388 -2.3749 -0.6943  0.4305
 6081TIP3    H239735   4.243   6.388   2.463  1.5453 -0.0267 -2.4516
 6082TIP3   OH239736   0.186   2.462  11.688 -0.2531  0.0236 -0.1361
 6082TIP3    H139737   0.253   2.525  11.661  0.0212 -0.3987 -0.4562
 6082TIP3    H239738   0.137   2.444  11.607  0.9957 -1.7632 -0.5579
 6083TIP3   OH239739   3.243   2.279  12.895  1.3036 -0.0048 -0.4487
 6083TIP3    H139740   3.238   2.184  12.906 -2.8956 -0.3496 -3.1656
 6083TIP3    H239741   3.225   2.293  12.802  0.8261  3.5205  0.0562
 6084TIP3   OH239742   2.848   5.579   1.575  0.1133  0.0060  0.4537
 6084TIP3    H139743   2.905   5.604   1.648 -0.8814  2.2253  0.5655
 6084TIP3    H239744   2.762   5.567   1.614 -0.1630 -0.1098 -0.1676
 6085TIP3   OH239745   3.472   0.991  16.509  0.2361 -0.1257  0.7922
 6085TIP3    H139746   3.410   1.000  16.581 -1.1647  0.7298 -0.4467
 6085TIP3    H239747   3.418   0.966  16.434  1.4843  0.0620 -0.2147
 6086TIP3   OH239748   4.363   0.906   5.739  0.1210 -0.3292 -0.3569
 6086TIP3    H139749   4.409   0.830   5.703 -1.7449 -1.0178 -1.4347
 6086TIP3    H239750   4.387   0.908   5.831 -1.0354 -3.2534  0.1028
 6087TIP3   OH239751   1.210   1.048   5.199  0.0714  0.1920 -0.1886
 6087TIP3    H139752   1.141   1.084   5.254  0.4917  0.1642  0.3684
 6087TIP3    H239753   1.291   1.083   5.236  0.2944  1.1428 -1.5202
 6088TIP3   OH239754   1.199   3.392   5.364 -0.0942 -0.8303  0.1084
 6088TIP3    H139755   1.266   3.381   5.431  0.2391 -1.6307 -0.3522
 6088TIP3    H239756   1.155   3.307   5.360 -0.6468 -0.5384 -0.1191
 6089TIP3   OH239757   5.722   5.930  14.195  0.8137 -0.1278 -0.0564
 6089TIP3    H139758   5.703   5.892  14.109 -1.8537 -0.1666  0.4474
 6089TIP3    H239759   5.741   5.854  14.251  1.3507 -0.2002 -0.3323
 6090TIP3   OH239760   6.502   3.758  13.998  0.3733 -0.3038 -0.3749
 6090TIP3    H139761   6.512   3.702  14.075 -1.1131 -2.2673 -1.5175
 6090TIP3    H239762   6.505   3.697  13.924 -0.0843  1.3045 -1.7786
 6091TIP3   OH239763   5.471   1.537  12.413  0.2126  0.6206 -0.4160
 6091TIP3    H139764   5.468   1.553  12.319  0.5997 -0.9049 -0.7188
 6091TIP3    H239765   5.559   1.564  12.440 -0.3911  2.4857 -0.1719
 6092TIP3   OH239766   2.897   3.891  14.179 -0.2544  0.6597  0.3775
 6092TIP3    H139767   2.891   3.980  14.213 -1.4963  0.8351 -0.2540
 6092TIP3    H239768   2.989   3.867  14.191 -0.3407  1.2346  2.4769
 6093TIP3   OH239769   1.218   0.840   2.855 -0.6917 -0.3063 -0.8906
 6093TIP3    H139770   1.275   0.774   2.895 -1.6088 -0.7244 -0.2299
 6093TIP3    H239771   1.167   0.875   2.928  0.8022  2.2729 -0.9532
 6094TIP3   OH239772   4.948   2.120   2.775 -0.1820  0.1318  0.5164
 6094TIP3    H139773   4.921   2.201   2.817 -0.3809  0.0385  0.5729
 6094TIP3    H239774   5.004   2.077   2.839  0.5413  0.5768  0.1891
 6095TIP3   OH239775   2.709   6.642   6.099 -0.6822  0.0035 -0.2196
 6095TIP3    H139776   2.629   6.591   6.110 -0.6750 -0.1655 -0.9145
 6095TIP3    H239777   2.780   6.578   6.110 -0.5687  0.4111  1.9002
 6096TIP3   OH239778   2.939   5.796   3.527  0.8203  0.5742  0.8179
 6096TIP3    H139779   2.903   5.856   3.592  0.4398  1.0136  0.2083
 6096TIP3    H239780   2.863   5.761   3.481  1.1280  1.6949 -0.6391
 6097TIP3   OH239781   6.697   5.941  15.497 -0.4702  0.4508 -0.7340
 6097TIP3    H139782   6.768   5.877  15.501 -0.6299  0.3443  1.9584
 6097TIP3    H239783   6.733   6.013  15.445  0.4578 -0.9043 -2.0515
 6098TIP3   OH239784   3.085   5.345   3.049 -0.2017  0.8432 -0.2648
 6098TIP3    H139785   3.008   5.292   3.027  0.5929 -0.6602  0.4348
 6098TIP3    H239786   3.071   5.428   3.002 -1.2780 -0.1271 -1.7413
 6099TIP3   OH239787   5.281   3.283  12.542 -0.7155  0.7255  0.0581
 6099TIP3    H139788   5.319   3.364  12.508 -0.9787  1.8576  2.2697
 6099TIP3    H239789   5.279   3.295  12.637 -2.3315 -1.1865  0.3426
 6100TIP3   OH239790   4.625   0.226  12.948  0.3373 -0.3759  0.0497
 6100TIP3    H139791   4.685   0.282  12.996  1.8747 -1.5424 -0.4515
 6100TIP3    H239792   4.604   0.276  12.869 -0.0834  0.4122  0.6462
 6101TIP3   OH239793   2.557   4.475   4.714  0.4486 -0.0226  0.0523
 6101TIP3    H139794   2.617   4.404   4.691  0.2237 -0.1844 -0.0373
 6101TIP3    H239795   2.608   4.555   4.699  0.7995 -0.1731  0.4388
 6102TIP3   OH239796   5.784   0.908   2.285 -0.2632 -0.5622  0.0482
 6102TIP3    H139797   5.731   0.933   2.209  0.2654 -1.7031 -0.7323
 6102TIP3    H239798   5.840   0.837   2.252  0.1950 -0.8671  1.4284
 6103TIP3   OH239799   3.079   6.272   1.530 -0.5285  0.2995 -0.1930
 6103TIP3    H139800   3.150   6.239   1.584 -0.0312  3.4181  1.3287
 6103TIP3    H239801   3.000   6.231   1.566 -0.0941  1.5208  2.4326
 6104TIP3   OH239802   4.745   5.491  16.768 -0.6830 -0.0652 -0.5947
 6104TIP3    H139803   4.784   5.564  16.721 -0.5830  0.0089 -0.3949
 6104TIP3    H239804   4.797   5.482  16.847 -1.3161  0.2994 -0.1238
 6105TIP3   OH239805   6.091   6.409  13.725 -0.7160 -1.1934  0.1347
 6105TIP3    H139806   6.004   6.433  13.756 -1.2114 -2.1231 -0.4644
 6105TIP3    H239807   6.076   6.333  13.668  0.4116 -0.9573 -0.5168
 6106TIP3   OH239808   6.221   4.060  12.539  0.4206  0.0847 -0.6767
 6106TIP3    H139809   6.245   3.970  12.560 -0.1033 -0.2934 -1.6128
 6106TIP3    H239810   6.130   4.068  12.570  0.7528  0.5786  0.2032
 6107TIP3   OH239811   0.495   5.132   2.926  0.2621  0.5435 -0.6904
 6107TIP3    H139812   0.525   5.041   2.921 -0.5379  0.3055 -1.5677
 6107TIP3    H239813   0.411   5.131   2.880  0.0973  1.6678 -0.4247
 6108TIP3   OH239814   3.648   1.011  15.071  0.1764 -0.3034  0.7279
 6108TIP3    H139815   3.588   0.938  15.057  0.1179 -0.0861 -0.2721
 6108TIP3    H239816   3.724   0.990  15.017  0.1488  0.3695  0.4109
 6109TIP3   OH239817   6.757   4.611  15.808 -0.1001  0.4859 -0.0159
 6109TIP3    H139818   6.822   4.564  15.755 -1.0783 -0.8459 -0.0582
 6109TIP3    H239819   6.735   4.551  15.879  1.0247  2.1518  1.8743
 6110TIP3   OH239820   5.805   1.991   5.402 -0.0127  0.3669 -0.0961
 6110TIP3    H139821   5.855   1.910   5.386  2.1675  1.6147 -0.0697
 6110TIP3    H239822   5.791   1.992   5.497  0.0146  0.0495 -0.0876
 6111TIP3   OH239823   0.123   1.381  13.009 -0.1754 -1.2609  0.0493
 6111TIP3    H139824   0.124   1.286  13.017 -0.1035 -1.2046  0.6829
 6111TIP3    H239825   0.086   1.397  12.922 -0.1715 -1.8663 -0.0636
 6112TIP3   OH239826   2.041   6.793  13.132  0.1094  0.2572  0.1700
 6112TIP3    H139827   2.035   6.824  13.223  0.5145  3.7610 -0.8457
 6112TIP3    H239828   1.998   6.861  13.080  2.0182 -0.3708 -2.4633
 6113TIP3   OH239829   5.394   3.547   4.769  0.4895 -1.0877 -0.6402
 6113TIP3    H139830   5.331   3.495   4.719 -0.2312 -1.7587  0.8903
 6113TIP3    H239831   5.405   3.498   4.851  1.3720  0.1337 -0.0049
 6114TIP3   OH239832   2.387   5.253  14.652  0.1699 -0.0568 -0.6186
 6114TIP3    H139833   2.365   5.255  14.745 -2.4280  4.0508 -1.0702
 6114TIP3    H239834   2.437   5.173  14.641 -0.4432 -1.3661  4.0469
 6115TIP3   OH239835   1.020   6.655   1.587 -0.7218  0.1011 -0.4108
 6115TIP3    H139836   0.993   6.591   1.653 -0.1493 -0.9875 -1.2140
 6115TIP3    H239837   0.995   6.740   1.625 -0.1274 -0.4655  1.3332
 6116TIP3   OH239838   0.007   0.766  10.937  0.5627 -0.0337  0.0007
 6116TIP3    H139839  -0.028   0.850  10.907 -0.2164 -0.2398  0.3221
 6116TIP3    H239840   0.061   0.788  11.013 -0.1861  0.1090  0.5015
 6117TIP3   OH239841   4.393   2.116   2.752  0.0906  0.0192  0.1202
 6117TIP3    H139842   4.383   2.091   2.844  0.2987  0.5928  0.3075
 6117TIP3    H239843   4.488   2.116   2.737  0.1391  1.2731  0.3071
 6118TIP3   OH239844   6.182   4.906   3.604 -0.4298  0.6376 -0.0399
 6118TIP3    H139845   6.243   4.924   3.675 -0.6456  2.8759 -0.3324
 6118TIP3    H239846   6.140   4.991   3.587 -0.8313  0.0293 -2.4166
 6119TIP3   OH239847   2.688   4.920  13.618  0.2863  0.0255 -0.0057
 6119TIP3    H139848   2.709   4.987  13.553  0.4166 -0.5488 -0.5598
 6119TIP3    H239849   2.693   4.837  13.570  0.9616 -0.4548  0.8668
 6120TIP3   OH239850   3.627   0.887  15.733  0.1321 -0.0912 -0.6412
 6120TIP3    H139851   3.550   0.863  15.785  0.1643  1.2064  0.0669
 6120TIP3    H239852   3.593   0.946  15.666  0.3277 -0.5206 -1.1185
 6121TIP3   OH239853   0.889   1.496  13.524 -0.0388 -0.4791 -0.1783
 6121TIP3    H139854   0.976   1.525  13.551 -0.0536 -1.0298  0.4716
 6121TIP3    H239855   0.831   1.526  13.594 -0.2823 -0.6791 -0.2951
 6122TIP3   OH239856   3.183   5.974  13.986  0.1808 -0.6231  0.5008
 6122TIP3    H139857   3.183   5.904  14.051 -0.4723 -0.2924  0.8616
 6122TIP3    H239858   3.091   5.990  13.967  0.3520 -1.4867 -1.3628
 6123TIP3   OH239859   0.345   3.194  16.426  0.3459  0.6002 -0.0954
 6123TIP3    H139860   0.357   3.186  16.332  1.8265 -1.3211  0.1981
 6123TIP3    H239861   0.415   3.254  16.454  0.4938  0.4397 -0.1168
 6124TIP3   OH239862   4.949   4.241   2.755  0.6123  0.1041 -0.5866
 6124TIP3    H139863   4.926   4.318   2.807  1.7730  1.2118 -1.6408
 6124TIP3    H239864   4.989   4.277   2.676 -1.5932 -1.5079 -2.5286
 6125TIP3   OH239865   6.057   0.078  15.926 -0.1995 -1.3745 -0.3401
 6125TIP3    H139866   5.979   0.033  15.959 -0.4063 -1.2089 -0.5948
 6125TIP3    H239867   6.032   0.170  15.926 -0.5427 -1.4458 -1.8297
 6126TIP3   OH239868   4.070   0.423  15.072 -0.0922  0.5664 -0.0044
 6126TIP3    H139869   4.020   0.342  15.062  1.4406 -0.2610 -1.5314
 6126TIP3    H239870   4.151   0.407  15.024  0.2714  3.0129 -0.3311
 6127TIP3   OH239871   3.514   0.527   4.077  0.4615 -0.8697 -0.2273
 6127TIP3    H139872   3.490   0.466   4.147 -0.8351 -1.1265 -0.8637
 6127TIP3    H239873   3.592   0.488   4.037 -0.1471 -1.9674 -0.4084
 6128TIP3   OH239874   0.303   0.018  17.003 -0.0751 -0.0581 -0.2652
 6128TIP3    H139875   0.291   0.103  16.961 -0.6407 -0.2311 -0.4652
 6128TIP3    H239876   0.335   0.039  17.090 -1.7333  0.4572  0.2708
 6129TIP3   OH239877   6.552   3.075  14.299 -0.0531 -0.2894  0.3003
 6129TIP3    H139878   6.459   3.086  14.277  0.1466  1.2798  0.0718
 6129TIP3    H239879   6.569   3.146  14.362  1.3988  0.6220 -1.0496
 6130TIP3   OH239880   2.102   1.815  16.313  0.1822 -0.4107  0.0639
 6130TIP3    H139881   2.134   1.726  16.326 -1.1861 -0.8952  0.3651
 6130TIP3    H239882   2.021   1.819  16.364  0.2140  1.0064  0.0438
 6131TIP3   OH239883   0.489   4.280  14.179 -0.1906 -0.9692 -0.1079
 6131TIP3    H139884   0.511   4.201  14.129 -3.6484 -0.9433 -1.9624
 6131TIP3    H239885   0.446   4.247  14.258  0.7844 -0.9315  0.4526
 6132TIP3   OH239886   3.565   4.033  15.281 -0.8042  0.2029  0.2162
 6132TIP3    H139887   3.567   4.123  15.247  0.3510  0.2011  0.2271
 6132TIP3    H239888   3.657   4.012  15.297 -0.9674 -1.3420 -0.6988
 6133TIP3   OH239889   1.226   1.355   5.061  0.0492  0.2039 -0.2881
 6133TIP3    H139890   1.145   1.390   5.099  0.2539 -0.2721  0.5941
 6133TIP3    H239891   1.196   1.289   4.998 -0.2538 -0.0301  0.0944
 6134TIP3   OH239892   0.683   3.591  16.093  0.7901 -0.1786  0.1409
 6134TIP3    H139893   0.663   3.552  16.178  1.9869  0.2720  0.6380
 6134TIP3    H239894   0.597   3.612  16.057  0.1362 -2.2533  0.3060
 6135TIP3   OH239895   4.144   6.813  10.479 -0.8262 -0.4961 -0.3045
 6135TIP3    H139896   4.103   6.777  10.400  0.6811 -1.3001 -0.7494
 6135TIP3    H239897   4.150   6.738  10.539 -0.4650 -0.2778 -0.0657
 6136TIP3   OH239898   6.562   4.205   1.365  0.5579 -0.2926  0.0058
 6136TIP3    H139899   6.506   4.128   1.362  0.4202 -0.1702 -2.4159
 6136TIP3    H239900   6.622   4.189   1.437  1.2700 -3.2180 -1.1100
 6137TIP3   OH239901   2.187   1.035   4.276 -0.4544  0.4529 -0.0077
 6137TIP3    H139902   2.234   0.954   4.261  2.6537  1.7453  1.7962
 6137TIP3    H239903   2.154   1.028   4.365 -1.8398  0.4523 -0.5003
 6138TIP3   OH239904   5.286   4.266   0.273  0.3335  0.3536 -0.1196
 6138TIP3    H139905   5.240   4.307   0.200 -1.0814  1.3269  1.2676
 6138TIP3    H239906   5.279   4.329   0.345  1.7191 -0.5577  0.8621
 6139TIP3   OH239907   2.259   3.143   1.609 -0.1711 -0.3291  0.4032
 6139TIP3    H139908   2.312   3.156   1.531 -0.5842  2.6859  0.5117
 6139TIP3    H239909   2.317   3.094   1.669  2.0065  1.5550 -0.0186
 6140TIP3   OH239910   2.871   1.107   4.729  0.4674  0.0710 -0.2638
 6140TIP3    H139911   2.857   1.163   4.653  1.0672  0.7945  0.1369
 6140TIP3    H239912   2.786   1.068   4.747  0.4008 -0.3911 -1.5164
 6141TIP3   OH239913   1.883   5.445   5.115  0.7371 -0.1272 -0.7872
 6141TIP3    H139914   1.971   5.482   5.107  1.2880 -1.1417  0.2829
 6141TIP3    H239915   1.833   5.512   5.161  1.5088 -0.3468  0.4192
 6142TIP3   OH239916   2.196   1.349   2.909  0.2207 -0.5699  0.2391
 6142TIP3    H139917   2.283   1.316   2.934  1.4091  1.3508 -1.1184
 6142TIP3    H239918   2.147   1.270   2.886  1.7840 -1.6750  0.5037
 6143TIP3   OH239919   6.130   5.818  15.809  0.0460  0.0121  0.6106
 6143TIP3    H139920   6.097   5.764  15.881  0.5867  0.7318  1.4235
 6143TIP3    H239921   6.219   5.786  15.794 -0.2900 -0.5731 -0.1961
 6144TIP3   OH239922   0.185   3.822   0.012  0.0747  0.7536  0.4370
 6144TIP3    H139923   0.142   3.892  -0.036  0.6797  1.9721  1.6211
 6144TIP3    H239924   0.149   3.742  -0.025 -4.1601  1.6288  2.1416
 6145TIP3   OH239925   2.743   6.684   1.612 -0.6599 -0.6387  0.2198
 6145TIP3    H139926   2.677   6.754   1.618 -0.3588 -0.3269 -0.0147
 6145TIP3    H239927   2.827   6.729   1.622 -0.4210 -0.8451 -0.6917
 6146TIP3   OH239928   2.815   6.775  15.340 -0.2803  0.3617  0.6938
 6146TIP3    H139929   2.720   6.783  15.351 -0.5467 -1.4921 -0.0289
 6146TIP3    H239930   2.836   6.690  15.377  0.8737  0.0915 -0.5382
 6147TIP3   OH239931   5.012   0.392   5.856 -0.2313  0.6386 -0.4837
 6147TIP3    H139932   5.011   0.301   5.825 -0.8445  0.9273 -1.3530
 6147TIP3    H239933   4.972   0.388   5.943 -0.6569  0.1349 -0.6977
 6148TIP3   OH239934   6.780   1.434   2.294  0.0863 -0.2805 -0.1579
 6148TIP3    H139935   6.764   1.402   2.206  1.2084 -1.6994  0.1122
 6148TIP3    H239936   6.718   1.386   2.349 -2.1517  2.1744 -0.3564
 6149TIP3   OH239937   2.267   4.065   0.839 -0.8751  0.2912 -0.6830
 6149TIP3    H139938   2.265   4.107   0.925 -1.6836 -0.6860 -0.2019
 6149TIP3    H239939   2.287   3.973   0.857 -1.0201  0.0784 -1.5416
 6150TIP3   OH239940   2.298   3.320  13.791  0.4998  0.6325 -0.3134
 6150TIP3    H139941   2.234   3.331  13.861  0.0694 -0.2080 -0.5712
 6150TIP3    H239942   2.294   3.228  13.768  2.2382  0.4146  0.0761
 6151TIP3   OH239943   0.725   0.143  14.320 -0.4839 -0.0561  0.0997
 6151TIP3    H139944   0.774   0.164  14.241  0.8412 -1.9185  0.3701
 6151TIP3    H239945   0.655   0.085  14.290 -0.2283 -0.4313  0.2161
 6152TIP3   OH239946   3.581   3.844   5.107  0.1229  0.1395  0.0605
 6152TIP3    H139947   3.558   3.827   5.016 -0.6567  0.6253  0.1602
 6152TIP3    H239948   3.529   3.920   5.131 -1.1692 -1.1130  1.4740
 6153TIP3   OH239949   1.584   6.487   1.614 -0.9482  0.0998 -0.8933
 6153TIP3    H139950   1.581   6.434   1.693  1.1183  0.1205 -0.7348
 6153TIP3    H239951   1.528   6.442   1.552 -1.0064 -1.0343 -0.0448
 6154TIP3   OH239952   2.189   4.870   1.347 -0.1736 -0.0743  0.2659
 6154TIP3    H139953   2.199   4.786   1.301  1.3031  0.5331 -0.5955
 6154TIP3    H239954   2.278   4.894   1.372 -0.4141  1.8253 -0.5831
 6155TIP3   OH239955   5.582   3.952  14.902  0.1256 -0.0759  0.0394
 6155TIP3    H139956   5.595   4.017  14.971  1.9072 -0.0317 -0.2826
 6155TIP3    H239957   5.613   3.870  14.941  0.3415 -0.2118 -0.4064
 6156TIP3   OH239958   3.786   3.583   3.662  0.0752  0.5645 -0.3306
 6156TIP3    H139959   3.704   3.544   3.634  0.4984  0.0572 -0.8791
 6156TIP3    H239960   3.847   3.510   3.670  0.7925  1.0660 -1.0804
 6157TIP3   OH239961   1.528   3.984  14.952 -0.9068 -0.3849  0.2120
 6157TIP3    H139962   1.605   3.966  14.898 -0.1702  3.0480 -0.0957
 6157TIP3    H239963   1.490   3.898  14.969  3.3766 -2.3640  1.0075
 6158TIP3   OH239964   5.084   6.270   3.176 -0.2115  0.0375  0.1872
 6158TIP3    H139965   5.133   6.193   3.204 -1.8094 -0.9724  0.3150
 6158TIP3    H239966   5.048   6.247   3.090  0.0857  1.0174 -0.2216
 6159TIP3   OH239967   3.563   1.690   2.367 -0.1979  0.2331  0.6271
 6159TIP3    H139968   3.599   1.760   2.421 -1.5453  0.7311  0.9405
 6159TIP3    H239969   3.484   1.663   2.414  0.0794 -1.2323  0.2983
 6160TIP3   OH239970   4.161   3.825   2.804  0.7173  0.5234 -0.4862
 6160TIP3    H139971   4.136   3.897   2.746  0.7476  0.5061 -0.5203
 6160TIP3    H239972   4.222   3.772   2.752  0.1255  0.0626 -0.7299
 6161TIP3   OH239973   2.299   1.639   5.554 -0.0913 -0.3501  0.0054
 6161TIP3    H139974   2.298   1.630   5.459  0.1742 -1.4721  0.0974
 6161TIP3    H239975   2.351   1.719   5.569 -1.4603  0.7394 -0.8237
 6162TIP3   OH239976   1.476   5.497   2.226 -0.1140  0.4015 -0.2478
 6162TIP3    H139977   1.444   5.575   2.270  1.3969  0.7369  0.3053
 6162TIP3    H239978   1.433   5.424   2.271  0.9323  0.7679  1.4212
 6163TIP3   OH239979   0.922   2.888  14.702 -0.0513 -0.1177 -0.7399
 6163TIP3    H139980   0.965   2.956  14.753 -0.1760 -1.2853  1.0146
 6163TIP3    H239981   0.939   2.911  14.611  1.2145  1.3860 -0.1540
 6164TIP3   OH239982   6.181   6.508  11.281 -0.1138 -0.4525  0.3617
 6164TIP3    H139983   6.204   6.472  11.367 -1.6275 -0.6715  0.6963
 6164TIP3    H239984   6.167   6.601  11.297  0.4566 -0.3287  0.1675
 6165TIP3   OH239985   2.335   5.810   5.708  0.1530  0.1790 -0.1839
 6165TIP3    H139986   2.322   5.827   5.615  1.0413  3.0335  0.1145
 6165TIP3    H239987   2.252   5.772   5.737 -1.5791  2.7313 -1.4587
 6166TIP3   OH239988   5.193   0.848  15.689  0.0934 -0.4197 -0.1912
 6166TIP3    H139989   5.193   0.791  15.766  2.5403 -0.5265 -0.2065
 6166TIP3    H239990   5.236   0.797  15.621  0.5560  0.7074 -0.7741
 6167TIP3   OH239991   1.359   4.230   1.716  0.9345 -0.1966  0.0697
 6167TIP3    H139992   1.398   4.145   1.738  0.6362  0.1137  2.0426
 6167TIP3    H239993   1.432   4.291   1.718  0.6413  0.1926  2.6214
 6168TIP3   OH239994   6.470   0.400   0.038  0.4145 -0.1534  0.1209
 6168TIP3    H139995   6.427   0.348   0.106 -0.6607  0.3689 -0.1199
 6168TIP3    H239996   6.528   0.339  -0.007  1.2296 -0.4838  1.5586
 6169TIP3   OH239997   3.835   5.538   3.795  0.0241  0.5471 -0.3129
 6169TIP3    H139998   3.789   5.528   3.712 -1.7825 -1.9414  0.8729
 6169TIP3    H239999   3.796   5.616   3.835 -2.6091 -0.9252  0.2003
 6170TIP3   OH240000   4.653   1.215   4.437  0.0105 -0.1638  0.4503
 6170TIP3    H140001   4.587   1.223   4.506  0.2868  0.3498  0.6576
 6170TIP3    H240002   4.654   1.121   4.416 -0.4068 -0.2524  0.8145
 6171TIP3   OH240003   2.629   5.615   1.745 -0.2980 -0.1349  0.6672
 6171TIP3    H140004   2.577   5.613   1.826 -0.0797 -0.0432  0.8082
 6171TIP3    H240005   2.626   5.706   1.717 -0.3237 -0.1555  0.6024
 6172TIP3   OH240006   2.906   3.597  14.475  0.1257 -0.3688  0.1987
 6172TIP3    H140007   2.861   3.516  14.496 -0.1171 -0.1063  0.7280
 6172TIP3    H240008   2.846   3.645  14.418 -0.1258 -0.1683  0.6263
 6173TIP3   OH240009   4.586   6.129  16.170  0.0149  0.3158 -0.7121
 6173TIP3    H140010   4.519   6.125  16.101 -0.1562  0.3774 -0.5516
 6173TIP3    H240011   4.536   6.122  16.251  0.2915 -0.6293 -0.6179
 6174TIP3   OH240012   0.933   0.997   1.327  0.5613 -0.8195 -0.5996
 6174TIP3    H140013   0.852   1.030   1.287 -0.0152  0.1162  1.2306
 6174TIP3    H240014   0.944   0.910   1.289  0.1819  0.0637 -2.9053
 6175TIP3   OH240015   1.915   0.116   5.647  0.3405  1.0489 -0.0167
 6175TIP3    H140016   2.008   0.134   5.634  0.2525  0.5095 -1.4955
 6175TIP3    H240017   1.870   0.193   5.611  0.1654  0.5643 -0.8468
 6176TIP3   OH240018   4.503   0.095   3.932 -0.1654  0.1912 -0.0057
 6176TIP3    H140019   4.447   0.019   3.948 -0.7855  0.9670  1.7335
 6176TIP3    H240020   4.523   0.129   4.019  0.3383  1.8587 -0.7329
 6177TIP3   OH240021   4.066   3.097  15.732  0.2217  1.0519  0.6551
 6177TIP3    H140022   4.026   3.183  15.720 -2.6984 -0.0835  1.4280
 6177TIP3    H240023   4.035   3.067  15.817 -0.0770 -1.3609 -0.2066
 6178TIP3   OH240024   6.257   1.614  16.239  0.2483  0.0266  0.1151
 6178TIP3    H140025   6.246   1.519  16.232  0.7038  0.0400 -0.8184
 6178TIP3    H240026   6.167   1.648  16.245  0.0634 -0.4128 -0.1304
 6179TIP3   OH240027   6.100   6.661   1.901 -0.2833  0.4651  0.2931
 6179TIP3    H140028   6.135   6.747   1.925  1.2809 -0.3834  1.2027
 6179TIP3    H240029   6.072   6.622   1.984  0.0857 -0.3498  0.0474
 6180TIP3   OH240030   0.316   5.576   4.932 -0.0620 -0.8668  0.8203
 6180TIP3    H140031   0.282   5.519   4.863  1.2407 -0.8702  0.1411
 6180TIP3    H240032   0.325   5.519   5.009 -0.1019 -1.2319  0.5565
 6181TIP3   OH240033   2.350   0.327   4.110  0.1156  0.2934 -0.5539
 6181TIP3    H140034   2.338   0.235   4.087  0.5119 -0.1377  0.8841
 6181TIP3    H240035   2.362   0.327   4.205 -0.2843  1.8735 -0.4746
 6182TIP3   OH240036   5.622   5.659   2.319  0.4116  0.4415 -0.0916
 6182TIP3    H140037   5.683   5.638   2.390  0.4176 -0.7811 -0.4428
 6182TIP3    H240038   5.657   5.612   2.243 -0.3350  0.6667 -0.5781
 6183TIP3   OH240039   2.164   5.800  16.706  0.2152 -0.4576 -0.7129
 6183TIP3    H140040   2.225   5.874  16.709 -0.9126  0.4842  1.4166
 6183TIP3    H240041   2.193   5.748  16.632  2.5409  0.8554 -0.8191
 6184TIP3   OH240042   0.140   4.196   2.443  0.2485  0.0003  0.0454
 6184TIP3    H140043   0.170   4.210   2.353  0.4863  1.4472  0.3267
 6184TIP3    H240044   0.051   4.231   2.444  0.2948  0.1065  0.4046
 6185TIP3   OH240045   2.365   2.477  11.127 -0.3092 -0.5510 -0.0690
 6185TIP3    H140046   2.330   2.389  11.112  1.0807 -1.2959  0.7856
 6185TIP3    H240047   2.330   2.503  11.213 -0.8738 -0.1714 -0.4061
 6186TIP3   OH240048   5.082   3.947  16.128  0.1953 -0.1650  0.2792
 6186TIP3    H140049   5.154   3.901  16.173  1.5232  1.4516 -0.1116
 6186TIP3    H240050   5.028   3.982  16.199  0.9011  0.2753  0.6068
 6187TIP3   OH240051   2.575   5.583  11.549 -0.2689  0.0397 -0.9162
 6187TIP3    H140052   2.519   5.594  11.625  0.1692 -0.8451 -0.4504
 6187TIP3    H240053   2.516   5.593  11.474 -0.5953  1.5286 -0.5012
 6188TIP3   OH240054   1.045   2.822   1.007  0.2158  0.1222  0.0446
 6188TIP3    H140055   1.069   2.735   0.977  0.5173  0.1509  0.1985
 6188TIP3    H240056   1.090   2.882   0.947 -2.0138  0.2025 -1.6995
 6189TIP3   OH240057   0.292   3.024  12.410 -0.1471 -0.2124 -0.2218
 6189TIP3    H140058   0.343   3.002  12.488  0.3028 -0.2794 -0.5300
 6189TIP3    H240059   0.325   3.109  12.383 -0.0195 -0.3670 -0.5640
 6190TIP3   OH240060   1.851   2.557  12.354 -0.4275 -0.5195  0.3116
 6190TIP3    H140061   1.899   2.505  12.418 -0.0752 -0.8731 -0.2373
 6190TIP3    H240062   1.912   2.625  12.326 -0.5630 -0.3989  0.3031
 6191TIP3   OH240063   5.112   3.467  14.651  0.0222 -0.2048 -0.4583
 6191TIP3    H140064   5.150   3.513  14.726 -0.9736 -0.5167  0.2611
 6191TIP3    H240065   5.118   3.530  14.579 -0.5303  0.7555  0.2969
 6192TIP3   OH240066   3.383   5.366  11.685  0.9042  0.0466  0.3509
 6192TIP3    H140067   3.409   5.420  11.610 -0.4888  2.1646  1.3311
 6192TIP3    H240068   3.458   5.308  11.698  1.8531  0.6965 -1.6731
 6193TIP3   OH240069   2.215   1.835  14.050  0.0093 -0.6992 -0.1133
 6193TIP3    H140070   2.307   1.832  14.075  0.0242  0.6755  0.0792
 6193TIP3    H240071   2.211   1.902  13.981 -1.2075  1.2244  1.7161
 6194TIP3   OH240072   5.602   0.121   4.386  0.0760 -0.1981 -0.8528
 6194TIP3    H140073   5.684   0.092   4.346  0.3371 -0.4381 -0.1675
 6194TIP3    H240074   5.629   0.187   4.449  0.0148 -1.7310  0.8872
 6195TIP3   OH240075   0.766   0.833   5.178 -0.5028 -0.0776  0.8735
 6195TIP3    H140076   0.809   0.908   5.137  0.9564 -0.4280  1.6777
 6195TIP3    H240077   0.707   0.871   5.242  0.0403  0.3922  1.1010
 6196TIP3   OH240078   3.966   5.736  13.687  0.5669 -0.0485  0.0693
 6196TIP3    H140079   4.032   5.774  13.744 -2.1085  1.2598  2.4920
 6196TIP3    H240080   3.940   5.807  13.629  2.4896 -1.0819 -2.2615
 6197TIP3   OH240081   1.769   3.113  15.278  0.4799  0.5576 -1.1016
 6197TIP3    H140082   1.676   3.099  15.262 -0.0715  0.9525  1.3363
 6197TIP3    H240083   1.786   3.068  15.361  2.2570  1.2696 -1.0345
 6198TIP3   OH240084   1.643   4.964   3.879 -0.2806  0.0334 -0.3994
 6198TIP3    H140085   1.550   4.986   3.880 -0.3494  0.3273 -3.5284
 6198TIP3    H240086   1.688   5.048   3.885 -0.2709  0.0531 -0.7319
 6199TIP3   OH240087   2.229   0.742   0.942 -0.6475  0.2909  0.4584
 6199TIP3    H140088   2.248   0.692   0.863 -0.3928 -0.8246  1.2125
 6199TIP3    H240089   2.255   0.832   0.920  2.0081 -0.4722  0.1741
 6200TIP3   OH240090   2.230   3.204  12.711 -0.0564  0.3836 -0.0705
 6200TIP3    H140091   2.194   3.282  12.753 -3.1188 -1.5791  1.2370
 6200TIP3    H240092   2.172   3.188  12.636  0.4421 -0.7515 -0.2335
 6201TIP3   OH240093   4.430   1.856  16.906 -0.0263  0.0295 -0.1076
 6201TIP3    H140094   4.448   1.917  16.977  0.3110 -0.9205  0.6423
 6201TIP3    H240095   4.336   1.839  16.913 -0.0347  0.1042 -0.0336
 6202TIP3   OH240096   5.232   5.029  11.990  0.2168 -0.2008  0.9731
 6202TIP3    H140097   5.289   5.027  11.913 -0.8082 -0.7239  0.2196
 6202TIP3    H240098   5.262   4.956  12.044 -1.6698 -2.5027 -0.8697
 6203TIP3   OH240099   0.962   4.919  12.707  0.0519 -0.1897  0.4877
 6203TIP3    H140100   0.993   4.935  12.796 -0.0949  0.9681  0.3543
 6203TIP3    H240101   0.934   5.005  12.676  0.2053 -0.5530 -0.7223
 6204TIP3   OH240102   2.361   5.610  14.326  0.2280 -0.0322  0.1451
 6204TIP3    H140103   2.401   5.603  14.239 -0.1647 -1.7296  0.0797
 6204TIP3    H240104   2.274   5.645  14.309 -0.8509 -2.8336 -0.4835
 6205TIP3   OH240105   1.461   3.810  13.957  0.1904  0.2354  0.2145
 6205TIP3    H140106   1.420   3.880  13.906  0.8349  0.7426  0.3809
 6205TIP3    H240107   1.438   3.730  13.910 -0.7133  0.5410  0.1328
 6206TIP3   OH240108   3.785   2.058  11.617  0.3053  0.4691  0.2470
 6206TIP3    H140109   3.863   2.050  11.562 -0.2366 -2.1152 -0.2970
 6206TIP3    H240110   3.762   1.968  11.638 -3.2717  1.0247 -0.6770
 6207TIP3   OH240111   0.716   1.724   1.774 -0.9034 -0.1464  0.3423
 6207TIP3    H140112   0.756   1.690   1.854 -0.6928  0.3676  0.4652
 6207TIP3    H240113   0.696   1.815   1.795  0.8754  0.5742 -0.7839
 6208TIP3   OH240114   2.549   1.390   1.392 -0.8025  0.2073 -0.2420
 6208TIP3    H140115   2.522   1.382   1.483 -0.8847 -2.3577 -0.4260
 6208TIP3    H240116   2.468   1.388   1.341 -0.6938  0.6233 -0.4459
 6209TIP3   OH240117   1.855   0.035   0.284  0.3125  0.7493  0.1152
 6209TIP3    H140118   1.933   0.082   0.312  0.0538  0.3973  1.4648
 6209TIP3    H240119   1.786   0.066   0.342 -0.1494 -0.3080  0.1496
 6210TIP3   OH240120   4.148   2.006  16.433  0.5492 -0.6060  0.2343
 6210TIP3    H140121   4.152   2.066  16.359  1.4570  0.1409  0.8550
 6210TIP3    H240122   4.091   2.050  16.496 -1.0378 -1.7027 -0.3926
 6211TIP3   OH240123   3.011   3.710  15.075 -0.0747  0.4669  0.3400
 6211TIP3    H140124   3.043   3.778  15.015 -2.0064 -0.0193 -1.3498
 6211TIP3    H240125   3.044   3.628  15.039  0.2058  0.3006  0.9653
 6212TIP3   OH240126   5.413   3.189  15.494  0.5599 -0.5372  0.3720
 6212TIP3    H140127   5.405   3.110  15.548 -0.5324 -0.5666  0.2004
 6212TIP3    H240128   5.344   3.247  15.526  1.6824  0.5812  0.8487
 6213TIP3   OH240129   1.667   2.464   3.163 -0.2539  0.1331 -0.3566
 6213TIP3    H140130   1.615   2.406   3.218 -1.1340  0.4086 -0.8802
 6213TIP3    H240131   1.725   2.510   3.223 -1.6515  0.9216  0.4221
 6214TIP3   OH240132   0.255   1.480  11.541  0.1587  0.1461 -0.2417
 6214TIP3    H140133   0.309   1.538  11.595 -2.3866  2.0363  0.4806
 6214TIP3    H240134   0.235   1.406  11.597  0.1563  0.5462  0.2951
 6215TIP3   OH240135   2.435   3.614   5.522 -0.0353  0.2267 -1.0860
 6215TIP3    H140136   2.418   3.666   5.443  1.1252  0.6803 -1.0693
 6215TIP3    H240137   2.528   3.630   5.541 -0.3750  0.4151  0.5865
 6216TIP3   OH240138   4.552   4.487  12.871 -0.0905  0.3561 -0.0720
 6216TIP3    H140139   4.565   4.575  12.835 -0.1690  0.0863 -0.7564
 6216TIP3    H240140   4.608   4.486  12.949  1.8601  0.1949 -1.3917
 6217TIP3   OH240141   6.652   1.044  15.881 -0.1468  0.5019 -0.2473
 6217TIP3    H140142   6.585   1.113  15.875 -0.0706  0.5299 -0.8213
 6217TIP3    H240143   6.724   1.077  15.828 -0.1996 -0.1286 -0.7191
 6218TIP3   OH240144   1.197   1.226  13.817  0.1292  0.0969 -0.3530
 6218TIP3    H140145   1.134   1.295  13.837  0.2093  0.0502  0.0683
 6218TIP3    H240146   1.145   1.158  13.774 -0.5255 -0.7997  1.7262
 6219TIP3   OH240147   1.142   4.464   5.991 -0.3375 -0.2540 -0.5875
 6219TIP3    H140148   1.101   4.546   6.017 -0.6846 -0.1601 -1.3862
 6219TIP3    H240149   1.166   4.477   5.899  0.6138 -0.6562 -0.4070
 6220TIP3   OH240150   1.314   4.239   6.023 -0.2627  0.1200 -0.4782
 6220TIP3    H140151   1.228   4.279   6.029 -0.8835 -1.1538 -0.4831
 6220TIP3    H240152   1.373   4.311   6.002 -1.2904  1.0452 -0.2727
 6221TIP3   OH240153   0.864   3.188  14.422  0.0102  0.1493 -0.4050
 6221TIP3    H140154   0.899   3.244  14.492 -2.4664  0.9697  0.3168
 6221TIP3    H240155   0.890   3.100  14.447 -1.1241  0.3685  1.8563
 6222TIP3   OH240156   0.274   2.389   4.867 -0.5444  0.2256  0.0875
 6222TIP3    H140157   0.228   2.441   4.801 -0.0654  1.1276  0.4423
 6222TIP3    H240158   0.336   2.336   4.818 -0.8037  0.2371 -0.2526
 6223TIP3   OH240159   0.371   6.763   2.794 -1.1743  0.0511 -0.1855
 6223TIP3    H140160   0.378   6.859   2.795 -0.7094  0.0221  0.7646
 6223TIP3    H240161   0.446   6.733   2.846 -0.3699 -0.9131 -1.8227
 6224TIP3   OH240162   0.719   3.747   5.315  0.1229 -0.8128  0.4444
 6224TIP3    H140163   0.725   3.776   5.225  0.0304  2.6425  1.4357
 6224TIP3    H240164   0.809   3.720   5.337  0.2653 -1.1066 -0.4487
 6225TIP3   OH240165   5.370   6.725  15.679  0.8541 -0.0495  0.3421
 6225TIP3    H140166   5.455   6.683  15.666  1.0643  0.7731 -1.1193
 6225TIP3    H240167   5.374   6.759  15.768  2.6245  1.1906 -0.1614
 6226TIP3   OH240168   3.172   4.365   3.268  0.4538  0.6822  0.4941
 6226TIP3    H140169   3.080   4.342   3.256 -0.4155  1.7751  3.9012
 6226TIP3    H240170   3.220   4.288   3.239 -1.6720 -0.9586  1.0779
 6227TIP3   OH240171   0.195   1.291  12.037  0.1760  0.0521  0.4685
 6227TIP3    H140172   0.215   1.366  11.982 -1.2133  0.4192  0.4355
 6227TIP3    H240173   0.248   1.304  12.116  0.8500  0.4299 -0.0372
 6228TIP3   OH240174   2.407   5.848  15.384 -0.2064 -0.5992 -0.7284
 6228TIP3    H140175   2.386   5.830  15.292  1.4363  0.0689 -1.2551
 6228TIP3    H240176   2.487   5.899  15.381  0.8127 -1.9762  1.1427
 6229TIP3   OH240177   2.113   3.667  15.566  0.4928  0.4476  0.4201
 6229TIP3    H140178   2.189   3.725  15.563 -0.2134  1.4281  0.7604
 6229TIP3    H240179   2.140   3.589  15.517  0.8691  1.8025 -1.6669
 6230TIP3   OH240180   6.732   5.885  13.541 -0.1922 -0.6099  0.0750
 6230TIP3    H140181   6.663   5.896  13.606 -0.4480  1.0881 -0.4523
 6230TIP3    H240182   6.686   5.877  13.457  0.2280 -0.1582 -0.2014
 6231TIP3   OH240183   6.780   0.644  10.698  0.0691 -0.1780 -0.7095
 6231TIP3    H140184   6.720   0.710  10.661 -0.0533  1.2097  1.7484
 6231TIP3    H240185   6.813   0.685  10.778  0.8481 -2.7175  0.3454
 6232TIP3   OH240186   3.615   5.239   1.521  0.2378  0.1769 -0.2027
 6232TIP3    H140187   3.704   5.274   1.515 -0.5299  2.1612 -0.6503
 6232TIP3    H240188   3.566   5.286   1.454 -1.3622 -0.2527  0.6089
 6233TIP3   OH240189   1.534   0.107  16.503  0.1989  0.2724 -0.5015
 6233TIP3    H140190   1.542   0.085  16.595  0.3106 -1.2747 -0.8457
 6233TIP3    H240191   1.457   0.058  16.474  1.4943 -1.1934 -1.7166
 6234TIP3   OH240192   1.864   1.683   1.791  0.2346 -0.1241  0.2646
 6234TIP3    H140193   1.817   1.604   1.763  0.3407 -0.3499  0.7143
 6234TIP3    H240194   1.810   1.755   1.759  1.2857 -0.3174 -2.2213
 6235TIP3   OH240195   5.634   6.576  14.155  0.1862 -0.7462  0.0629
 6235TIP3    H140196   5.601   6.650  14.103  0.6307  0.6062  1.6077
 6235TIP3    H240197   5.716   6.551  14.111  0.9345  0.8563  0.4651
 6236TIP3   OH240198   0.913   3.322  14.157 -0.6800 -0.1427  0.0669
 6236TIP3    H140199   0.876   3.251  14.210 -0.1447  0.4646  1.2866
 6236TIP3    H240200   1.001   3.292  14.135 -1.0366 -0.5667 -0.8542
 6237TIP3   OH240201   6.725   1.165   2.351 -0.1131  0.1110 -0.0577
 6237TIP3    H140202   6.783   1.090   2.346 -0.0292  0.2290 -1.0647
 6237TIP3    H240203   6.639   1.128   2.372  0.2013 -0.1142  0.8811
 6238TIP3   OH240204   0.055   4.585  14.589 -0.2630 -0.3726  0.1679
 6238TIP3    H140205  -0.026   4.573  14.538 -0.3344  0.0306  0.1841
 6238TIP3    H240206   0.100   4.657  14.545 -0.5848  0.3490  1.0008
 6239TIP3   OH240207   2.734   0.034   1.293 -0.1420  0.4004 -0.7358
 6239TIP3    H140208   2.821  -0.007   1.286 -0.1916  0.4065 -1.4887
 6239TIP3    H240209   2.681  -0.013   1.228 -0.9518 -0.2127  0.3450
 6240TIP3   OH240210   4.467   0.805   2.180  0.2558 -0.4994  0.1292
 6240TIP3    H140211   4.409   0.729   2.176 -1.1218  0.4956  0.6741
 6240TIP3    H240212   4.526   0.793   2.105 -0.4079 -1.7103 -0.2428
 6241TIP3   OH240213   4.371   2.260  16.000  0.0544  0.0358  0.4316
 6241TIP3    H140214   4.385   2.353  16.017  0.8462  0.1554 -0.7305
 6241TIP3    H240215   4.451   2.232  15.954 -0.7563 -0.8891 -0.4665
 6242TIP3   OH240216   4.008   4.990  12.016  0.4540  0.0723  0.3189
 6242TIP3    H140217   4.025   4.898  12.035  1.3300  0.5249  1.9074
 6242TIP3    H240218   4.094   5.029  12.002  0.0137  0.3679 -2.0537
 6243TIP3   OH240219   6.405   6.353   5.927  0.7842 -0.5585 -0.5684
 6243TIP3    H140220   6.338   6.352   5.996  1.9982 -1.0919  0.6516
 6243TIP3    H240221   6.372   6.293   5.861 -0.5629  0.2010 -0.6157
 6244TIP3   OH240222   5.493   1.413  13.787  0.0896 -0.5257  0.1999
 6244TIP3    H140223   5.485   1.394  13.694  0.9740 -2.5493  0.4934
 6244TIP3    H240224   5.556   1.484  13.792 -1.7199  1.2699 -0.8300
 6245TIP3   OH240225   2.966   0.529   2.190  0.3304 -0.3282 -0.2506
 6245TIP3    H140226   2.934   0.447   2.152  0.2319  0.0575 -1.0211
 6245TIP3    H240227   2.968   0.590   2.116  0.8554  0.2312  0.2219
 6246TIP3   OH240228   5.339   2.453  16.776  0.3325 -0.1382 -0.8185
 6246TIP3    H140229   5.417   2.489  16.818 -0.1848  0.9065 -0.6993
 6246TIP3    H240230   5.266   2.499  16.819 -0.2994 -0.4755 -1.5091
 6247TIP3   OH240231   3.671   4.891   1.230  0.1373  0.3433 -0.4051
 6247TIP3    H140232   3.744   4.943   1.263  1.6645 -3.7135  3.5173
 6247TIP3    H240233   3.706   4.847   1.152  0.8056  0.6590 -0.2891
 6248TIP3   OH240234   1.025   2.531  15.037  0.5739 -0.3301  0.2537
 6248TIP3    H140235   1.008   2.438  15.026 -1.1934  0.0137 -0.1075
 6248TIP3    H240236   0.972   2.557  15.112 -0.8853  0.8582 -1.1316
 6249TIP3   OH240237   4.304   1.946   0.887  0.6809  0.3930 -0.3152
 6249TIP3    H140238   4.235   2.012   0.886 -0.7706 -1.0390  0.7992
 6249TIP3    H240239   4.313   1.919   0.796 -0.7767  0.0808 -0.3878
 6250TIP3   OH240240   4.443   6.423   2.016  0.5851  0.0713 -0.2620
 6250TIP3    H140241   4.475   6.351   2.070  1.0833  1.1331  0.9053
 6250TIP3    H240242   4.501   6.496   2.036 -0.7045  1.1798 -0.4116
 6251TIP3   OH240243   5.462   5.166   5.331 -0.0740  0.2064 -0.0046
 6251TIP3    H140244   5.470   5.259   5.354  0.1544  0.5464 -1.3652
 6251TIP3    H240245   5.426   5.125   5.410  1.0911  1.2044  1.0837
 6252TIP3   OH240246   3.434   5.732  14.530  0.6207  0.3093 -0.0669
 6252TIP3    H140247   3.392   5.681  14.599  0.4645  2.2855  1.3955
 6252TIP3    H240248   3.414   5.684  14.450 -0.4736 -1.2819  1.0853
 6253TIP3   OH240249   0.488   0.685  15.605 -0.7833 -0.6394 -0.4190
 6253TIP3    H140250   0.398   0.669  15.630 -1.4392  0.5568 -1.8523
 6253TIP3    H240251   0.511   0.768  15.646 -0.4723 -0.7384 -0.3836
 6254TIP3   OH240252   5.175   2.881   5.370 -0.5078 -0.5928  0.4036
 6254TIP3    H140253   5.083   2.903   5.385 -0.6823 -0.9418 -0.1019
 6254TIP3    H240254   5.202   2.939   5.298  0.0589  0.4442  1.4209
 6255TIP3   OH240255   0.931   0.311  17.075 -0.0657  0.3881 -0.5627
 6255TIP3    H140256   0.901   0.390  17.030 -2.2318  0.0418  0.1383
 6255TIP3    H240257   0.875   0.242  17.040  1.0889 -0.6568 -0.3969
 6256TIP3   OH240258   0.203   1.017  16.661 -0.5704 -0.0074 -0.4222
 6256TIP3    H140259   0.118   0.976  16.675 -1.5425  1.7706 -0.9236
 6256TIP3    H240260   0.185   1.110  16.652  1.4487  0.4432 -0.4379
 6257TIP3   OH240261   5.858   5.807   5.785 -0.0954 -0.5906  0.4727
 6257TIP3    H140262   5.805   5.887   5.783  0.9580  0.1438  0.7639
 6257TIP3    H240263   5.795   5.736   5.798 -0.9240  0.3278  1.7540
 6258TIP3   OH240264   3.349   6.807  12.522  0.4700 -0.0111 -0.2491
 6258TIP3    H140265   3.295   6.733  12.548  1.2269 -0.1579  0.9846
 6258TIP3    H240266   3.290   6.882  12.525  0.3434 -0.1379  1.2645
 6259TIP3   OH240267   0.464   0.466   2.471  0.0931 -0.3421 -0.3633
 6259TIP3    H140268   0.409   0.444   2.396 -0.3080 -0.5243 -0.0134
 6259TIP3    H240269   0.505   0.383   2.496  0.7988 -0.1491 -0.8313
 6260TIP3   OH240270   5.074   0.261  16.870 -0.6843  0.5170 -0.4902
 6260TIP3    H140271   5.078   0.190  16.806 -2.2200 -0.9947  0.9765
 6260TIP3    H240272   5.009   0.322  16.835  0.5813  1.2038 -1.7189
 6261TIP3   OH240273   2.498   1.714   4.862 -0.0195 -0.0540  0.0528
 6261TIP3    H140274   2.532   1.780   4.922 -0.5436 -0.4794  0.8429
 6261TIP3    H240275   2.553   1.720   4.784 -0.1163  1.3717  0.0793
 6262TIP3   OH240276   6.639   6.625   4.552  0.4320 -0.0460 -0.0011
 6262TIP3    H140277   6.551   6.662   4.554 -0.2572 -1.6270  0.1243
 6262TIP3    H240278   6.680   6.656   4.633 -0.3418 -0.0987  0.4192
 6263TIP3   OH240279   5.271   5.346   3.732 -0.4933  0.2116 -0.5745
 6263TIP3    H140280   5.221   5.279   3.685 -0.5685  0.0960 -0.3318
 6263TIP3    H240281   5.282   5.310   3.820 -1.3397  0.9142 -0.1590
 6264TIP3   OH240282   6.342   6.405  11.470 -0.5016 -0.4006  0.2072
 6264TIP3    H140283   6.396   6.327  11.480 -1.4195 -1.1308 -0.3225
 6264TIP3    H240284   6.404   6.475  11.449  0.4065 -0.8193  1.3914
 6265TIP3   OH240285   3.087   0.219   3.556 -0.2155 -0.3440 -0.0417
 6265TIP3    H140286   3.045   0.206   3.470  0.2163  0.5057 -0.3873
 6265TIP3    H240287   3.017   0.256   3.610 -0.2021  0.1105 -0.3285
 6266TIP3   OH240288   6.454   3.409   6.003 -0.3198 -0.7327  0.4497
 6266TIP3    H140289   6.531   3.358   5.977  0.1454  0.2001 -0.0516
 6266TIP3    H240290   6.381   3.348   5.992  0.0106 -0.7962 -1.7981
 6267TIP3   OH240291   3.058   2.537   4.500  0.2524  0.0236 -0.3348
 6267TIP3    H140292   3.131   2.532   4.561  0.4486 -1.2939 -0.6437
 6267TIP3    H240293   2.990   2.584   4.548  1.8705  2.9641 -0.7000
 6268TIP3   OH240294   3.329   3.402  15.140  0.3833  0.2440 -0.3712
 6268TIP3    H140295   3.416   3.394  15.101  0.4550  0.4668 -0.2606
 6268TIP3    H240296   3.310   3.496  15.135  0.0324  0.1648 -0.6522
 6269TIP3   OH240297   5.924   5.488   4.881 -0.3085  0.3268  0.1503
 6269TIP3    H140298   5.893   5.405   4.918 -2.1635  1.6162  1.7350
 6269TIP3    H240299   5.982   5.524   4.948  0.3389  0.3988 -0.4462
 6270TIP3   OH240300   4.699   4.128   6.240 -0.4034 -0.6731 -0.6212
 6270TIP3    H140301   4.789   4.101   6.226 -0.1160  0.6792 -1.5210
 6270TIP3    H240302   4.698   4.222   6.221 -1.6967 -0.3431  0.8175
 6271TIP3   OH240303   2.411   3.710   2.148 -0.1837  0.0607  0.4691
 6271TIP3    H140304   2.351   3.663   2.090 -0.1101  0.8464 -0.2619
 6271TIP3    H240305   2.497   3.671   2.131  0.1467  1.4298 -1.2601
 6272TIP3   OH240306   5.475   6.098  17.130 -0.0656 -0.0454  0.4178
 6272TIP3    H140307   5.566   6.123  17.115 -0.5675  0.8767 -1.3387
 6272TIP3    H240308   5.446   6.154  17.202  0.6178 -0.0698  0.7252
 6273TIP3   OH240309   3.460   5.364  15.289 -0.0779 -0.0358  0.0270
 6273TIP3    H140310   3.498   5.452  15.286  0.8139 -0.4414 -2.0606
 6273TIP3    H240311   3.503   5.323  15.365  0.2085  1.0116  0.4477
 6274TIP3   OH240312   4.074   5.055   2.363 -0.0825 -0.0183  0.4981
 6274TIP3    H140313   4.133   4.990   2.326 -1.1462 -0.1902 -0.9783
 6274TIP3    H240314   4.130   5.111   2.416  1.3628 -0.2971 -0.6848
 6275TIP3   OH240315   0.347   3.771  13.880 -0.4133  0.0574 -0.1469
 6275TIP3    H140316   0.274   3.808  13.829 -0.0846 -1.2647 -1.6410
 6275TIP3    H240317   0.423   3.824  13.855 -0.5002  0.2299 -0.0456
 6276TIP3   OH240318   6.038   5.451   0.368 -0.6056 -0.2537  0.1052
 6276TIP3    H140319   6.025   5.386   0.436  1.7482 -0.9125  0.0367
 6276TIP3    H240320   6.112   5.418   0.317  0.7162  2.4306  0.0839
 6277TIP3   OH240321   1.105   1.263   1.672 -0.0146  0.0797  0.1226
 6277TIP3    H140322   1.192   1.230   1.696  0.1574 -0.0266 -0.6329
 6277TIP3    H240323   1.068   1.196   1.616 -0.0972  0.6732 -0.5440
 6278TIP3   OH240324   5.951   0.782  12.926  0.0025  0.0295  0.1226
 6278TIP3    H140325   5.872   0.800  12.875  0.1430 -1.0675 -0.5044
 6278TIP3    H240326   5.993   0.868  12.936 -0.7375  0.4655 -0.4236
 6279TIP3   OH240327   1.354   2.045  15.920 -0.4186  0.2144  0.3561
 6279TIP3    H140328   1.276   1.993  15.938 -0.7294 -0.0909 -1.6733
 6279TIP3    H240329   1.427   1.985  15.935 -0.5130  0.5887  2.5649
 6280TIP3   OH240330   1.280   4.456   0.809 -0.7916  0.3486  0.5284
 6280TIP3    H140331   1.207   4.467   0.748 -0.8066 -0.8194  0.3155
 6280TIP3    H240332   1.248   4.395   0.875  0.1105 -0.5015  0.2037
 6281TIP3   OH240333   0.894   5.252  11.210  0.0220 -0.2892 -0.0575
 6281TIP3    H140334   0.829   5.301  11.160  0.0378  0.4114  0.5888
 6281TIP3    H240335   0.885   5.161  11.179  0.1438  0.1399 -1.4214
 6282TIP3   OH240336   1.410   5.365   0.909  0.2549 -0.2084 -0.0314
 6282TIP3    H140337   1.353   5.317   0.969  0.9730 -1.3057 -0.2003
 6282TIP3    H240338   1.414   5.454   0.946  0.6007 -0.8273  1.5142
 6283TIP3   OH240339   5.498   3.557   0.964 -0.1535  0.4891  0.3310
 6283TIP3    H140340   5.421   3.579   0.912  0.2048  1.2443  0.1082
 6283TIP3    H240341   5.572   3.582   0.908  0.2364  1.0823  1.1039
 6284TIP3   OH240342   1.015   0.773   2.669 -0.3653  0.8020  0.1087
 6284TIP3    H140343   0.948   0.716   2.707 -0.7229  1.1389 -0.0094
 6284TIP3    H240344   1.079   0.785   2.739  0.0501 -0.2647 -0.0691
 6285TIP3   OH240345   6.081   5.422  11.582 -0.6386 -0.4085 -0.1329
 6285TIP3    H140346   6.081   5.516  11.566 -0.1672 -0.4637 -0.4696
 6285TIP3    H240347   6.170   5.403  11.612 -0.9560 -0.6219  0.6985
 6286TIP3   OH240348   0.853   1.808  14.825  0.2358  0.2930 -0.2985
 6286TIP3    H140349   0.910   1.757  14.882 -1.5861 -1.0337  0.4228
 6286TIP3    H240350   0.829   1.748  14.755 -0.8134  0.5813 -0.2073
 6287TIP3   OH240351   1.473   6.461   0.521 -0.5163 -0.1013  0.1142
 6287TIP3    H140352   1.493   6.555   0.528 -0.6345  0.0527 -1.2714
 6287TIP3    H240353   1.410   6.445   0.591  0.7799  0.4690  1.4599
 6288TIP3   OH240354   5.933   6.676  10.622 -0.7272 -0.3573  0.2740
 6288TIP3    H140355   5.860   6.636  10.669 -1.1626 -0.4975 -0.5004
 6288TIP3    H240356   5.928   6.769  10.645  0.0611 -0.6597  1.7785
 6289TIP3   OH240357   2.166   2.188  15.472  0.1827 -0.1542 -0.0554
 6289TIP3    H140358   2.121   2.151  15.547  1.4911 -1.0684  0.3248
 6289TIP3    H240359   2.156   2.283  15.481  0.8052 -0.2208  1.6191
 6290TIP3   OH240360   1.349   5.632  17.051 -0.8669 -0.3106 -0.0340
 6290TIP3    H140361   1.393   5.547  17.042 -1.0568 -0.5029  0.7772
 6290TIP3    H240362   1.419   5.696  17.042 -0.8287 -0.5071 -1.4355
 6291TIP3   OH240363   6.185   6.235   4.834 -0.1072 -0.5508  0.5897
 6291TIP3    H140364   6.264   6.182   4.844  1.9355  1.7732 -1.6119
 6291TIP3    H240365   6.204   6.316   4.881 -0.0965  0.9646 -1.8381
 6292TIP3   OH240366   4.038   2.777  13.401 -0.5040 -0.4172 -0.0756
 6292TIP3    H140367   4.003   2.866  13.408  0.3545 -0.0467 -0.2560
 6292TIP3    H240368   4.026   2.754  13.309 -1.5477 -0.8522  0.1609
 6293TIP3   OH240369   1.601   3.440   3.303  0.8099 -0.0890  0.6292
 6293TIP3    H140370   1.676   3.476   3.255 -0.0893 -0.4553 -1.1577
 6293TIP3    H240371   1.528   3.447   3.241 -0.6419  0.2694  2.3214
 6294TIP3   OH240372   3.451   0.599  15.476 -0.0235  0.0962  0.3558
 6294TIP3    H140373   3.398   0.678  15.491  1.6351  1.1055  1.1169
 6294TIP3    H240374   3.491   0.580  15.561 -0.8096 -1.9240  0.3251
 6295TIP3   OH240375   5.120   1.464   3.308 -0.1217  0.2653 -0.0766
 6295TIP3    H140376   5.057   1.401   3.273 -0.1177  0.6245 -0.7462
 6295TIP3    H240377   5.078   1.501   3.385 -1.5913  1.9150 -1.5698
 6296TIP3   OH240378   2.593   6.834  16.870 -0.3022  0.3571  0.3592
 6296TIP3    H140379   2.638   6.750  16.867 -2.3985 -0.9325  1.6819
 6296TIP3    H240380   2.552   6.842  16.784  1.5686  1.0822 -0.5084
 6297TIP3   OH240381   0.057   5.245   4.880 -0.2287 -0.0176 -0.4788
 6297TIP3    H140382  -0.022   5.215   4.926 -2.4053  3.9982 -1.1730
 6297TIP3    H240383   0.030   5.250   4.788  0.9426  1.0589 -0.7825
 6298TIP3   OH240384   4.668   6.488   1.522  0.1816 -0.3605  0.5352
 6298TIP3    H140385   4.720   6.512   1.446  2.4366  0.4487  2.2016
 6298TIP3    H240386   4.626   6.406   1.497  0.2824  0.2333 -1.7928
 6299TIP3   OH240387   3.854   1.196  11.402 -0.2301 -0.5448  0.5478
 6299TIP3    H140388   3.806   1.112  11.402 -0.2511 -0.5915 -1.4427
 6299TIP3    H240389   3.842   1.230  11.313  1.6764  0.4832  0.6302
 6300TIP3   OH240390   2.794   5.686  14.755 -0.5881 -0.0176 -1.0455
 6300TIP3    H140391   2.726   5.622  14.738 -0.0930  0.0844 -3.8357
 6300TIP3    H240392   2.875   5.644  14.725  0.2939  0.6247  0.3178
 6301TIP3   OH240393   4.240   0.549  13.462  0.4847  0.4973 -0.3469
 6301TIP3    H140394   4.226   0.478  13.525  1.2277  0.8336  0.2139
 6301TIP3    H240395   4.311   0.517  13.406  1.3407  1.0785  0.3738
 6302TIP3   OH240396   4.448   2.565  12.189 -0.5142  0.3934  0.7858
 6302TIP3    H140397   4.486   2.651  12.170  1.2462 -0.5165 -0.0173
 6302TIP3    H240398   4.408   2.537  12.107  0.1792 -0.1532  0.6244
 6303TIP3   OH240399   4.993   2.128   0.917  0.2207  0.2857 -0.7913
 6303TIP3    H140400   5.024   2.204   0.966 -0.7074  1.3364 -1.7384
 6303TIP3    H240401   5.059   2.115   0.849  0.7494 -0.2308 -0.1910
 6304TIP3   OH240402   1.652   6.038   1.861  0.4845  0.3467  0.2010
 6304TIP3    H140403   1.668   5.958   1.912  1.3341  0.6431  0.4171
 6304TIP3    H240404   1.557   6.048   1.861  0.4397  0.0099  1.2229
 6305TIP3   OH240405   2.425   0.798   2.416  0.1624 -0.0355 -0.1442
 6305TIP3    H140406   2.409   0.703   2.410 -0.4364  0.0064  0.5778
 6305TIP3    H240407   2.515   0.809   2.387  0.2127 -0.8239 -0.3138
 6306TIP3   OH240408   5.869   0.535  10.864  0.5482 -0.2382  0.1262
 6306TIP3    H140409   5.880   0.458  10.808  1.8967 -0.4448  0.6575
 6306TIP3    H240410   5.774   0.542  10.877  0.0872  0.2285 -2.7347
 6307TIP3   OH240411   2.562   0.244   2.119 -0.3727 -0.0974  0.4374
 6307TIP3    H140412   2.560   0.326   2.069  2.0145 -0.3526 -0.2321
 6307TIP3    H240413   2.613   0.266   2.198  1.0805 -1.0873 -0.1789
 6308TIP3   OH240414   1.102   6.589  11.718 -0.3190  0.7291  0.2571
 6308TIP3    H140415   1.197   6.593  11.706 -0.2749  0.7796  0.6149
 6308TIP3    H240416   1.066   6.618  11.634 -0.0154  1.8936  0.5192
 6309TIP3   OH240417   4.385   2.276   4.931  0.2087  0.4843  0.0847
 6309TIP3    H140418   4.455   2.328   4.970  0.3368 -0.7216  1.5712
 6309TIP3    H240419   4.331   2.340   4.885  1.5932  1.6034 -0.0609
 6310TIP3   OH240420   6.083   6.222  13.513 -0.3998 -0.2013 -0.7080
 6310TIP3    H140421   6.032   6.160  13.461 -0.6829  1.0017 -1.9231
 6310TIP3    H240422   6.101   6.294  13.453 -0.3826  1.0582  0.7681
 6311TIP3   OH240423   4.508   3.140   2.272 -0.3393 -0.1239 -0.0645
 6311TIP3    H140424   4.447   3.067   2.284 -0.5323 -0.1342 -1.0147
 6311TIP3    H240425   4.572   3.108   2.208 -0.9124  0.8060 -1.1434
 6312TIP3   OH240426   5.377   6.197  13.025  0.0447 -0.5403 -0.5087
 6312TIP3    H140427   5.292   6.158  13.002 -0.2569 -0.2378  0.0734
 6312TIP3    H240428   5.406   6.148  13.102 -0.1602  0.1252  0.0004
 6313TIP3   OH240429   2.317   3.043  13.740  0.6286  0.2193 -0.3081
 6313TIP3    H140430   2.297   3.019  13.649  2.1100 -0.3380 -0.5059
 6313TIP3    H240431   2.315   2.960  13.787  0.1617  0.4709  0.1304
 6314TIP3   OH240432   6.387   1.753  12.631  0.2680 -0.1536  0.4778
 6314TIP3    H140433   6.446   1.778  12.560 -0.1054 -1.2874 -0.2528
 6314TIP3    H240434   6.321   1.697  12.590 -0.5913  0.0562  1.5173
 6315TIP3   OH240435   6.299   4.872  16.985 -0.5615  0.5199  0.5202
 6315TIP3    H140436   6.206   4.864  17.005 -0.7229 -0.1242 -0.4057
 6315TIP3    H240437   6.303   4.873  16.889  0.4201 -0.1117  0.5384
 6316TIP3   OH240438   3.820   2.991  13.893 -0.4583  0.4700  0.1841
 6316TIP3    H140439   3.746   3.000  13.834 -0.6488 -0.1500  0.3186
 6316TIP3    H240440   3.815   2.901  13.924  0.7232  0.2292 -0.2921
 6317TIP3   OH240441   2.880   0.697  16.391  0.0837  0.3345 -0.2068
 6317TIP3    H140442   2.873   0.706  16.296  0.1194 -0.9423 -0.3506
 6317TIP3    H240443   2.865   0.785  16.425 -1.2832  0.5551 -1.3250
 6318TIP3   OH240444   0.463   6.141   1.157  0.0907 -0.7693  0.5518
 6318TIP3    H140445   0.487   6.225   1.196  1.1240 -0.5795 -0.4378
 6318TIP3    H240446   0.424   6.165   1.073 -0.8454 -1.2404  0.8318
 6319TIP3   OH240447   4.397   2.074   4.282 -0.2083 -0.3422  0.0330
 6319TIP3    H140448   4.396   2.168   4.263  0.2620 -0.0956  1.1191
 6319TIP3    H240449   4.436   2.034   4.205  0.2817  0.4421 -0.1424
 6320TIP3   OH240450   2.968   5.845   4.565 -0.2695 -0.3527 -0.2201
 6320TIP3    H140451   3.044   5.822   4.512  0.6146  2.4979 -0.3286
 6320TIP3    H240452   2.898   5.858   4.501  0.0736  0.4124 -0.4418
 6321TIP3   OH240453   3.030   1.999  14.241 -0.0854  0.6989 -0.8858
 6321TIP3    H140454   3.041   2.044  14.158 -0.5872  0.6879 -0.9616
 6321TIP3    H240455   3.050   1.907  14.222  1.8054  1.0041 -0.5371
 6322TIP3   OH240456   0.803   3.085   3.488 -0.0144 -0.5283 -0.4934
 6322TIP3    H140457   0.859   3.132   3.550 -0.3972 -0.4823 -0.1803
 6322TIP3    H240458   0.805   2.994   3.518 -1.4397 -0.2565  0.5391
 6323TIP3   OH240459   6.516   6.426  14.739  0.4754  0.3951  0.1683
 6323TIP3    H140460   6.602   6.441  14.778 -0.1001  1.9775  0.9266
 6323TIP3    H240461   6.462   6.392  14.811  1.0594 -3.2562 -0.9046
 6324TIP3   OH240462   4.898   5.982  13.438  0.0157 -0.5557 -0.5366
 6324TIP3    H140463   4.899   5.974  13.343  0.0857  0.4162 -0.6282
 6324TIP3    H240464   4.839   5.912  13.467  1.1160 -1.7943 -1.1702
 6325TIP3   OH240465   4.400   5.856   6.500 -0.5575  0.3532  0.1810
 6325TIP3    H140466   4.484   5.871   6.455 -0.6340 -0.5361 -0.2827
 6325TIP3    H240467   4.418   5.784   6.560 -1.0419  0.0126 -0.0782
 6326TIP3   OH240468   0.495   5.507  13.001 -0.1684  0.6906  0.8905
 6326TIP3    H140469   0.427   5.443  13.023  0.1905  0.1988  0.5785
 6326TIP3    H240470   0.577   5.463  13.024  0.1024  0.8782  0.2864
 6327TIP3   OH240471   5.772   5.039   0.639  0.2564  0.0887  0.4278
 6327TIP3    H140472   5.772   4.966   0.576 -0.5992  0.5133 -0.0864
 6327TIP3    H240473   5.864   5.050   0.662  0.5596 -0.2807 -0.5199
 6328TIP3   OH240474   0.077   6.423   0.508  0.4273  0.1333 -0.0202
 6328TIP3    H140475   0.166   6.419   0.474 -0.2666 -0.6210 -1.8372
 6328TIP3    H240476   0.062   6.336   0.547  0.1412 -0.1056 -0.6526
 6329TIP3   OH240477   0.752   4.823  15.915 -0.4466  0.1710  0.0484
 6329TIP3    H140478   0.697   4.748  15.893 -0.4520  0.2257 -0.1262
 6329TIP3    H240479   0.783   4.805  16.004  0.5531 -0.6291 -0.4492
 6330TIP3   OH240480   4.879   1.943  13.391  0.4969  0.7662  0.6792
 6330TIP3    H140481   4.835   2.006  13.335  0.8383  1.9151  1.6719
 6330TIP3    H240482   4.964   1.928  13.348 -0.4507 -0.7839 -0.7583
 6331TIP3   OH240483   3.238   6.008   1.050 -0.6090 -0.0330 -0.5739
 6331TIP3    H140484   3.215   6.052   1.131 -0.1319 -2.8321  1.2108
 6331TIP3    H240485   3.178   6.044   0.985 -1.0197  2.2735  0.9725
 6332TIP3   OH240486   3.575   4.406   1.746 -0.1337  0.1843  0.0720
 6332TIP3    H140487   3.564   4.311   1.739  0.1514  0.2107 -0.8442
 6332TIP3    H240488   3.497   4.442   1.704  1.3996  0.3451 -2.9210
 6333TIP3   OH240489   6.441   4.332  16.373  0.2888 -0.3162  0.0904
 6333TIP3    H140490   6.475   4.253  16.415  1.6672  0.0814 -0.2245
 6333TIP3    H240491   6.458   4.402  16.437 -0.5628 -0.2007  0.2030
 6334TIP3   OH240492   2.229   1.971  15.279  0.2077  0.3105  0.2121
 6334TIP3    H140493   2.264   1.939  15.362  2.4075 -0.3739 -0.9058
 6334TIP3    H240494   2.152   1.917  15.264 -1.7788  2.1225  2.9493
 6335TIP3   OH240495   3.217   1.329   3.153  0.8009 -0.6033  0.0133
 6335TIP3    H140496   3.286   1.395   3.145  0.3735  0.0250  1.3431
 6335TIP3    H240497   3.247   1.271   3.223 -0.1484 -0.1628  0.7880
 6336TIP3   OH240498   1.261   1.827  16.230  0.0180  0.1507  0.3058
 6336TIP3    H140499   1.206   1.752  16.252  0.9152 -0.7652 -0.4338
 6336TIP3    H240500   1.294   1.858  16.314 -1.2668  0.4498  0.7167
 6337TIP3   OH240501   4.237   6.241  16.326  0.2081 -0.1722  0.2215
 6337TIP3    H140502   4.186   6.218  16.248 -0.1088 -1.7144  0.8573
 6337TIP3    H240503   4.288   6.317  16.298  0.5313 -1.0136 -1.6890
 6338TIP3   OH240504   3.203   0.039   0.386  0.1519  0.2988 -0.1567
 6338TIP3    H140505   3.156   0.111   0.429  0.0133  0.1310 -0.0256
 6338TIP3    H240506   3.259   0.082   0.322 -0.1214  0.5065 -0.2573
 6339TIP3   OH240507   5.943   6.248   3.046 -0.4040  0.1527  0.3176
 6339TIP3    H140508   5.926   6.154   3.043  3.0139 -0.6173 -1.2604
 6339TIP3    H240509   5.907   6.282   2.963 -1.2655  0.1705  0.6948
 6340TIP3   OH240510   6.707   3.992   0.543 -0.4319  0.0432  0.2716
 6340TIP3    H140511   6.777   3.956   0.488 -1.6029 -1.8451 -0.0812
 6340TIP3    H240512   6.649   4.036   0.481 -1.5058 -1.6788  0.0096
 6341TIP3   OH240513   3.741   1.342  11.964  0.5141  0.3682  0.1937
 6341TIP3    H140514   3.793   1.267  11.993 -0.1173 -0.8281 -1.5862
 6341TIP3    H240515   3.749   1.342  11.869 -0.6280  1.7318  0.0576
 6342TIP3   OH240516   0.640   5.346   5.446 -0.6106  0.2778  0.3474
 6342TIP3    H140517   0.612   5.422   5.498 -1.1933 -1.0569  2.0470
 6342TIP3    H240518   0.585   5.349   5.368 -1.1028  1.2267  0.7129
 6343TIP3   OH240519   3.792   0.618  15.933 -0.2347 -0.9249 -0.1669
 6343TIP3    H140520   3.720   0.669  15.969 -1.5972 -3.8061  1.5231
 6343TIP3    H240521   3.849   0.601  16.008  1.4192 -0.0926 -1.1625
 6344TIP3   OH240522   6.496   0.042  13.070 -0.1806 -0.2131 -0.1789
 6344TIP3    H140523   6.567   0.002  13.019 -0.2055  0.3972 -0.7119
 6344TIP3    H240524   6.424   0.050  13.007 -0.6555 -0.6307  0.3019
 6345TIP3   OH240525   2.352   0.792  16.604  0.1363 -0.1518 -0.1019
 6345TIP3    H140526   2.313   0.851  16.669 -0.1734  0.3497 -0.7331
 6345TIP3    H240527   2.299   0.804  16.526 -0.0077 -1.3789 -0.2046
 6346TIP3   OH240528   5.219   6.509  14.872  0.2103 -0.3519 -0.3017
 6346TIP3    H140529   5.224   6.549  14.785  1.0987 -0.6739 -0.4097
 6346TIP3    H240530   5.283   6.438  14.869 -0.0588 -0.6369  0.4836
 6347TIP3   OH240531   2.496   6.406  15.902  0.8682 -0.4329  0.2690
 6347TIP3    H140532   2.547   6.326  15.893 -0.5593 -1.2171 -1.3774
 6347TIP3    H240533   2.427   6.384  15.965  2.4333  0.6211  2.4867
 6348TIP3   OH240534   0.240   4.965   0.246  0.1984  0.3283 -0.0001
 6348TIP3    H140535   0.185   4.887   0.250  1.2175 -0.3611  1.1531
 6348TIP3    H240536   0.329   4.931   0.245  0.7411  1.4920  2.5590
 6349TIP3   OH240537   6.596   0.560  16.975 -0.2983  0.4654 -0.3764
 6349TIP3    H140538   6.603   0.531  16.884  1.7438  3.2542 -1.2127
 6349TIP3    H240539   6.516   0.518  17.007  0.0645 -2.3167 -2.7368
 6350TIP3   OH240540   2.699   4.239   2.427 -0.6258  0.1889 -0.1762
 6350TIP3    H140541   2.664   4.302   2.363  0.2526  1.1079  0.2102
 6350TIP3    H240542   2.690   4.284   2.511  0.3559 -0.0467  0.0630
 6351TIP3   OH240543   3.701   4.315   5.869  0.3940 -0.1267 -0.1806
 6351TIP3    H140544   3.787   4.274   5.881  0.2046 -0.3853  0.2681
 6351TIP3    H240545   3.696   4.380   5.939  0.8487  0.9341 -1.1005
 6352TIP3   OH240546   0.246   1.785   3.198 -0.2116 -0.1606 -0.3116
 6352TIP3    H140547   0.329   1.738   3.191  0.4072  1.0761 -1.8713
 6352TIP3    H240548   0.179   1.716   3.202  0.8144 -1.1672 -0.1395
 6353TIP3   OH240549   3.691   4.275  11.035 -0.1579 -0.7439  0.5413
 6353TIP3    H140550   3.617   4.221  11.007 -1.3036  1.5330 -1.2656
 6353TIP3    H240551   3.660   4.365  11.022  2.5887  0.3165  0.6992
 6354TIP3   OH240552   5.451   0.552  14.068  0.4761 -0.1240 -0.2275
 6354TIP3    H140553   5.476   0.464  14.096 -0.3280 -0.4086 -0.3870
 6354TIP3    H240554   5.368   0.540  14.022  0.9369  0.5588 -1.2796
 6355TIP3   OH240555   4.819   3.214   2.323  0.4130  0.1533  0.0666
 6355TIP3    H140556   4.891   3.151   2.316  0.7300  0.6086 -0.9289
 6355TIP3    H240557   4.741   3.164   2.300  0.6466  0.0842 -0.5936
 6356TIP3   OH240558   0.899   4.045  12.188 -0.3327  0.2879  0.0764
 6356TIP3    H140559   0.831   4.093  12.141  0.1042  0.6116 -0.2261
 6356TIP3    H240560   0.978   4.097  12.176 -0.0559 -0.0181  0.5380
 6357TIP3   OH240561   0.471   6.832  13.463  0.5327  0.9099  0.7567
 6357TIP3    H140562   0.416   6.874  13.529  1.0770  0.2553  1.6549
 6357TIP3    H240563   0.555   6.877  13.470  0.8399  0.2925  1.0922
 6358TIP3   OH240564   6.386   5.478  12.128 -0.0306  0.0540  0.7888
 6358TIP3    H140565   6.331   5.416  12.081  0.0401 -0.1707  1.0013
 6358TIP3    H240566   6.468   5.430  12.144  1.1479  1.1037 -1.5481
 6359TIP3   OH240567   6.655   4.627  10.836  0.1098 -0.0175  0.5122
 6359TIP3    H140568   6.694   4.708  10.869 -0.6133 -0.3818  2.3723
 6359TIP3    H240569   6.723   4.561  10.846 -0.1240 -0.1382  1.4038
 6360TIP3   OH240570   6.314   6.709   0.571 -0.0244 -0.2250  0.1622
 6360TIP3    H140571   6.396   6.727   0.617 -0.4469 -0.8936  1.2223
 6360TIP3    H240572   6.330   6.626   0.526  1.0393  1.3281 -2.5761
 6361TIP3   OH240573   4.523   4.214  11.899  0.1754  0.7654  0.7225
 6361TIP3    H140574   4.507   4.150  11.830 -0.6546  3.2084 -1.5269
 6361TIP3    H240575   4.619   4.216  11.907  0.1831 -1.8228  2.0213
 6362TIP3   OH240576   0.960   4.684   5.082 -0.6380  0.0301 -0.1443
 6362TIP3    H140577   1.054   4.664   5.082 -0.3594  1.2323 -0.1380
 6362TIP3    H240578   0.935   4.679   4.990 -0.3320  0.6440 -0.2718
 6363TIP3   OH240579   1.493   3.538  15.864  0.1591  0.8407  0.0386
 6363TIP3    H140580   1.566   3.527  15.925  2.6160  1.1992 -2.6181
 6363TIP3    H240581   1.452   3.452  15.861  0.9083  0.4177  1.0674
 6364TIP3   OH240582   4.122   1.042  10.414 -0.5342 -0.7498 -0.0210
 6364TIP3    H140583   4.133   1.098  10.491 -1.1122  0.5511 -0.8495
 6364TIP3    H240584   4.181   1.079  10.348 -1.2149 -0.8611 -0.7124
 6365TIP3   OH240585   0.517   0.485  16.221  0.1592 -0.8812 -0.1264
 6365TIP3    H140586   0.521   0.534  16.139 -1.3659 -0.3373  0.0787
 6365TIP3    H240587   0.430   0.506  16.257  0.6353 -1.4148  1.4285
 6366TIP3   OH240588   6.237   3.457  12.691 -0.1833  0.4300  0.1052
 6366TIP3    H140589   6.173   3.459  12.762  0.6917  0.1080  0.9178
 6366TIP3    H240590   6.316   3.498  12.728  0.3825 -0.0095 -0.5759
 6367TIP3   OH240591   6.786   3.911  15.739 -0.0695  0.1207  0.5821
 6367TIP3    H140592   6.804   3.931  15.831  0.3907 -0.3598  0.6014
 6367TIP3    H240593   6.690   3.908  15.733 -0.0990  0.1248  1.0545
 6368TIP3   OH240594   0.252   5.632   6.282  0.2370  0.9182  0.1387
 6368TIP3    H140595   0.255   5.544   6.319 -0.7049  0.4639 -0.8227
 6368TIP3    H240596   0.326   5.635   6.221  0.4793  0.9338  0.4254
 6369TIP3   OH240597   4.834   3.132   1.483 -0.2771 -0.5745  0.1852
 6369TIP3    H140598   4.779   3.154   1.559 -0.5933  1.7965 -0.6491
 6369TIP3    H240599   4.898   3.070   1.517 -1.9377 -1.5031  1.7853
 6370TIP3   OH240600   1.990   1.815   5.340  0.1810  0.1259 -0.4756
 6370TIP3    H140601   1.981   1.814   5.435  0.4807  1.5835 -0.4094
 6370TIP3    H240602   1.951   1.899   5.313  0.9970  0.1917 -1.5308
 6371TIP3   OH240603   5.373   6.576   1.312  0.4188 -0.2379  0.9173
 6371TIP3    H140604   5.303   6.630   1.275  0.9315 -0.5031 -0.4984
 6371TIP3    H240605   5.435   6.565   1.240 -0.4780 -4.1145  0.5094
 6372TIP3   OH240606   6.629   4.639  11.583  0.1134 -0.9119  0.2440
 6372TIP3    H140607   6.568   4.707  11.613  1.5827  0.3226  0.5231
 6372TIP3    H240608   6.572   4.566  11.557 -1.5232  0.4642 -0.2208
 6373TIP3   OH240609   5.372   3.896  16.484  0.1295 -0.2784  0.3939
 6373TIP3    H140610   5.320   3.960  16.532  1.2557  1.5665 -0.6944
 6373TIP3    H240611   5.427   3.855  16.551  0.3127  0.8528  0.9622
 6374TIP3   OH240612   1.365   3.120   5.315  0.0398 -0.0328  0.1362
 6374TIP3    H140613   1.440   3.079   5.274  0.0900 -0.3233  0.5190
 6374TIP3    H240614   1.294   3.056   5.305 -0.1184  0.1735 -0.0842
 6375TIP3   OH240615   6.380   3.222  12.643 -0.9897  0.1349 -0.4831
 6375TIP3    H140616   6.343   3.157  12.584 -2.8640  0.3270  0.4144
 6375TIP3    H240617   6.326   3.299  12.631  0.3878  1.1230 -0.5655
 6376TIP3   OH240618   4.779   6.013  14.764  0.3284  0.6133  0.5096
 6376TIP3    H140619   4.853   5.957  14.743 -0.8761 -1.2874  1.0757
 6376TIP3    H240620   4.781   6.020  14.860 -0.7738 -0.3271  0.6255
 6377TIP3   OH240621   0.435   6.687   4.439 -0.3184 -0.2485 -0.1534
 6377TIP3    H140622   0.498   6.729   4.498  0.6460 -0.2904 -1.0989
 6377TIP3    H240623   0.470   6.599   4.426  0.7407  0.4199 -2.4490
 6378TIP3   OH240624   6.293   4.917   2.442  0.3893 -0.1514  0.1798
 6378TIP3    H140625   6.234   4.855   2.486 -0.2785 -0.3141 -0.9131
 6378TIP3    H240626   6.234   4.974   2.392  1.0811  0.6144  0.2279
 6379TIP3   OH240627   6.004   2.094  13.752  0.3694  0.1303  0.1195
 6379TIP3    H140628   5.909   2.084  13.755  0.4506 -0.5143  0.8006
 6379TIP3    H240629   6.030   2.110  13.842  1.1289 -1.9845  0.3313
 6380TIP3   OH240630   1.444   5.187  12.122  0.9672 -0.0220 -0.1924
 6380TIP3    H140631   1.459   5.092  12.116 -0.9756 -0.4674  1.0969
 6380TIP3    H240632   1.400   5.199  12.206  0.9286  2.0206 -0.4576
 6381TIP3   OH240633   1.387   6.489  11.135 -0.0319 -0.4299  1.0048
 6381TIP3    H140634   1.349   6.576  11.127  1.4442  0.1859  0.3205
 6381TIP3    H240635   1.472   6.495  11.090  0.3949 -2.0347  1.5098
 6382TIP3   OH240636   4.517   3.165  16.510  0.2371 -0.0715  0.0209
 6382TIP3    H140637   4.608   3.152  16.483  0.4203 -0.4076  0.7681
 6382TIP3    H240638   4.478   3.078  16.503  0.4111 -0.2668  1.2373
 6383TIP3   OH240639   5.162   5.265   2.277 -0.0999  0.1250 -0.0079
 6383TIP3    H140640   5.113   5.183   2.268 -1.0861  0.5567  1.1155
 6383TIP3    H240641   5.101   5.333   2.248 -0.3315  0.7012  1.6961
 6384TIP3   OH240642   4.204   2.189   1.390 -0.0245  0.0105 -0.4220
 6384TIP3    H140643   4.261   2.112   1.382 -0.6102 -0.5284  0.3877
 6384TIP3    H240644   4.115   2.153   1.388 -0.3049  0.6839 -0.2252
 6385TIP3   OH240645   5.586   0.484   3.618  0.0794  0.1228  0.1996
 6385TIP3    H140646   5.606   0.393   3.638  2.0962  0.7731  1.4015
 6385TIP3    H240647   5.629   0.500   3.534  1.4948  0.4610  0.9476
 6386TIP3   OH240648   0.036   6.695   1.151  0.4678  0.2482 -0.2554
 6386TIP3    H140649  -0.000   6.712   1.064 -0.2039 -0.1440 -0.0598
 6386TIP3    H240650   0.041   6.781   1.193  0.4022  0.3866 -0.5346
 6387TIP3   OH240651   5.429   6.180   4.249 -0.5169  0.5016 -0.7268
 6387TIP3    H140652   5.336   6.183   4.272 -0.1034  2.2863  0.9968
 6387TIP3    H240653   5.446   6.264   4.207  0.1262 -0.2447 -2.0113
 6388TIP3   OH240654   4.828   5.553   1.136  0.0595 -0.4499 -0.3840
 6388TIP3    H140655   4.740   5.572   1.104 -0.0886  1.0438  0.8129
 6388TIP3    H240656   4.847   5.465   1.102 -1.5196 -0.4400 -1.4048
 6389TIP3   OH240657   2.661   0.574  17.103  0.0678 -0.2077  0.2888
 6389TIP3    H140658   2.750   0.542  17.119 -0.1001  0.2340  2.4435
 6389TIP3    H240659   2.607   0.496  17.095  0.4087 -0.4676  0.5464
 6390TIP3   OH240660   6.283   0.685  15.771 -0.2655 -0.9223 -1.0190
 6390TIP3    H140661   6.365   0.734  15.780 -0.4847 -0.7616  0.2615
 6390TIP3    H240662   6.309   0.600  15.737  1.0058 -2.3232  2.9131
 6391TIP3   OH240663   1.499   2.219  12.599  0.5354 -0.4681 -0.1421
 6391TIP3    H140664   1.518   2.168  12.678 -1.3037 -0.2969  0.4681
 6391TIP3    H240665   1.499   2.310  12.629  0.9332 -0.3207 -0.5912
 6392TIP3   OH240666   2.107   2.243  15.165  0.1078 -0.0219 -0.6184
 6392TIP3    H140667   2.059   2.275  15.089 -0.8715  0.8674  0.3301
 6392TIP3    H240668   2.046   2.184  15.209 -0.6956  2.0728  1.2771
 6393TIP3   OH240669   3.229   0.147  15.124  0.1897 -0.2728 -0.1258
 6393TIP3    H140670   3.221   0.078  15.058  0.2097  0.1202 -0.5448
 6393TIP3    H240671   3.206   0.104  15.206 -0.1734 -0.6810 -0.4346
 6394TIP3   OH240672   2.837   5.364   0.149 -0.4902 -0.7390  0.0664
 6394TIP3    H140673   2.753   5.327   0.122 -0.2323 -1.4454  0.2051
 6394TIP3    H240674   2.858   5.429   0.083 -1.1641 -0.5427  0.0482
 6395TIP3   OH240675   2.277   6.787   0.945  0.1444  0.6701  0.1931
 6395TIP3    H140676   2.201   6.810   1.000  0.3126 -0.6612  1.0416
 6395TIP3    H240677   2.301   6.699   0.974  1.5440  0.7611 -0.6097
 6396TIP3   OH240678   0.540   0.762  16.437  0.4072 -0.7580  0.0393
 6396TIP3    H140679   0.564   0.759  16.345 -1.6565 -0.7144 -0.5519
 6396TIP3    H240680   0.465   0.822  16.441 -0.5180 -1.9256  1.4945
 6397TIP3   OH240681   6.454   2.755   2.977 -0.2849  0.1495  0.3615
 6397TIP3    H140682   6.396   2.692   3.019  2.1793 -2.5921 -0.0543
 6397TIP3    H240683   6.524   2.770   3.041  0.4828  0.4456 -0.5206
 6398TIP3   OH240684   3.900   4.118  13.631  0.3823 -0.2351 -0.2812
 6398TIP3    H140685   3.960   4.188  13.607  0.3574 -0.7035 -1.8352
 6398TIP3    H240686   3.831   4.161  13.680  0.6234  0.7550 -0.7740
 6399TIP3   OH240687   1.676   2.307  13.595  0.8445  0.0001 -0.2603
 6399TIP3    H140688   1.683   2.359  13.675  0.0738 -0.6776  0.2600
 6399TIP3    H240689   1.608   2.350  13.543  0.3613 -0.3553  0.0731
 6400TIP3   OH240690   2.160   4.358   0.834  0.2213 -0.1896 -0.3041
 6400TIP3    H140691   2.219   4.312   0.774  0.1418 -0.4420 -0.1894
 6400TIP3    H240692   2.166   4.309   0.916 -1.5763 -1.3777 -0.8140
 6401TIP3   OH240693   6.155   5.456   5.789 -0.3575  0.3872 -0.1959
 6401TIP3    H140694   6.146   5.477   5.882 -2.2321 -1.3884  0.0852
 6401TIP3    H240695   6.066   5.452   5.756  0.2674  1.0023 -2.1299
 6402TIP3   OH240696   3.396   0.760  12.031  0.3887  0.2004 -0.1220
 6402TIP3    H140697   3.456   0.833  12.044 -1.2717  1.1813  2.8674
 6402TIP3    H240698   3.397   0.712  12.114 -1.7455 -0.6543 -0.5140
 6403TIP3   OH240699   4.740   2.930   4.671  0.9097 -0.2852  0.2976
 6403TIP3    H140700   4.709   2.842   4.650 -0.8526 -0.0056  1.4943
 6403TIP3    H240701   4.787   2.919   4.754  0.1588 -0.0181  0.7641
 6404TIP3   OH240702   4.760   0.512  12.824 -0.4702 -0.1516  0.3324
 6404TIP3    H140703   4.745   0.477  12.736 -2.4942  0.9614  0.1675
 6404TIP3    H240704   4.828   0.578  12.813  1.1349 -1.7745  0.1033
 6405TIP3   OH240705   3.554   3.322   4.858  0.0756 -0.0587 -0.0727
 6405TIP3    H140706   3.641   3.308   4.821 -0.3986 -0.6519 -1.0047
 6405TIP3    H240707   3.521   3.399   4.813 -0.7588 -1.1619 -1.4033
 6406TIP3   OH240708   1.541   0.624   4.621  0.0897  0.1608  0.4930
 6406TIP3    H140709   1.635   0.612   4.636  0.1255 -0.7202 -0.3511
 6406TIP3    H240710   1.502   0.619   4.708  0.6765 -0.9468  0.7156
 6407TIP3   OH240711   3.170   2.980   6.780  0.8581 -0.5042  0.5984
 6407TIP3    H140712   3.225   2.903   6.789 -0.1308 -1.3522 -0.4312
 6407TIP3    H240713   3.082   2.949   6.800  0.4869  0.4281  0.4584
 6408TIP3   OH240714   5.457   4.460   4.253 -0.4612  0.5690  1.0401
 6408TIP3    H140715   5.418   4.455   4.165  1.4650  2.1207  0.0193
 6408TIP3    H240716   5.407   4.528   4.298  0.5402  2.0713 -0.0226
 6409TIP3   OH240717   5.366   5.383  13.208 -0.0750  0.2037  0.2474
 6409TIP3    H140718   5.430   5.315  13.230 -0.6061 -0.3484  0.1376
 6409TIP3    H240719   5.289   5.360  13.260 -0.4847  0.3401 -0.2898
 6410TIP3   OH240720   6.019   2.628  14.397 -0.1219 -0.3876  0.0460
 6410TIP3    H140721   6.061   2.586  14.472  0.5415 -0.9742 -0.6342
 6410TIP3    H240722   6.081   2.616  14.325  0.1536  1.8748 -0.1561
 6411TIP3   OH240723   6.826   6.668  14.003  0.6086  0.0923 -0.5496
 6411TIP3    H140724   6.783   6.678  13.918 -0.8510  1.2555  0.2853
 6411TIP3    H240725   6.770   6.608  14.052  2.0820 -1.5455 -0.7705
 6412TIP3   OH240726   5.406   4.090   5.190 -0.7383  0.1839 -0.8038
 6412TIP3    H140727   5.400   4.118   5.098 -3.3107  1.4731 -0.3266
 6412TIP3    H240728   5.326   4.041   5.205  0.3647 -1.3455  0.4126
 6413TIP3   OH240729   2.193   4.775  11.811  0.3514  0.2793  0.1465
 6413TIP3    H140730   2.252   4.835  11.765 -0.3451 -0.4323 -1.7491
 6413TIP3    H240731   2.108   4.819  11.809 -0.5045 -1.2845 -2.5397
 6414TIP3   OH240732   3.886   3.858  11.407  0.3332  0.5658 -0.3496
 6414TIP3    H140733   3.926   3.901  11.483 -1.7371 -2.0785  2.5417
 6414TIP3    H240734   3.817   3.919  11.379  0.2193  1.0049  0.8258
 6415TIP3   OH240735   5.624   3.123   5.359 -0.0762 -0.2376 -0.3647
 6415TIP3    H140736   5.614   3.154   5.449 -3.6792  1.6260 -1.2437
 6415TIP3    H240737   5.701   3.170   5.326 -0.2387  1.0614  0.9927
 6416TIP3   OH240738   4.335   2.052   3.833 -0.4876 -0.3606 -0.1203
 6416TIP3    H140739   4.377   2.049   3.747  0.1392  0.9606  0.1160
 6416TIP3    H240740   4.405   2.032   3.895 -0.5140  0.4372  0.1813
 6417TIP3   OH240741   3.619   6.770  13.062 -0.4098 -0.3146  0.1991
 6417TIP3    H140742   3.560   6.696  13.047 -0.5879 -0.4134  1.2772
 6417TIP3    H240743   3.701   6.744  13.021 -0.4742 -1.1133  0.5538
 6418TIP3   OH240744   5.087   5.456  13.030 -0.4464 -0.0235 -0.1265
 6418TIP3    H140745   5.120   5.528  13.085 -0.8688 -0.9114  1.3364
 6418TIP3    H240746   5.149   5.384  13.045 -0.3608 -0.1768 -1.1184
 6419TIP3   OH240747   3.688   3.973   4.171 -0.4111 -0.1992 -0.1923
 6419TIP3    H140748   3.637   3.970   4.251  1.2890  0.4218  0.9747
 6419TIP3    H240749   3.752   3.902   4.180 -0.2531 -0.1766 -1.0260
 6420TIP3   OH240750   3.285   4.661  14.206 -0.1243  0.4200  0.2303
 6420TIP3    H140751   3.199   4.654  14.247  0.5449  0.6237  1.7462
 6420TIP3    H240752   3.267   4.679  14.114 -1.7306 -2.5822 -0.1422
 6421TIP3   OH240753   5.955   6.147   0.418 -0.0628  0.0591 -0.0274
 6421TIP3    H140754   5.891   6.109   0.478 -0.2388 -0.2686 -0.4184
 6421TIP3    H240755   6.019   6.077   0.404  0.8811  0.6783  1.0653
 6422TIP3   OH240756   1.066   0.806   5.142 -0.2234 -0.3399  0.3964
 6422TIP3    H140757   1.120   0.883   5.160 -1.2205  0.8122 -1.2034
 6422TIP3    H240758   0.987   0.842   5.100 -1.0460 -2.1828  0.2651
 6423TIP3   OH240759   2.541   4.612  13.156  0.0458 -0.1722 -0.2194
 6423TIP3    H140760   2.609   4.546  13.170  0.1219  0.4230  2.9234
 6423TIP3    H240761   2.492   4.580  13.081  1.3129 -2.7519 -0.0577
 6424TIP3   OH240762   3.271   2.412   2.319 -1.1905  0.2847  0.3803
 6424TIP3    H140763   3.224   2.473   2.376 -0.7890  0.3859  0.6094
 6424TIP3    H240764   3.236   2.326   2.342 -3.8480  0.6260 -1.9343
 6425TIP3   OH240765   6.585   6.098   0.454 -0.0008 -0.2774  0.7054
 6425TIP3    H140766   6.632   6.175   0.422 -0.6139  0.2894  1.1327
 6425TIP3    H240767   6.582   6.038   0.379  2.0520 -0.6651  0.8769
 6426TIP3   OH240768   3.327   1.834  13.243 -0.3127 -0.4074  0.4633
 6426TIP3    H140769   3.397   1.780  13.279  0.3093 -0.8689 -1.3290
 6426TIP3    H240770   3.297   1.787  13.165 -0.9619  0.9638 -0.1622
 6427TIP3   OH240771   5.212   3.363  12.800 -0.2039 -0.5169  0.2468
 6427TIP3    H140772   5.249   3.365  12.888  0.3167  2.0377  0.0467
 6427TIP3    H240773   5.119   3.345  12.814 -0.3069  0.7278  1.4307
 6428TIP3   OH240774   1.426   3.134  13.627 -0.4664  0.2939 -0.5551
 6428TIP3    H140775   1.403   3.059  13.682 -0.5955 -0.2508 -1.3229
 6428TIP3    H240776   1.515   3.116  13.598 -0.0985  0.9862  0.1266
 6429TIP3   OH240777   0.860   3.163   6.266  0.3005  0.1663  0.2163
 6429TIP3    H140778   0.852   3.086   6.209 -0.9470 -0.2531  0.9107
 6429TIP3    H240779   0.789   3.221   6.238 -0.8883 -0.4181  1.8480
 6430TIP3   OH240780   4.219   1.011   2.944  0.7345 -0.6943 -0.0960
 6430TIP3    H140781   4.281   1.026   3.015  0.2270 -0.8517  0.3857
 6430TIP3    H240782   4.273   0.988   2.869  1.4649  1.7157 -0.4065
 6431TIP3   OH240783   0.947   0.442  14.171  0.0147  0.3033  0.1491
 6431TIP3    H140784   1.023   0.407  14.218 -1.5986 -2.8549  0.6980
 6431TIP3    H240785   0.885   0.467  14.240 -0.0207  1.5337 -0.3030
 6432TIP3   OH240786   2.960   4.790   0.891  0.6588 -0.0220 -0.3720
 6432TIP3    H140787   2.915   4.847   0.830  1.0905 -0.9825 -1.6334
 6432TIP3    H240788   2.929   4.702   0.869  0.3610 -0.3469  1.2113
 6433TIP3   OH240789   3.239   4.336  10.821  0.0369 -0.4103  0.3935
 6433TIP3    H140790   3.285   4.392  10.882  1.1196 -0.8007 -0.0290
 6433TIP3    H240791   3.198   4.396  10.758 -0.2550 -0.0481  0.9278
 6434TIP3   OH240792   0.581   5.385  15.065  0.6044 -0.1232 -0.1356
 6434TIP3    H140793   0.514   5.324  15.035  0.4543 -0.0574  0.0677
 6434TIP3    H240794   0.573   5.460  15.007  1.0008 -0.4249 -0.5938
 6435TIP3   OH240795   4.473   5.445  16.146 -0.4373 -0.1950 -0.0631
 6435TIP3    H140796   4.412   5.398  16.202 -1.8417 -2.6057 -3.3134
 6435TIP3    H240797   4.547   5.385  16.135  0.2177  0.5980 -0.1122
 6436TIP3   OH240798   0.737   0.260  12.470 -0.3645 -0.3608 -0.1754
 6436TIP3    H140799   0.659   0.243  12.523 -0.7129 -0.1498 -0.6183
 6436TIP3    H240800   0.732   0.353  12.448  0.4587 -0.1489  0.5010
 6437TIP3   OH240801   4.869   4.788  15.532 -1.0479 -0.4571 -0.4003
 6437TIP3    H140802   4.850   4.865  15.479  1.0085 -0.3263 -1.0301
 6437TIP3    H240803   4.886   4.719  15.467  0.3940 -0.5739  0.0585
 6438TIP3   OH240804   4.426   1.038  13.849  0.3604 -0.3450 -0.2259
 6438TIP3    H140805   4.339   1.078  13.848  0.6503  0.3072  0.0765
 6438TIP3    H240806   4.411   0.949  13.883 -0.2074 -0.2886 -0.3250
 6439TIP3   OH240807   1.098   4.152   6.229  0.0333  0.3992 -0.2560
 6439TIP3    H140808   1.144   4.070   6.246  0.9382  1.0860  0.7846
 6439TIP3    H240809   1.162   4.220   6.250 -1.4804  1.3989  1.3653
 6440TIP3   OH240810   3.760   3.665  11.576 -0.3859 -0.2316 -0.0593
 6440TIP3    H140811   3.699   3.727  11.614  1.5634  1.1937  0.9126
 6440TIP3    H240812   3.823   3.719  11.528 -0.4747 -1.7168 -1.9785
 6441TIP3   OH240813   0.464   3.055   5.387 -0.6611  0.5665  0.0552
 6441TIP3    H140814   0.425   2.978   5.429 -0.1711  0.7511  0.8614
 6441TIP3    H240815   0.500   3.106   5.459  1.0030  0.4416 -0.6412
 6442TIP3   OH240816   1.563   0.696   2.307  0.7614  1.0852  0.2625
 6442TIP3    H140817   1.655   0.695   2.283  0.6210  1.3797 -0.3116
 6442TIP3    H240818   1.520   0.742   2.234 -0.1262 -0.8470 -0.4855
 6443TIP3   OH240819   4.666   1.745   3.614 -0.0327 -0.2677 -0.2382
 6443TIP3    H140820   4.699   1.672   3.666 -1.2265  0.5063  1.7386
 6443TIP3    H240821   4.571   1.736   3.619 -0.2134  1.5231  0.2878
 6444TIP3   OH240822   1.513   3.210  12.890  0.2852  0.1951  0.2554
 6444TIP3    H140823   1.452   3.204  12.816  0.7812  0.4405 -0.1866
 6444TIP3    H240824   1.592   3.164  12.859  0.3331 -0.0966  0.8076
 6445TIP3   OH240825   2.462   4.879   6.199  0.1634  0.4772  0.2942
 6445TIP3    H140826   2.479   4.785   6.213  0.2890  0.6535  1.4890
 6445TIP3    H240827   2.464   4.890   6.104  0.4781 -0.6745  0.1458
 6446TIP3   OH240828   3.804   3.252  12.865 -0.4656  0.4431  0.0671
 6446TIP3    H140829   3.720   3.270  12.824 -0.4986  0.7661  0.2657
 6446TIP3    H240830   3.794   3.166  12.906  0.1534 -0.7140 -2.1050
 6447TIP3   OH240831   5.178   2.034  12.477  0.1016 -0.3267  0.6912
 6447TIP3    H140832   5.257   1.987  12.502  0.9938  0.5637 -0.3467
 6447TIP3    H240833   5.192   2.123  12.507 -0.3122 -0.0607  0.1275
 6448TIP3   OH240834   4.221   4.756  16.668  0.8311 -0.4301 -0.5801
 6448TIP3    H140835   4.241   4.670  16.704  2.9407  0.0331 -0.4863
 6448TIP3    H240836   4.244   4.750  16.575  3.0255  0.5329 -0.1748
 6449TIP3   OH240837   4.142   0.327  15.323  0.0705 -0.3373 -0.7912
 6449TIP3    H140838   4.100   0.383  15.388  1.6163  0.9762 -0.8612
 6449TIP3    H240839   4.104   0.354  15.240  0.6290  0.4775 -0.7974
 6450TIP3   OH240840   0.185   1.190   2.634 -0.4863 -0.1341 -0.3757
 6450TIP3    H140841   0.170   1.229   2.547  1.8074  1.5058 -0.1473
 6450TIP3    H240842   0.243   1.253   2.678 -0.3369 -1.6842  1.7798
 6451TIP3   OH240843   0.385   6.616   1.804 -0.0539 -0.2020  0.6772
 6451TIP3    H140844   0.340   6.659   1.731 -1.2503 -0.4883  1.2190
 6451TIP3    H240845   0.467   6.586   1.766 -1.0653 -1.2152 -0.8519
 6452TIP3   OH240846   1.082   5.402  12.273  0.4725  1.1937 -0.1624
 6452TIP3    H140847   1.059   5.486  12.313  0.4842  1.8344 -1.4577
 6452TIP3    H240848   1.012   5.384  12.211  0.1472 -0.0843  0.5251
 6453TIP3   OH240849   5.879   4.681  16.447 -0.0334 -0.0891  0.3080
 6453TIP3    H140850   5.933   4.613  16.487  0.3282 -0.1774 -0.3161
 6453TIP3    H240851   5.913   4.763  16.483  0.5884 -0.1376 -0.1478
 6454TIP3   OH240852   2.852   6.406  16.437  0.7108 -0.7352  0.7711
 6454TIP3    H140853   2.775   6.349  16.447  0.4581 -0.3791  0.8715
 6454TIP3    H240854   2.816   6.489  16.406  0.8008  0.1407  2.8654
 6455TIP3   OH240855   2.167   4.750   2.884 -0.2220 -0.3509  0.4904
 6455TIP3    H140856   2.138   4.759   2.793 -0.4243 -0.7113  0.5163
 6455TIP3    H240857   2.099   4.793   2.935 -0.9803 -1.6125  0.5856
 6456TIP3   OH240858   0.920   4.275  16.024  0.5132 -0.2966 -0.0458
 6456TIP3    H140859   0.940   4.266  16.117  1.3322 -0.0534 -0.1948
 6456TIP3    H240860   0.968   4.352  15.996  0.9737 -0.8691 -0.8672
 6457TIP3   OH240861   4.516   3.138  13.096  0.4015 -0.0839 -0.4604
 6457TIP3    H140862   4.596   3.145  13.148  1.0712  2.5003 -1.6919
 6457TIP3    H240863   4.547   3.111  13.009 -0.6364 -3.6990  0.1164
 6458TIP3   OH240864   1.914   6.366  14.449 -0.0754 -0.0621 -0.1866
 6458TIP3    H140865   1.917   6.294  14.512 -1.6175  1.0886  1.3005
 6458TIP3    H240866   1.979   6.429  14.481 -1.0519  0.6480  0.5059
 6459TIP3   OH240867   3.999   2.297  15.072  0.4116  0.2348 -0.1119
 6459TIP3    H140868   3.959   2.244  15.141 -0.2511 -0.5785 -1.1048
 6459TIP3    H240869   4.073   2.245  15.041  0.3787  0.3619 -0.3992
 6460TIP3   OH240870   2.232   0.261   3.042  0.1319  0.1506 -0.3454
 6460TIP3    H140871   2.171   0.207   3.092  0.1642  2.1126  2.0363
 6460TIP3    H240872   2.177   0.330   3.004  0.4824  0.2835 -0.6150
 6461TIP3   OH240873   4.591   5.059   0.184 -0.6891 -0.3553  0.1195
 6461TIP3    H140874   4.615   5.124   0.118  1.1534  0.0493  1.1044
 6461TIP3    H240875   4.551   4.987   0.134  0.3706  0.0655 -1.4093
 6462TIP3   OH240876   1.438   5.516  12.966  0.0649 -0.2196  0.0335
 6462TIP3    H140877   1.497   5.448  12.932 -0.5947 -0.1394 -1.3311
 6462TIP3    H240878   1.455   5.517  13.060  1.3488 -1.0539 -0.1654
 6463TIP3   OH240879   1.257   3.335   5.007 -0.1888 -0.0189  0.0369
 6463TIP3    H140880   1.278   3.264   4.946 -4.4556 -0.4883 -1.2126
 6463TIP3    H240881   1.221   3.291   5.084 -0.0894  0.7469  0.5320
 6464TIP3   OH240882   4.637   6.124  15.572 -0.3154  0.2300  0.4270
 6464TIP3    H140883   4.640   6.204  15.624  1.5324 -0.6843  1.8662
 6464TIP3    H240884   4.661   6.055  15.634 -2.8184 -1.6029 -0.5217
 6465TIP3   OH240885   4.667   3.825  10.704  0.6033  0.4276  0.3684
 6465TIP3    H140886   4.606   3.828  10.630 -0.2294 -0.0774  1.0059
 6465TIP3    H240887   4.743   3.777  10.671 -0.9003 -2.3301  0.5897
 6466TIP3   OH240888   3.122   4.412   5.644  0.4650  0.4002 -0.4024
 6466TIP3    H140889   3.084   4.326   5.628 -0.2398  0.5148  0.6237
 6466TIP3    H240890   3.048   4.471   5.653  0.9118  0.9104  0.0545
 6467TIP3   OH240891   2.651   3.869  10.531  0.0079 -0.2638  0.3262
 6467TIP3    H140892   2.574   3.912  10.568  2.2801  3.0949  1.6565
 6467TIP3    H240893   2.649   3.892  10.438 -0.0054  0.8811  0.5962
 6468TIP3   OH240894   3.509   6.242   3.652  0.1515  0.2799 -0.2139
 6468TIP3    H140895   3.473   6.159   3.621  1.2941 -0.2138 -0.2481
 6468TIP3    H240896   3.447   6.271   3.720 -0.1592 -0.6839 -0.0755
 6469TIP3   OH240897   4.462   0.722  16.724 -0.1334  0.2324 -0.0908
 6469TIP3    H140898   4.497   0.809  16.706  0.5735  0.4431  2.0038
 6469TIP3    H240899   4.393   0.710  16.659  0.9022  1.6186 -1.5323
 6470TIP3   OH240900   3.748   2.965  16.301  0.2369  0.0354  0.0691
 6470TIP3    H140901   3.734   3.057  16.325  0.6118 -0.4243  2.1746
 6470TIP3    H240902   3.662   2.924  16.308  0.2651 -0.0083  0.1550
 6471TIP3   OH240903   6.840   5.663  16.474  0.1366  0.1831  0.5092
 6471TIP3    H140904   6.814   5.667  16.566 -0.6406 -1.7859  0.4242
 6471TIP3    H240905   6.808   5.577  16.444  1.1822  0.3980 -1.3442
 6472TIP3   OH240906   4.124   3.964  16.806 -0.4282 -0.4996 -0.2754
 6472TIP3    H140907   4.153   3.939  16.719 -0.9458 -1.5248 -0.1709
 6472TIP3    H240908   4.034   3.931  16.812 -0.6181  0.1016  0.4201
 6473TIP3   OH240909   1.283   6.473  12.592  0.2727 -0.5122  0.0368
 6473TIP3    H140910   1.319   6.393  12.632 -0.1814 -0.5310  0.4239
 6473TIP3    H240911   1.287   6.456  12.498 -2.7116 -2.3599  0.0977
 6474TIP3   OH240912   1.825   2.463  16.344 -0.1773 -0.4811  0.0386
 6474TIP3    H140913   1.843   2.557  16.349 -0.8441 -0.4008  1.6596
 6474TIP3    H240914   1.792   2.449  16.255 -3.2303  1.4384  0.7303
 6475TIP3   OH240915   6.544   4.251  15.055 -0.2252  0.6300 -0.4122
 6475TIP3    H140916   6.603   4.186  15.093  0.0022  1.5030  0.7839
 6475TIP3    H240917   6.534   4.224  14.963  0.4506 -0.6504 -0.1284
 6476TIP3   OH240918   4.317   6.564  15.539 -0.0314  0.0380 -0.1016
 6476TIP3    H140919   4.370   6.519  15.605  0.2970  0.9017  0.2376
 6476TIP3    H240920   4.227   6.550  15.568 -0.0240 -1.6064 -0.7891
 6477TIP3   OH240921   6.227   1.415   1.516 -0.4402  0.4195  0.0909
 6477TIP3    H140922   6.184   1.335   1.547  0.9730 -0.2375  0.4197
 6477TIP3    H240923   6.171   1.446   1.445 -1.7938 -0.0442  0.9289
 6478TIP3   OH240924   3.516   4.265   3.329  0.2530 -0.5762 -0.0351
 6478TIP3    H140925   3.468   4.272   3.411  0.6722  0.6937  0.1318
 6478TIP3    H240926   3.465   4.204   3.276  0.1683 -1.7086  1.2894
 6479TIP3   OH240927   3.846   6.301   6.920  0.2143  0.1039 -0.1090
 6479TIP3    H140928   3.848   6.321   6.826 -1.1098 -0.4335 -0.2758
 6479TIP3    H240929   3.869   6.208   6.924  1.2885  0.3707  0.2062
 6480TIP3   OH240930   2.306   5.085  16.027 -0.1781  0.0047 -0.7579
 6480TIP3    H140931   2.319   5.159  16.086 -0.1844 -1.1435  0.7775
 6480TIP3    H240932   2.227   5.107  15.977 -1.8943 -0.1101  1.6797
 6481TIP3   OH240933   0.639   4.508  11.440 -0.5819 -0.3834 -0.8231
 6481TIP3    H140934   0.544   4.521  11.452 -0.3548 -0.1787  1.2354
 6481TIP3    H240935   0.662   4.443  11.506  0.9581  0.7974 -0.1216
 6482TIP3   OH240936   0.300   3.980   2.404 -0.5462 -0.5170 -0.2559
 6482TIP3    H140937   0.229   4.040   2.425 -1.0699 -1.4612  0.7323
 6482TIP3    H240938   0.267   3.930   2.330 -2.0426 -2.7338  1.7752
 6483TIP3   OH240939   2.270   0.532  13.571 -0.2560 -0.0431  0.2899
 6483TIP3    H140940   2.358   0.554  13.603  0.1977 -0.4727 -0.6131
 6483TIP3    H240941   2.220   0.612  13.580  0.5396  0.5213 -0.1946
 6484TIP3   OH240942   3.506   1.426  14.075 -0.2232  0.2937 -0.1253
 6484TIP3    H140943   3.550   1.407  13.992  1.0988 -1.6005  0.9238
 6484TIP3    H240944   3.475   1.340  14.105 -3.0194  1.3095  0.1236
 6485TIP3   OH240945   5.344   1.627   3.267  0.1863  0.4495 -0.4357
 6485TIP3    H140946   5.358   1.658   3.356  1.9518 -0.6863 -0.2742
 6485TIP3    H240947   5.268   1.569   3.273  0.0146  0.7388  0.2173
 6486TIP3   OH240948   6.411   1.948   2.272 -0.7828 -0.1194  0.0522
 6486TIP3    H140949   6.326   1.965   2.311 -0.9630 -1.0094  0.0801
 6486TIP3    H240950   6.398   1.963   2.178 -0.7809  0.4356  0.1409
 6487TIP3   OH240951   5.184   3.138  15.972  0.3143  0.5170  0.0582
 6487TIP3    H140952   5.225   3.186  15.901 -0.4107  0.9965 -0.0523
 6487TIP3    H240953   5.091   3.137  15.949  0.3031 -0.8821  0.0915
 6488TIP3   OH240954   4.624   1.654   1.074  0.1454  0.1861 -0.0339
 6488TIP3    H140955   4.681   1.589   1.034  2.5539  1.1488  1.5766
 6488TIP3    H240956   4.596   1.614   1.156 -0.8500  0.0419 -0.4361
 6489TIP3   OH240957   4.043   2.353   5.033 -0.9394  0.9240  0.2282
 6489TIP3    H140958   4.092   2.407   5.096 -1.3075  0.8845  0.5565
 6489TIP3    H240959   4.013   2.278   5.085  1.3145 -0.7041 -0.6653
 6490TIP3   OH240960   6.076   1.493   1.273 -0.1562  0.6406  0.3476
 6490TIP3    H140961   6.140   1.517   1.206 -1.2292  1.2019 -0.5255
 6490TIP3    H240962   6.045   1.406   1.247  0.0842  0.4691  0.6352
 6491TIP3   OH240963   0.232   6.772   4.866  0.2184  0.0437  0.1903
 6491TIP3    H140964   0.159   6.796   4.810  0.7888  0.6090 -0.3207
 6491TIP3    H240965   0.309   6.813   4.825  0.7382 -0.0800  1.0207
 6492TIP3   OH240966   1.797   1.617   4.114 -0.3845 -0.1486  0.0065
 6492TIP3    H140967   1.719   1.629   4.169 -0.3501 -0.3157  0.0923
 6492TIP3    H240968   1.853   1.558   4.165 -0.7219 -0.9819 -0.5937
 6493TIP3   OH240969   6.049   1.030   4.033  0.1436 -0.1151  0.0975
 6493TIP3    H140970   6.098   0.955   4.000 -0.8411 -0.5874 -0.3098
 6493TIP3    H240971   5.987   1.052   3.964 -0.3312  0.3753  0.6599
 6494TIP3   OH240972   0.003   0.613  16.859  0.3014 -0.1774  0.1177
 6494TIP3    H140973  -0.087   0.602  16.891 -0.8804  1.1322 -2.4616
 6494TIP3    H240974   0.055   0.629  16.938 -2.0183  0.7392  1.5658
 6495TIP3   OH240975   0.222   2.151   2.009 -0.1024 -0.3039  0.2747
 6495TIP3    H140976   0.244   2.244   2.012 -0.3330 -0.2413 -0.0058
 6495TIP3    H240977   0.305   2.107   1.987 -0.4879  0.0302 -2.0837
 6496TIP3   OH240978   0.968   4.199   3.404  0.2252 -0.2591 -0.2176
 6496TIP3    H140979   0.895   4.142   3.381  0.1249  0.2902 -1.3045
 6496TIP3    H240980   0.928   4.282   3.427  0.4752 -0.1095 -0.3150
 6497TIP3   OH240981   0.426   6.061  12.668 -0.0789 -0.4714 -0.0510
 6497TIP3    H140982   0.461   6.047  12.580  0.2626 -0.6557  0.1149
 6497TIP3    H240983   0.402   6.154  12.671  0.1037 -0.4189 -0.2662
 6498TIP3   OH240984   2.325   3.440  15.202  0.1511  0.6808 -0.5325
 6498TIP3    H140985   2.352   3.359  15.245  2.4423  0.5035 -2.1131
 6498TIP3    H240986   2.241   3.461  15.241 -0.0674 -1.9387  0.6183
 6499TIP3   OH240987   1.158   6.283   1.441  0.4621 -0.3849 -0.1828
 6499TIP3    H140988   1.156   6.208   1.381  1.5594 -1.3932  0.9916
 6499TIP3    H240989   1.072   6.281   1.483  0.2765 -0.6494 -0.5639
 6500TIP3   OH240990   5.959   0.346  15.096 -0.3301 -0.1771 -0.1506
 6500TIP3    H140991   6.003   0.431  15.101 -1.6936  0.7100 -2.1327
 6500TIP3    H240992   5.882   0.362  15.041 -1.1814 -2.4782  0.2769
 6501TIP3   OH240993   3.804   2.423   2.922  0.0639 -0.2035  0.0833
 6501TIP3    H140994   3.799   2.336   2.963  1.3568 -0.4277 -0.1738
 6501TIP3    H240995   3.898   2.440   2.915 -0.1454  0.4967 -1.3776
 6502TIP3   OH240996   1.399   4.148  17.122 -0.2118  0.2837  0.1118
 6502TIP3    H140997   1.311   4.129  17.090 -0.8710  0.6616  1.6081
 6502TIP3    H240998   1.455   4.086  17.076 -1.1341  0.5554 -1.4432
 6503TIP3   OH240999   6.780   1.065  16.197  0.1974  0.1411 -0.0385
 6503TIP3    H141000   6.832   0.986  16.211  2.5809  1.4291 -1.0568
 6503TIP3    H241001   6.710   1.038  16.138  0.4804 -1.3532  0.2686
 6504TIP3   OH241002   0.078   6.324   5.485  0.2069  0.1559  0.5792
 6504TIP3    H141003  -0.011   6.350   5.460  0.1601  0.7516  1.3194
 6504TIP3    H241004   0.085   6.233   5.457 -1.4222 -0.6113  2.4195
 6505TIP3   OH241005   1.326   5.294   2.408 -0.0008  0.2168  0.0422
 6505TIP3    H141006   1.324   5.280   2.502 -1.4181  1.1814  0.2015
 6505TIP3    H241007   1.307   5.208   2.370 -0.0760 -0.0451  0.6684
 6506TIP3   OH241008   4.502   3.213   6.545 -0.0796  0.0474 -0.6197
 6506TIP3    H141009   4.463   3.179   6.464 -1.2330  0.3264 -0.2026
 6506TIP3    H241010   4.591   3.239   6.520  0.1191 -1.2932 -1.4307
 6507TIP3   OH241011   6.040   6.145  12.596 -0.4104 -0.2072 -0.7032
 6507TIP3    H141012   6.059   6.063  12.642 -1.7670 -0.1074  0.1118
 6507TIP3    H241013   6.021   6.207  12.666  1.7986  1.1694 -1.2494
 6508TIP3   OH241014   0.420   5.046   0.911  0.1530  0.7830 -0.5021
 6508TIP3    H141015   0.350   4.981   0.924  0.6734  0.4802  0.9030
 6508TIP3    H241016   0.373   5.128   0.894 -0.5211  0.3566 -0.7722
 6509TIP3   OH241017   2.774   4.379   1.053 -0.3693 -0.6944  0.4712
 6509TIP3    H141018   2.820   4.299   1.077  0.2143 -0.3175  0.6060
 6509TIP3    H241019   2.798   4.443   1.120  0.7733  0.1852 -0.7336
 6510TIP3   OH241020   4.273   2.029  11.940 -0.2237 -0.5644  0.0660
 6510TIP3    H141021   4.349   1.988  11.981 -0.1963 -2.4813 -1.7347
 6510TIP3    H241022   4.200   2.008  11.998  0.3130 -0.2928  0.8596
 6511TIP3   OH241023   3.014   3.495   2.502  0.2425 -0.2715 -0.0867
 6511TIP3    H141024   3.100   3.455   2.514  0.1979  0.1409  2.1819
 6511TIP3    H241025   3.018   3.575   2.555 -0.4516  1.5675 -2.6208
 6512TIP3   OH241026   1.415   1.187  14.459  0.4963 -0.2300 -0.1550
 6512TIP3    H141027   1.431   1.212  14.368 -0.3654  0.0698 -0.2314
 6512TIP3    H241028   1.503   1.180  14.497  0.8705 -0.4410 -1.0210
 6513TIP3   OH241029   6.219   2.388  15.443 -0.1363 -0.2440 -0.1833
 6513TIP3    H141030   6.125   2.368  15.451 -0.2216 -0.2298 -1.0421
 6513TIP3    H241031   6.263   2.310  15.478 -0.4599  0.2623  1.3948
 6514TIP3   OH241032   4.073   4.713  13.588 -0.3686 -0.5738  0.3148
 6514TIP3    H141033   3.982   4.743  13.591 -0.2057  0.0024 -0.2819
 6514TIP3    H241034   4.098   4.720  13.496  0.5821  0.2060  0.6114
 6515TIP3   OH241035   0.867   6.332  12.009 -0.1193 -0.4534 -0.4336
 6515TIP3    H141036   0.904   6.420  12.000  1.5929 -1.1429 -0.5991
 6515TIP3    H241037   0.812   6.337  12.087  0.7802  0.5165  0.1645
 6516TIP3   OH241038   2.397   6.811   3.833  0.3180 -0.3170 -0.4128
 6516TIP3    H141039   2.417   6.864   3.910 -1.1864  0.6329 -0.6395
 6516TIP3    H241040   2.440   6.856   3.761 -0.0070 -0.0341 -0.4328
 6517TIP3   OH241041   1.184   6.800  11.235  0.1239 -0.7058 -0.0990
 6517TIP3    H141042   1.153   6.882  11.196  1.1974 -1.6423 -3.2140
 6517TIP3    H241043   1.144   6.732  11.181  1.2683 -2.1578  0.8244
 6518TIP3   OH241044   3.640   0.598   1.063 -0.2689  0.1270 -0.2141
 6518TIP3    H141045   3.711   0.560   1.114 -1.7099 -0.6860  1.2717
 6518TIP3    H241046   3.622   0.533   0.994 -0.0265  0.0221 -0.1782
 6519TIP3   OH241047   2.632   1.902   5.045  0.1816 -0.5234  0.4158
 6519TIP3    H141048   2.550   1.921   5.090  0.0406  0.5341 -0.2542
 6519TIP3    H241049   2.688   1.862   5.112  0.2501  1.6661  1.7550
 6520TIP3   OH241050   5.705   5.667   1.269  0.4269 -0.4583  0.0723
 6520TIP3    H141051   5.783   5.657   1.214 -0.4174 -1.8621 -0.9201
 6520TIP3    H241052   5.658   5.741   1.230 -0.4011 -1.7328 -1.4445
 6521TIP3   OH241053   2.826   2.803   1.374 -0.6476 -0.2939 -0.1647
 6521TIP3    H141054   2.837   2.822   1.467  0.2283 -1.0192 -0.1011
 6521TIP3    H241055   2.743   2.843   1.351 -0.7918  0.0505  0.8895
 6522TIP3   OH241056   2.907   0.961  16.476 -0.0474 -0.3075  0.2036
 6522TIP3    H141057   2.912   1.046  16.519  2.5298 -0.7857  0.9934
 6522TIP3    H241058   2.952   0.973  16.392 -2.0330 -0.2818 -0.9467
 6523TIP3   OH241059   2.365   0.151  12.022 -0.1401  0.3848 -0.5426
 6523TIP3    H141060   2.452   0.131  11.987 -0.2917 -2.1945  0.3604
 6523TIP3    H241061   2.372   0.132  12.115 -1.6050  0.4638 -0.3957
 6524TIP3   OH241062   0.498   5.649   0.587  0.0173  0.1739  0.2076
 6524TIP3    H141063   0.512   5.652   0.492 -0.1764 -1.8363  0.0810
 6524TIP3    H241064   0.406   5.671   0.598  0.0791  0.5738 -0.0509
 6525TIP3   OH241065   6.474   0.473   2.986  0.7315 -0.0513 -0.0178
 6525TIP3    H141066   6.490   0.552   2.934  2.5028  0.2398  0.8920
 6525TIP3    H241067   6.543   0.412   2.960 -0.2244 -1.0932 -0.2299
 6526TIP3   OH241068   5.777   4.758   3.634 -0.3011  0.7069  0.3245
 6526TIP3    H141069   5.855   4.708   3.656 -0.2618  0.5183 -0.2126
 6526TIP3    H241070   5.748   4.721   3.550 -1.6788 -0.0590  1.0971
 6527TIP3   OH241071   2.122   3.059  17.019  0.4460 -0.0581 -0.3931
 6527TIP3    H141072   2.091   2.970  17.034  1.2088 -0.2629  0.0263
 6527TIP3    H241073   2.211   3.060  17.055  0.4604  0.8610 -0.4257
 6528TIP3   OH241074   5.814   5.841   2.806  0.0258 -0.0422 -0.0648
 6528TIP3    H141075   5.719   5.846   2.793 -0.3150 -0.7755  1.8883
 6528TIP3    H241076   5.841   5.762   2.759  0.1114  1.4225 -2.6531
 6529TIP3   OH241077   6.716   0.749  14.264  0.7228 -0.5687  0.1486
 6529TIP3    H141078   6.690   0.661  14.234  0.1520 -0.4946  0.4107
 6529TIP3    H241079   6.720   0.742  14.359 -0.6260  0.0083  0.2796
 6530TIP3   OH241080   6.462   3.930   1.350  0.5824 -0.0823  0.0705
 6530TIP3    H141081   6.403   3.908   1.421 -0.4292 -0.0523 -0.7352
 6530TIP3    H241082   6.471   3.849   1.300  1.2580 -0.0944  0.1988
 6531TIP3   OH241083   6.315   3.056  13.992  0.3909  0.3288  0.4195
 6531TIP3    H141084   6.242   3.076  14.050 -0.5155  0.0396 -0.5670
 6531TIP3    H241085   6.340   3.140  13.954  0.6556  0.4460  0.8509
 6532TIP3   OH241086   4.573   2.863   1.235 -0.3309  0.2642 -0.6982
 6532TIP3    H141087   4.511   2.880   1.164 -0.0909  2.0589 -0.5306
 6532TIP3    H241088   4.632   2.939   1.234  1.0229 -0.7387  0.0287
 6533TIP3   OH241089   3.199   0.408   6.336  0.5183 -0.0137 -0.0292
 6533TIP3    H141090   3.182   0.487   6.387  0.5260 -0.9194  1.4658
 6533TIP3    H241091   3.188   0.337   6.399 -1.1704 -1.3351 -1.6796
 6534TIP3   OH241092   1.986   1.200   4.753 -0.0191 -0.4713 -0.0128
 6534TIP3    H141093   2.037   1.260   4.699 -0.1376 -1.1617 -0.9233
 6534TIP3    H241094   1.898   1.237   4.755  0.0375 -0.3323 -0.1174
 6535TIP3   OH241095   6.031   2.554   3.085 -0.8549  0.3094  0.7230
 6535TIP3    H141096   6.027   2.606   3.165  0.4265  1.7099 -0.0613
 6535TIP3    H241097   6.125   2.545   3.067 -1.1167  0.6203 -0.9792
 6536TIP3   OH241098   2.402   2.485  11.699  0.0401 -0.3717  0.3359
 6536TIP3    H141099   2.342   2.558  11.684 -1.6911 -2.2182 -2.8052
 6536TIP3    H241100   2.465   2.491  11.627  1.2236 -0.8031  1.2955
 6537TIP3   OH241101   3.960   0.914  16.478 -0.0189 -0.4334 -0.3546
 6537TIP3    H141102   3.873   0.952  16.478 -0.2482 -0.9487 -0.6300
 6537TIP3    H241103   3.952   0.834  16.530  0.7398  0.4788  1.2434
 6538TIP3   OH241104   2.440   0.037  16.640  0.2688  0.1905 -0.2019
 6538TIP3    H141105   2.357   0.084  16.632  0.6353  0.8442 -0.1726
 6538TIP3    H241106   2.459   0.006  16.551  0.4190  0.7633 -0.3693
 6539TIP3   OH241107   3.927   5.508   3.452  0.1105 -0.1345  0.8226
 6539TIP3    H141108   3.897   5.558   3.376  1.4129  1.1603  1.1146
 6539TIP3    H241109   3.863   5.437   3.460  0.6942 -1.2270 -2.3681
 6540TIP3   OH241110   1.663   0.672   1.403  0.2796 -0.1000 -0.8318
 6540TIP3    H141111   1.725   0.618   1.354  0.9391 -0.1316  0.0238
 6540TIP3    H241112   1.686   0.659   1.495 -1.7700 -1.0703 -0.3850
 6541TIP3   OH241113   0.254   3.746   6.458 -0.0511 -0.0009 -0.0688
 6541TIP3    H141114   0.204   3.740   6.377 -0.0022 -1.3929 -0.0241
 6541TIP3    H241115   0.196   3.708   6.524  1.2374 -2.2791 -0.1344
 6542TIP3   OH241116   2.993   0.077  13.775 -0.5906  0.3924 -0.0324
 6542TIP3    H141117   2.901   0.071  13.803 -0.1892 -1.4211  1.0533
 6542TIP3    H241118   3.008  -0.002  13.724  1.2451 -1.2378  2.7530
 6543TIP3   OH241119   4.698   1.375  13.539 -0.1787  0.3724 -0.1826
 6543TIP3    H141120   4.681   1.467  13.559 -1.0303  0.1280  0.2470
 6543TIP3    H241121   4.741   1.342  13.618  1.2565  0.6817 -0.7955
 6544TIP3   OH241122   0.887   3.232   3.054 -0.3169  0.0930  0.5503
 6544TIP3    H141123   0.880   3.211   3.148 -2.0746 -1.1396  0.1936
 6544TIP3    H241124   0.879   3.327   3.051 -0.3183  0.1505  1.6479
 6545TIP3   OH241125   6.552   6.493  15.115 -0.0946 -0.4589  0.0530
 6545TIP3    H141126   6.465   6.460  15.090 -0.2508  1.3368 -2.1127
 6545TIP3    H241127   6.612   6.450  15.054  0.1502  0.4301 -0.3498
 6546TIP3   OH241128   3.911   3.801   4.255  0.1505 -0.1639 -0.1835
 6546TIP3    H141129   3.931   3.751   4.334  0.6204  0.0522 -0.1586
 6546TIP3    H241130   3.954   3.753   4.184  1.4481  0.6965 -0.0311
 6547TIP3   OH241131   1.327   0.894   4.720  0.3102 -0.0823 -0.0055
 6547TIP3    H141132   1.251   0.925   4.770 -0.1766  1.4807 -1.6229
 6547TIP3    H241133   1.395   0.883   4.786 -0.7304  0.4231  1.2117
 6548TIP3   OH241134   0.602   0.401  11.766 -0.0601  0.0904 -0.3935
 6548TIP3    H141135   0.629   0.447  11.846 -1.1394  0.0889 -0.0030
 6548TIP3    H241136   0.562   0.320  11.797 -1.7201  0.6979 -0.8135
 6549TIP3   OH241137   2.224   5.900   5.956  0.2140  0.2290  0.0482
 6549TIP3    H141138   2.201   5.808   5.941 -1.4849  0.5080  0.6582
 6549TIP3    H241139   2.145   5.948   5.931  1.1615  1.5515 -0.4712
 6550TIP3   OH241140   2.900   4.357   0.128 -0.6296 -0.0105 -0.3315
 6550TIP3    H141141   2.953   4.431   0.156  0.9813 -1.2966  0.1466
 6550TIP3    H241142   2.960   4.301   0.080 -1.4779 -1.6246  0.4041
 6551TIP3   OH241143   3.300   6.555  14.232  0.3885  0.0095 -0.5565
 6551TIP3    H141144   3.374   6.515  14.278  0.8318 -0.0087 -1.2818
 6551TIP3    H241145   3.263   6.616  14.296 -0.6883 -1.9553  0.8039
 6552TIP3   OH241146   0.662   6.685   3.583  0.5099  0.1793 -0.6714
 6552TIP3    H141147   0.660   6.777   3.556  1.3192  0.2367 -0.5811
 6552TIP3    H241148   0.677   6.636   3.502 -0.8337  0.0362 -0.8602
 6553TIP3   OH241149   3.350   6.242   2.611  0.2171  0.1567  0.5765
 6553TIP3    H141150   3.355   6.170   2.548  1.5523  0.3212  0.4769
 6553TIP3    H241151   3.298   6.206   2.683  1.4940 -1.2051  0.8817
 6554TIP3   OH241152   5.067   1.259   6.774  0.8921  0.3335 -0.2605
 6554TIP3    H141153   5.042   1.303   6.855  0.3072  0.5010 -0.5260
 6554TIP3    H241154   5.049   1.323   6.705  0.0089 -0.3234 -0.6519
 6555TIP3   OH241155   3.152   1.024  10.998  0.0987 -0.4494 -0.6787
 6555TIP3    H141156   3.166   0.985  10.911 -1.1474 -1.9699 -0.2454
 6555TIP3    H241157   3.062   1.001  11.020 -0.5407  2.2350 -0.0924
 6556TIP3   OH241158   2.696   0.556   4.144 -0.1173 -0.0768  0.1289
 6556TIP3    H141159   2.777   0.566   4.195 -0.6610  0.1701  0.9509
 6556TIP3    H241160   2.720   0.495   4.074  1.4500  1.7917 -1.0872
 6557TIP3   OH241161   0.572   2.191  12.527  0.0245  0.4097 -0.3745
 6557TIP3    H141162   0.607   2.131  12.461  0.3805 -0.7287  0.8305
 6557TIP3    H241163   0.647   2.213  12.582 -0.1922  1.6562 -0.5286
 6558TIP3   OH241164   0.109   2.226  12.748  0.1196  0.6553 -0.0807
 6558TIP3    H141165   0.177   2.195  12.808  0.3652 -0.2368 -0.7819
 6558TIP3    H241166   0.034   2.245  12.803  0.0664 -0.9313  0.4407
 6559TIP3   OH241167   1.893   3.420   6.895  0.0083 -0.1935  0.6340
 6559TIP3    H141168   1.897   3.514   6.912  0.7622 -0.3782  1.5371
 6559TIP3    H241169   1.820   3.388   6.948 -0.5635 -0.0538 -0.0507
 6560TIP3   OH241170   2.133   3.326  15.476  0.3300  0.2661  0.2697
 6560TIP3    H141171   2.067   3.390  15.500  0.3000  0.2945  0.1132
 6560TIP3    H241172   2.102   3.243  15.513 -0.8112 -0.1330 -1.4952
 6561TIP3   OH241173   4.468   0.159   5.436 -0.0186 -0.0431 -0.1128
 6561TIP3    H141174   4.540   0.102   5.409  0.7381 -0.3887  2.4301
 6561TIP3    H241175   4.404   0.100   5.477 -1.5872  0.3332 -1.8336
 6562TIP3   OH241176   3.664   6.722  11.915  0.3718  0.2170 -0.0744
 6562TIP3    H141177   3.577   6.744  11.882  0.6457  0.6390 -0.5206
 6562TIP3    H241178   3.703   6.805  11.941 -0.5415 -0.2452  3.1584
 6563TIP3   OH241179   5.540   4.001   0.597 -0.4034 -0.5274 -0.4865
 6563TIP3    H141180   5.580   3.958   0.673 -1.4557 -0.8011 -0.0707
 6563TIP3    H241181   5.492   4.076   0.635  0.4175  0.3183 -1.0705
 6564TIP3   OH241182   0.532   5.792  16.597  0.2853  0.5276  0.1764
 6564TIP3    H141183   0.452   5.816  16.550  0.5540  1.7981  0.3458
 6564TIP3    H241184   0.537   5.697  16.588 -1.9812  0.2216  1.3205
 6565TIP3   OH241185   4.425   6.222   1.800  0.4485  0.1092  0.2373
 6565TIP3    H141186   4.428   6.301   1.854 -0.3290 -0.0080  0.4672
 6565TIP3    H241187   4.515   6.211   1.768  1.0436 -0.0557  1.8481
 6566TIP3   OH241188   2.899   1.713  15.458  0.4482 -0.2204 -0.3563
 6566TIP3    H141189   2.941   1.717  15.372 -0.0836 -1.0744 -0.6684
 6566TIP3    H241190   2.882   1.620  15.473 -0.4115  0.0068  0.2116
 6567TIP3   OH241191   0.643   4.224  11.101 -0.3075  0.1220  0.1203
 6567TIP3    H141192   0.640   4.252  11.010 -0.1863  0.1289  0.1180
 6567TIP3    H241193   0.732   4.244  11.130 -0.9754  2.2379  0.9133
 6568TIP3   OH241194   5.447   4.201   4.485 -0.0810  0.2239  0.2361
 6568TIP3    H141195   5.493   4.186   4.402  2.1660 -1.1469  1.6023
 6568TIP3    H241196   5.420   4.114   4.514 -0.1708  0.5812  1.2734
 6569TIP3   OH241197   0.572   4.061   4.551  0.2857 -0.0411 -0.4275
 6569TIP3    H141198   0.503   4.125   4.572  1.0773  1.0601 -1.0757
 6569TIP3    H241199   0.561   3.992   4.616  0.0203  1.2388  0.9426
 6570TIP3   OH241200   5.832   5.693  12.258  0.5350  1.0119  0.1681
 6570TIP3    H141201   5.782   5.624  12.302  1.0009  0.3360 -0.3449
 6570TIP3    H241202   5.923   5.668  12.270  0.6924 -0.4569 -3.0500
 6571TIP3   OH241203   5.400   4.017  10.662  0.2494  0.8268 -0.3279
 6571TIP3    H141204   5.343   4.005  10.587  0.1298  0.9258 -0.2523
 6571TIP3    H241205   5.424   3.927  10.688 -1.0508  0.7080  0.5406
 6572TIP3   OH241206   2.609   1.047   4.735  0.2867 -0.0243  0.4234
 6572TIP3    H141207   2.591   1.094   4.816 -0.2164 -0.1851  0.4139
 6572TIP3    H241208   2.545   0.975   4.736  0.3322 -0.0711 -0.0745
 6573TIP3   OH241209   4.661   1.533  12.881 -0.6533 -0.3828 -0.1502
 6573TIP3    H141210   4.749   1.535  12.845 -1.2360 -1.9808 -1.8368
 6573TIP3    H241211   4.651   1.444  12.915 -2.3715 -1.0601 -2.2096
 6574TIP3   OH241212   2.154   0.303  14.284 -0.1479 -0.2871 -0.4046
 6574TIP3    H141213   2.159   0.212  14.256  2.1216 -0.7665  1.3386
 6574TIP3    H241214   2.063   0.314  14.314 -0.6285 -1.7454 -1.2532
 6575TIP3   OH241215   1.690   0.233  16.276 -0.2647  0.0124 -0.6523
 6575TIP3    H141216   1.640   0.165  16.321  1.5249 -0.9514 -0.0269
 6575TIP3    H241217   1.695   0.304  16.339 -0.7527  0.0929 -0.6952
 6576TIP3   OH241218   1.477   6.841  12.918 -0.1132 -0.0816 -0.3509
 6576TIP3    H141219   1.558   6.828  12.869  0.2294 -0.4086  0.2932
 6576TIP3    H241220   1.505   6.869  13.005 -0.5474 -2.5697  0.6773
 6577TIP3   OH241221   3.375   0.368  14.887  0.1718  0.3916  0.6726
 6577TIP3    H141222   3.420   0.451  14.902  1.1801  0.0443 -0.3191
 6577TIP3    H241223   3.307   0.388  14.823  0.4011  0.4570  0.4508
 6578TIP3   OH241224   3.530   4.821   2.258 -0.0577  0.6001  0.4916
 6578TIP3    H141225   3.491   4.881   2.194 -1.4269 -0.4036  0.3450
 6578TIP3    H241226   3.518   4.734   2.220 -0.5843  0.0110  1.9434
 6579TIP3   OH241227   2.621   5.162  15.673 -0.1264  0.1373 -0.1520
 6579TIP3    H141228   2.531   5.195  15.670 -0.5389 -0.9625 -0.0738
 6579TIP3    H241229   2.634   5.120  15.588  0.4395  0.5714 -0.2933
 6580TIP3   OH241230   2.464   4.483  14.690 -0.1128  0.3407 -0.3937
 6580TIP3    H141231   2.441   4.563  14.643 -0.6632 -0.3667 -1.3580
 6580TIP3    H241232   2.538   4.446  14.642  1.5443  1.3164  1.2617
 6581TIP3   OH241233   5.952   5.119   6.110 -0.3924  0.2545  0.1102
 6581TIP3    H141234   5.949   5.036   6.062  0.2697  0.2109  0.1352
 6581TIP3    H241235   5.965   5.093   6.201  0.9097  0.4035 -0.0125
 6582TIP3   OH241236   2.002   0.323  14.820 -0.0195 -0.0526 -0.1944
 6582TIP3    H141237   2.004   0.418  14.809 -1.9903  0.0003 -0.5735
 6582TIP3    H241238   1.995   0.289  14.731 -1.8914 -0.3748  0.0276
 6583TIP3   OH241239   2.119   6.648   4.886  0.2251  0.1582 -0.2157
 6583TIP3    H141240   2.024   6.641   4.880  0.2996 -0.9183 -0.2048
 6583TIP3    H241241   2.138   6.639   4.979  0.2064  2.4038  0.0682
 6584TIP3   OH241242   4.140   0.372   3.587 -0.1469 -0.2061 -0.1136
 6584TIP3    H141243   4.198   0.369   3.663  0.2120 -0.4422 -0.3942
 6584TIP3    H241244   4.195   0.402   3.515 -0.6926  0.8670 -0.1019
 6585TIP3   OH241245   4.003   6.279   6.017  0.0065  0.5097  0.5923
 6585TIP3    H141246   3.966   6.217   5.954 -0.3396  1.9040 -0.6594
 6585TIP3    H241247   4.055   6.339   5.963  0.6927  1.0516  1.8116
 6586TIP3   OH241248   4.280   4.078  14.036  0.2466 -0.6290  0.1513
 6586TIP3    H141249   4.361   4.049  14.078 -0.5252 -0.2070  2.0054
 6586TIP3    H241250   4.303   4.160  13.992  0.9201 -0.7420  0.2890
 6587TIP3   OH241251   3.725   3.531  16.236  0.2683  0.0818  0.3715
 6587TIP3    H141252   3.693   3.502  16.321  1.1024 -0.9125  0.3664
 6587TIP3    H241253   3.758   3.451  16.194 -1.7737  0.1944 -1.6572
 6588TIP3   OH241254   2.388   4.534  14.083 -0.2705  0.0073  0.6813
 6588TIP3    H141255   2.303   4.570  14.054  0.1992 -0.1103 -0.9610
 6588TIP3    H241256   2.366   4.450  14.122 -1.0239  0.5275  1.4495
 6589TIP3   OH241257   3.358   4.182   3.777  0.4334  0.4985  0.2318
 6589TIP3    H141258   3.294   4.223   3.835  0.7033  1.3825 -0.0773
 6589TIP3    H241259   3.363   4.240   3.701 -0.4918 -1.0409 -1.0673
 6590TIP3   OH241260   4.692   5.791   5.646 -0.0577 -0.0436 -0.4089
 6590TIP3    H141261   4.676   5.696   5.646 -0.6696  0.0468  0.1073
 6590TIP3    H241262   4.624   5.827   5.589 -0.8263  0.2142  0.6297
 6591TIP3   OH241263   6.466   3.978  15.839 -0.6404 -0.4490  0.2736
 6591TIP3    H141264   6.416   3.923  15.779 -0.7634 -0.3200  0.2566
 6591TIP3    H241265   6.420   4.062  15.838  0.3114  0.0854 -0.7344
 6592TIP3   OH241266   4.641   1.083  13.393 -0.0766 -0.3265  0.0444
 6592TIP3    H141267   4.717   1.122  13.349  0.9513 -0.4606  1.5840
 6592TIP3    H241268   4.603   1.155  13.443 -1.8192  0.0612 -1.7328
 6593TIP3   OH241269   2.432   3.295  11.603 -0.6061 -0.3498 -0.3801
 6593TIP3    H141270   2.350   3.251  11.578 -0.1968 -1.3289 -0.0641
 6593TIP3    H241271   2.495   3.268  11.536 -0.8004  1.3640 -1.3138
 6594TIP3   OH241272   5.506   6.193   1.232 -0.2280  0.1056 -0.2494
 6594TIP3    H141273   5.462   6.163   1.311 -1.8456  0.8902 -0.8070
 6594TIP3    H241274   5.591   6.150   1.234 -0.4350 -0.2965  1.6382
 6595TIP3   OH241275   1.548   1.185   2.319  0.3377  0.1512  0.1983
 6595TIP3    H141276   1.501   1.174   2.401  0.9618 -2.2060  0.3243
 6595TIP3    H241277   1.495   1.246   2.268 -0.4698  1.0361  2.0161
 6596TIP3   OH241278   3.845   2.435  16.948  0.2848  0.3798  0.0238
 6596TIP3    H141279   3.766   2.405  16.992  1.5393 -2.8418  0.3531
 6596TIP3    H241280   3.814   2.480  16.869 -1.8552  0.0661  0.6455
 6597TIP3   OH241281   1.546   0.367   2.723 -0.3262 -0.2427  0.2330
 6597TIP3    H141282   1.531   0.333   2.811  1.5246 -2.3080 -0.1704
 6597TIP3    H241283   1.564   0.290   2.669  2.3132  1.1621 -1.1340
 6598TIP3   OH241284   2.042   5.891   2.950  0.5604 -0.0611  0.3617
 6598TIP3    H141285   2.100   5.816   2.964  1.2475  0.3615 -0.1606
 6598TIP3    H241286   2.025   5.891   2.855 -0.9374 -0.6398  0.6061
 6599TIP3   OH241287   2.442   5.266  14.288 -0.2245  0.1525 -0.0083
 6599TIP3    H141288   2.498   5.191  14.309 -0.0496  0.2772 -0.0268
 6599TIP3    H241289   2.433   5.264  14.193  0.4617  0.6352 -0.0916
 6600TIP3   OH241290   4.533   2.135   3.107 -0.4189  0.4482 -0.4337
 6600TIP3    H141291   4.576   2.148   3.023 -0.3128  1.4032 -0.2448
 6600TIP3    H241292   4.559   2.211   3.160 -0.4046 -0.1805  0.4960
 6601TIP3   OH241293   5.203   0.175   2.783  0.2242 -0.6401  0.3465
 6601TIP3    H141294   5.296   0.159   2.799  0.9639  2.6100 -0.0724
 6601TIP3    H241295   5.173   0.223   2.859 -1.0914 -1.4139  0.3496
 6602TIP3   OH241296   1.620   5.245  16.875  0.1702  0.0333 -0.1825
 6602TIP3    H141297   1.632   5.223  16.783 -1.6935 -1.2521 -0.1647
 6602TIP3    H241298   1.592   5.163  16.916  1.6809  0.3824  1.6993
 6603TIP3   OH241299   0.668   5.654   5.212 -0.4807  0.2196  0.1328
 6603TIP3    H141300   0.595   5.715   5.222 -1.5769 -1.1906  1.0893
 6603TIP3    H241301   0.727   5.674   5.285 -0.4260  0.6256 -0.0143
 6604TIP3   OH241302   3.017   1.692  12.816  0.8884 -0.6890 -0.0016
 6604TIP3    H141303   2.967   1.662  12.740 -0.1842 -1.0000  0.7997
 6604TIP3    H241304   2.967   1.660  12.891  0.6176  1.6109  0.8822
 6605TIP3   OH241305   0.625   0.602   2.923 -0.8743  0.2125 -0.5385
 6605TIP3    H141306   0.610   0.610   3.018 -1.3994 -0.2170 -0.5791
 6605TIP3    H241307   0.608   0.689   2.889  1.2258  0.8811 -0.0049
 6606TIP3   OH241308   3.561   1.363   5.765  0.1098  0.0608  0.5770
 6606TIP3    H141309   3.510   1.444   5.776 -0.3887 -0.4343  2.0576
 6606TIP3    H241310   3.652   1.391   5.776  0.0002  0.5506  0.2804
 6607TIP3   OH241311   4.260   1.756   1.636  0.3240 -0.0672  0.2600
 6607TIP3    H141312   4.308   1.770   1.555  0.6634  2.0023  0.7658
 6607TIP3    H241313   4.256   1.661   1.646  1.3640 -0.3293 -1.5205
 6608TIP3   OH241314   1.248   5.324   3.222 -0.2957 -0.4440  0.1149
 6608TIP3    H141315   1.271   5.356   3.135 -0.1500  0.3513  0.4387
 6608TIP3    H241316   1.271   5.231   3.220  1.5652 -0.0153 -0.0652
 6609TIP3   OH241317   3.484   4.827  13.213  0.0615  0.3415 -0.3438
 6609TIP3    H141318   3.417   4.762  13.237  1.8660 -1.6670 -0.4612
 6609TIP3    H241319   3.515   4.799  13.127 -0.0862  2.2499 -1.0707
 6610TIP3   OH241320   2.296   2.947   3.181  0.0941  0.9474 -0.2178
 6610TIP3    H141321   2.330   2.861   3.205  0.5444  1.5469  1.4558
 6610TIP3    H241322   2.353   3.009   3.226  0.1156  2.1660 -1.8353
 6611TIP3   OH241323   6.482   1.397  14.487  0.3029 -0.0606 -0.2498
 6611TIP3    H141324   6.554   1.446  14.527 -1.1356  0.1614  2.2464
 6611TIP3    H241325   6.408   1.458  14.488 -0.8357 -1.3948  0.5088
 6612TIP3   OH241326   3.146   4.508   2.586 -0.0117  0.3232 -0.0677
 6612TIP3    H141327   3.198   4.586   2.607  0.3352 -0.4330  2.1403
 6612TIP3    H241328   3.060   4.527   2.623  0.3215 -0.6509  1.2696
 6613TIP3   OH241329   6.636   2.006  14.799 -0.1937 -0.6469  0.0762
 6613TIP3    H141330   6.659   2.040  14.712  0.0033 -1.1371 -0.0677
 6613TIP3    H241331   6.712   2.026  14.853 -1.9002  3.5962  1.3174
 6614TIP3   OH241332   0.296   5.817  13.736 -0.1162 -0.5169  0.0427
 6614TIP3    H141333   0.348   5.828  13.656  1.0228  0.2695  0.8679
 6614TIP3    H241334   0.215   5.864  13.718 -0.0594 -0.7161 -0.8085
 6615TIP3   OH241335   1.792   5.088   3.204 -0.3050  0.0798 -0.4292
 6615TIP3    H141336   1.744   5.026   3.259  1.1848 -2.3528 -1.6744
 6615TIP3    H241337   1.733   5.162   3.194 -1.8734 -0.7531  1.8185
 6616TIP3   OH241338   5.497   3.143   5.058  0.2448 -0.2637  0.6321
 6616TIP3    H141339   5.559   3.176   5.123 -0.5047 -1.4634  2.0268
 6616TIP3    H241340   5.548   3.082   5.005  1.2647  1.9024 -1.0241
 6617TIP3   OH241341   5.254   2.767   1.995  0.3827 -0.5042 -0.1986
 6617TIP3    H141342   5.300   2.825   2.055 -1.2214 -0.5299  1.1049
 6617TIP3    H241343   5.218   2.825   1.928 -0.1031 -0.1325  0.3741
 6618TIP3   OH241344   6.143   6.581   2.159 -0.1102  0.0707  0.3723
 6618TIP3    H141345   6.123   6.498   2.203 -0.4702 -0.0043  0.0704
 6618TIP3    H241346   6.229   6.567   2.120  0.4154  0.2838  1.4030
 6619TIP3   OH241347   6.356   0.934   2.176 -0.1837 -0.2742 -0.3093
 6619TIP3    H141348   6.404   0.926   2.093 -0.1327 -0.0944 -0.2979
 6619TIP3    H241349   6.408   0.882   2.238  0.0347 -0.0253 -0.2810
 6620TIP3   OH241350   1.823   3.719  10.452  0.3649  0.4512 -0.3813
 6620TIP3    H141351   1.864   3.792  10.497  3.1457 -1.0973 -0.2002
 6620TIP3    H241352   1.853   3.726  10.361 -1.7753  1.1454 -1.1063
 6621TIP3   OH241353   1.449   2.520  14.091 -0.2275  0.3281  0.4055
 6621TIP3    H141354   1.429   2.524  14.184 -1.4564 -0.9002  0.2296
 6621TIP3    H241355   1.524   2.460  14.084  0.4050  1.0702  0.6496
 6622TIP3   OH241356   5.226   3.761   3.640 -0.2876 -0.0931 -0.4417
 6622TIP3    H141357   5.207   3.811   3.561 -0.1276  2.4824  1.0715
 6622TIP3    H241358   5.236   3.826   3.709  1.1581 -2.1425  1.4332
 6623TIP3   OH241359   4.055   4.825   1.196  0.6958 -0.2979 -0.0304
 6623TIP3    H141360   4.072   4.885   1.124  0.8879 -0.7517 -0.3666
 6623TIP3    H241361   3.996   4.873   1.254  1.2439  0.3997 -0.0440
 6624TIP3   OH241362   5.249   4.078  13.743  0.1066 -0.1628  0.1560
 6624TIP3    H141363   5.259   3.986  13.766 -2.6433  0.0133  2.7669
 6624TIP3    H241364   5.159   4.100  13.770  0.4208  3.1259 -0.9663
 6625TIP3   OH241365   0.702   2.898  15.438 -0.4662  0.9144  0.3294
 6625TIP3    H141366   0.788   2.934  15.462 -0.3806  0.7499  0.2715
 6625TIP3    H241367   0.722   2.814  15.397 -0.6900  0.5103  1.0168
 6626TIP3   OH241368   6.506   3.207   1.979 -0.1886  0.1348 -0.5867
 6626TIP3    H141369   6.458   3.284   2.008  0.8000 -0.2113  2.2254
 6626TIP3    H241370   6.574   3.242   1.921 -0.3939  1.2522 -0.1774
 6627TIP3   OH241371   0.899   4.940   2.773 -0.2077 -0.3187 -0.5179
 6627TIP3    H141372   0.845   4.885   2.717 -1.9444  0.5353  0.2279
 6627TIP3    H241373   0.944   4.999   2.712 -2.0985  0.6280 -1.0816
 6628TIP3   OH241374   2.951   0.452   4.271  0.3132  0.0075 -0.0419
 6628TIP3    H141375   2.956   0.395   4.195 -0.3345 -0.5104  0.2913
 6628TIP3    H241376   2.976   0.538   4.238  1.6870 -0.5186 -0.4707
 6629TIP3   OH241377   0.484   4.053   6.216 -0.2571  0.2281 -0.3245
 6629TIP3    H141378   0.423   4.127   6.212 -1.6358 -0.8925 -0.7029
 6629TIP3    H241379   0.571   4.094   6.212 -0.9285  1.9284  1.1873
 6630TIP3   OH241380   0.561   0.863   5.501 -0.6023 -0.2622 -0.4476
 6630TIP3    H141381   0.545   0.818   5.583 -1.4789  1.4440  0.3752
 6630TIP3    H241382   0.646   0.905   5.512 -1.5754  1.6040  0.4336
 6631TIP3   OH241383   5.617   1.330  11.134 -0.3386  0.2407 -0.8544
 6631TIP3    H141384   5.626   1.257  11.195 -0.1549  1.1183  0.1917
 6631TIP3    H241385   5.699   1.378  11.142 -1.0410  1.4013 -0.4104
 6632TIP3   OH241386   5.475   0.349  11.565  0.1257 -0.1042  0.3508
 6632TIP3    H141387   5.465   0.338  11.660  2.2029  0.8696  0.7481
 6632TIP3    H241388   5.396   0.394  11.537 -0.1317  0.3708  1.7820
 6633TIP3   OH241389   1.638   0.567   4.346  0.5386 -0.4973 -0.1419
 6633TIP3    H141390   1.545   0.591   4.348  0.4665 -0.1789 -3.0160
 6633TIP3    H241391   1.650   0.510   4.422 -1.5725  0.8147  1.2971
 6634TIP3   OH241392   2.896   3.930  14.499  0.9428 -0.0683 -0.0531
 6634TIP3    H141393   2.852   3.980  14.568 -1.0084 -1.0293 -0.5636
 6634TIP3    H241394   2.906   3.993  14.427 -1.3164 -0.2923 -0.6185
 6635TIP3   OH241395   6.702   2.495  12.750  0.4030 -0.1643  0.0403
 6635TIP3    H141396   6.635   2.544  12.797 -0.0802 -2.1649  1.5434
 6635TIP3    H241397   6.736   2.557  12.686 -1.4602  1.5300  0.5956
 6636TIP3   OH241398   6.027   4.173  16.276 -0.1913  0.4694  0.2879
 6636TIP3    H141399   5.937   4.188  16.306 -1.0723  0.6175 -2.1801
 6636TIP3    H241400   6.072   4.137  16.352 -1.7306  2.4338  2.2495
 6637TIP3   OH241401   2.915   2.123   1.476 -0.3827 -1.0387 -0.3625
 6637TIP3    H141402   2.908   2.075   1.558 -1.6372 -0.7713 -0.2855
 6637TIP3    H241403   2.829   2.164   1.465  0.5384  0.9428 -0.5661
 6638TIP3   OH241404   6.234   0.357  11.005  0.2067 -0.6344 -0.1571
 6638TIP3    H141405   6.187   0.385  10.926  0.4974 -0.1808 -0.1744
 6638TIP3    H241406   6.270   0.271  10.983  1.3829  0.0470 -0.9904
 6639TIP3   OH241407   4.886   1.698  14.718  0.3662  0.3431  0.0324
 6639TIP3    H141408   4.845   1.773  14.762  1.1572 -0.5393  2.4113
 6639TIP3    H241409   4.813   1.649  14.680 -0.5573  0.1853  1.9367
 6640TIP3   OH241410   5.208   6.703   0.682 -0.5300 -0.3200 -0.0885
 6640TIP3    H141411   5.303   6.692   0.692  0.0663  3.4884 -0.2381
 6640TIP3    H241412   5.177   6.725   0.770 -0.5942  2.0056 -0.6424
 6641TIP3   OH241413   5.020   5.217   4.176  0.1601 -0.5969 -0.0379
 6641TIP3    H141414   5.038   5.311   4.166  1.9077 -0.9055 -0.1693
 6641TIP3    H241415   5.103   5.181   4.207 -1.4792 -1.5446  3.8137
 6642TIP3   OH241416   2.728   2.535   0.948 -0.0297 -0.1599 -0.2737
 6642TIP3    H141417   2.679   2.529   1.030  1.0431 -1.2810  0.3119
 6642TIP3    H241418   2.772   2.451   0.940 -0.1706 -0.1019 -2.0583
 6643TIP3   OH241419   0.233   2.275   0.034 -0.2748 -0.4114  0.5091
 6643TIP3    H141420   0.188   2.265  -0.049 -0.8580 -0.6753  0.8543
 6643TIP3    H241421   0.215   2.194   0.082  1.8882 -1.2386  0.0435
 6644TIP3   OH241422   3.699   1.867  13.208 -0.2248  0.4530 -0.4417
 6644TIP3    H141423   3.777   1.910  13.172 -1.0112  0.9257 -1.6496
 6644TIP3    H241424   3.633   1.937  13.213 -0.8985 -0.1684 -0.4481
 6645TIP3   OH241425   2.662   5.047  12.058 -0.0156 -0.6045 -0.0750
 6645TIP3    H141426   2.687   5.026  11.968 -0.4909 -0.2678 -0.2917
 6645TIP3    H241427   2.610   5.127  12.050  0.5409 -0.1636  0.5724
 6646TIP3   OH241428   1.506   3.213   1.789  0.3161 -0.6354  0.0400
 6646TIP3    H141429   1.589   3.169   1.810  0.5205 -0.4140 -0.3015
 6646TIP3    H241430   1.505   3.219   1.694 -0.3719 -1.1617  0.0104
 6647TIP3   OH241431   1.166   4.887  14.953 -0.1282 -0.4227 -0.1515
 6647TIP3    H141432   1.140   4.962  15.006  1.3889 -0.8836  1.3320
 6647TIP3    H241433   1.092   4.873  14.893 -1.4010  0.8385  1.0483
 6648TIP3   OH241434   3.700   3.551  12.905 -0.1876 -0.0137 -0.6750
 6648TIP3    H141435   3.612   3.585  12.920 -0.0857  0.7003 -1.6205
 6648TIP3    H241436   3.721   3.575  12.815  0.5758 -1.0917 -0.8077
 6649TIP3   OH241437   0.612   1.335  14.818 -0.5768  0.8713  0.2955
 6649TIP3    H141438   0.622   1.424  14.783 -2.2310  1.0848  0.2529
 6649TIP3    H241439   0.606   1.279  14.741  0.8783  0.6337  0.3236
 6650TIP3   OH241440   2.820   2.257   0.997 -0.3900  0.5412  0.8547
 6650TIP3    H141441   2.754   2.244   0.930 -0.0186  1.7014  0.2439
 6650TIP3    H241442   2.855   2.169   1.014 -0.3396  0.2563 -0.6174
 6651TIP3   OH241443   3.815   0.614   3.671  0.6825 -0.3871 -0.0545
 6651TIP3    H141444   3.766   0.572   3.601 -0.8296  0.2640  0.5668
 6651TIP3    H241445   3.769   0.696   3.687 -0.1191 -1.2469  2.8101
 6652TIP3   OH241446   0.981   6.152  11.674 -0.0144 -0.0519  0.4272
 6652TIP3    H141447   0.938   6.235  11.655  0.0032 -0.2106 -0.3459
 6652TIP3    H241448   1.029   6.131  11.594  2.5550  0.7366  1.6496
 6653TIP3   OH241449   2.061   3.966  13.314 -0.0612 -0.4033  0.0124
 6653TIP3    H141450   1.970   3.975  13.287 -0.4018  0.5778  1.3830
 6653TIP3    H241451   2.102   4.049  13.288  0.1790 -0.4116  0.3656
 6654TIP3   OH241452   5.576   3.887   2.637  0.1005 -0.5466  0.4247
 6654TIP3    H141453   5.651   3.941   2.611 -0.6588  0.4767  0.2892
 6654TIP3    H241454   5.603   3.798   2.616  0.0412  0.0668 -2.8740
 6655TIP3   OH241455   2.242   5.974   4.724 -0.1785  0.0559  0.0937
 6655TIP3    H141456   2.220   5.962   4.632 -0.2984  1.9380 -0.1677
 6655TIP3    H241457   2.159   5.998   4.766  0.0419  0.1230  0.5001
 6656TIP3   OH241458   1.971   1.414   2.445 -0.2611 -0.0004 -0.0086
 6656TIP3    H141459   1.877   1.430   2.438 -0.1809  0.2369 -0.6531
 6656TIP3    H241460   1.993   1.365   2.366  0.1018 -0.3227  0.2923
 6657TIP3   OH241461   4.392   6.623  13.981  0.1587  0.4871 -0.2754
 6657TIP3    H141462   4.344   6.593  13.904 -0.3496  0.0663  0.2005
 6657TIP3    H241463   4.434   6.705  13.953 -1.0674  1.0169 -0.6112
 6658TIP3   OH241464   2.673   4.128  13.435 -0.4167 -0.2022  0.5237
 6658TIP3    H141465   2.590   4.090  13.405 -0.9092  1.5579 -0.5231
 6658TIP3    H241466   2.658   4.149  13.527 -1.2217  0.2705  0.2987
 6659TIP3   OH241467   4.357   3.732  16.171 -0.1002  0.4614 -0.7627
 6659TIP3    H141468   4.415   3.800  16.137  0.7732 -0.0813 -0.3704
 6659TIP3    H241469   4.298   3.712  16.098  0.4994  0.6785 -1.3142
 6660TIP3   OH241470   2.437   3.539   0.515  0.3622 -0.0359 -0.0623
 6660TIP3    H141471   2.411   3.632   0.512 -0.5753 -0.2803 -0.0337
 6660TIP3    H241472   2.405   3.504   0.432  1.6498 -0.1169 -0.5485
 6661TIP3   OH241473   4.587   0.180  16.933 -0.3900 -0.1694  0.3953
 6661TIP3    H141474   4.644   0.103  16.939  3.7048  2.6227  1.8120
 6661TIP3    H241475   4.596   0.209  16.842 -0.0070 -0.0708  0.4618
 6662TIP3   OH241476   4.531   2.061   0.589  0.5016 -0.3070  0.4222
 6662TIP3    H141477   4.558   2.123   0.656  0.5645  0.0179  0.0998
 6662TIP3    H241478   4.612   2.021   0.559  0.4566 -0.5763  0.6609
 6663TIP3   OH241479   3.480   5.508   5.206  0.2426  0.3115 -0.0130
 6663TIP3    H141480   3.520   5.594   5.211  0.4788  0.1459  2.4909
 6663TIP3    H241481   3.514   5.470   5.125  0.3761  2.4175 -1.0023
 6664TIP3   OH241482   2.533   0.895   3.490  0.0658  0.1175 -0.2271
 6664TIP3    H141483   2.443   0.894   3.524  0.0155  2.4473 -0.1369
 6664TIP3    H241484   2.523   0.881   3.396 -0.2794 -0.6298 -0.0914
 6665TIP3   OH241485   3.453   4.664  12.860 -0.1518 -0.0033  0.3608
 6665TIP3    H141486   3.374   4.719  12.863  0.9262  1.8508 -2.0712
 6665TIP3    H241487   3.421   4.579  12.832 -1.5536  0.0538  1.6634
 6666TIP3   OH241488   0.021   2.295  16.878 -0.4063  0.5567 -0.5781
 6666TIP3    H141489  -0.069   2.326  16.881 -0.4383  0.4159  1.8389
 6666TIP3    H241490   0.015   2.201  16.894  0.1045  0.2934 -1.8003
 6667TIP3   OH241491   0.948   4.373   1.801 -0.2167 -0.7269 -0.2960
 6667TIP3    H141492   0.865   4.326   1.794 -0.9171  0.4776 -0.4742
 6667TIP3    H241493   0.943   4.440   1.733  0.4607  0.0038  0.3576
 6668TIP3   OH241494   3.895   0.013  12.679 -0.1857 -0.6707  0.3210
 6668TIP3    H141495   3.806   0.028  12.646  0.0782 -0.5922 -0.3887
 6668TIP3    H241496   3.935  -0.046  12.614  0.0413 -1.3099  1.0284
 6669TIP3   OH241497   3.861   2.877   0.292  0.1340 -0.2704 -0.3331
 6669TIP3    H141498   3.931   2.840   0.238 -0.2382 -0.0908 -0.9403
 6669TIP3    H241499   3.844   2.963   0.254 -1.3592 -0.8506 -1.0502
 6670TIP3   OH241500   2.016   5.008   4.884 -0.4365  0.0831  0.3912
 6670TIP3    H141501   1.923   5.030   4.881 -0.2768  0.7550  0.2344
 6670TIP3    H241502   2.033   4.985   4.975 -0.5790  0.7563  0.5911
 6671TIP3   OH241503   5.169   4.293   3.113  0.7250 -0.0222 -0.5205
 6671TIP3    H141504   5.232   4.347   3.064 -1.0022  1.2435 -1.4570
 6671TIP3    H241505   5.149   4.221   3.053  0.1245  0.4386 -0.8909
 6672TIP3   OH241506   5.448   3.120  10.739 -0.1181 -0.0287 -0.4589
 6672TIP3    H141507   5.450   3.028  10.712 -0.9245 -0.6427  1.4500
 6672TIP3    H241508   5.453   3.118  10.834 -0.3850  1.9042 -0.3586
 6673TIP3   OH241509   1.060   2.372   1.957 -0.1692 -0.7607  0.1776
 6673TIP3    H141510   1.141   2.421   1.942  0.4729 -2.3923 -2.4737
 6673TIP3    H241511   1.020   2.413   2.033  2.1277  1.4249  0.3250
 6674TIP3   OH241512   3.968   6.011   5.901  0.7763  0.0179  0.3148
 6674TIP3    H141513   3.890   6.008   5.845 -0.3428  0.4745  1.8008
 6674TIP3    H241514   3.940   5.974   5.984  2.8548 -2.2000  0.1587
 6675TIP3   OH241515   0.738   0.754  16.219  0.1203  0.2381 -0.3673
 6675TIP3    H141516   0.690   0.698  16.158 -0.3495 -1.2640  1.2883
 6675TIP3    H241517   0.804   0.696  16.258 -1.2300  0.3942  2.3659
 6676TIP3   OH241518   5.097   3.366  12.217 -0.3305  0.0635  0.0275
 6676TIP3    H141519   5.060   3.418  12.288 -1.0024 -0.3901  0.0217
 6676TIP3    H241520   5.190   3.386  12.218 -0.1961 -0.4896  1.5207
 6677TIP3   OH241521   1.059   5.961  11.435  0.5185 -0.0020 -0.2230
 6677TIP3    H141522   1.018   5.943  11.351 -0.3453  2.8195 -0.5319
 6677TIP3    H241523   1.010   5.908  11.498  0.0468 -0.8560 -1.2810
 6678TIP3   OH241524   0.212   6.720   1.584  0.3275 -0.1193 -0.5832
 6678TIP3    H141525   0.133   6.773   1.571  0.3135 -0.2658 -1.1438
 6678TIP3    H241526   0.272   6.751   1.516  0.5444 -0.4006 -0.5191
 6679TIP3   OH241527   5.394   6.574   0.885 -0.4098  0.1627 -0.6647
 6679TIP3    H141528   5.435   6.489   0.905 -1.1938 -0.4297 -1.4795
 6679TIP3    H241529   5.429   6.598   0.799  0.7656  1.2964  0.1021
 6680TIP3   OH241530   1.646   3.570  15.117 -0.1938 -0.1372 -0.2175
 6680TIP3    H141531   1.718   3.563  15.055 -0.8174  2.1847 -1.2955
 6680TIP3    H241532   1.671   3.642  15.175 -1.6494  0.7750 -0.6754
 6681TIP3   OH241533   6.344   3.286  16.252 -0.6299  0.7885 -0.2733
 6681TIP3    H141534   6.344   3.362  16.193 -1.0081  0.8725 -0.1679
 6681TIP3    H241535   6.421   3.235  16.225  1.2750  2.5643  1.4147
 6682TIP3   OH241536   3.246   5.108  13.833 -0.0849 -0.3469  0.5229
 6682TIP3    H141537   3.207   5.021  13.829 -0.1823 -0.4437  2.7205
 6682TIP3    H241538   3.172   5.167  13.848  0.1789 -0.0615  0.7073
 6683TIP3   OH241539   2.477   6.146  16.233 -0.3734 -0.7368 -0.2419
 6683TIP3    H141540   2.387   6.153  16.202 -0.1477 -0.9408 -0.9710
 6683TIP3    H241541   2.526   6.111  16.158  0.2038 -1.1871  0.3311
 6684TIP3   OH241542   3.191   4.240  15.927 -0.1167 -0.5889  0.2966
 6684TIP3    H141543   3.139   4.307  15.883 -1.5397 -1.4315  0.6374
 6684TIP3    H241544   3.166   4.247  16.019  0.4396 -0.9691  0.4830
 6685TIP3   OH241545   4.147   1.408   3.132  0.1826  0.5755 -0.2441
 6685TIP3    H141546   4.100   1.382   3.211 -0.0069  0.8448 -0.2690
 6685TIP3    H241547   4.105   1.359   3.062 -0.8647  1.7409 -0.4418
 6686TIP3   OH241548   0.516   6.651  11.433 -0.3259 -0.4496  0.5638
 6686TIP3    H141549   0.514   6.558  11.411 -0.1178 -0.2878 -0.1779
 6686TIP3    H241550   0.426   6.672  11.459 -0.1400 -1.0852  1.7650
 6687TIP3   OH241551   1.991   2.643   1.533  0.1657  0.1198  0.0345
 6687TIP3    H141552   1.972   2.602   1.618 -1.4098 -0.2518 -0.4574
 6687TIP3    H241553   2.031   2.574   1.481 -0.1093 -0.0509  0.0476
 6688TIP3   OH241554   6.533   6.685  11.237  0.6350 -0.0556 -0.2362
 6688TIP3    H141555   6.530   6.772  11.198 -1.8028 -0.0297 -0.1278
 6688TIP3    H241556   6.583   6.696  11.318 -0.2816  1.4347  0.1622
 6689TIP3   OH241557   3.882   6.367  13.057  0.0599 -0.7598  0.4881
 6689TIP3    H141558   3.827   6.305  13.105 -0.3002 -1.2688 -0.5443
 6689TIP3    H241559   3.954   6.313  13.022 -1.1974 -1.0147 -1.9140
 6690TIP3   OH241560   4.697   4.932  12.246  0.4221 -0.1825 -0.5906
 6690TIP3    H141561   4.631   4.913  12.179  0.1311 -1.1628 -0.0419
 6690TIP3    H241562   4.772   4.964  12.197  0.2017 -0.8568 -1.3898
 6691TIP3   OH241563   0.430   2.755  14.711  0.2009 -0.0323 -0.0670
 6691TIP3    H141564   0.354   2.808  14.735  0.2512  0.5458 -1.1329
 6691TIP3    H241565   0.494   2.818  14.679  0.7293 -0.6250 -0.1893
 6692TIP3   OH241566   1.160   1.947   0.266 -0.0831 -0.9664 -0.0327
 6692TIP3    H141567   1.176   1.861   0.304  2.3370 -0.0399  1.3349
 6692TIP3    H241568   1.077   1.975   0.304 -0.2190 -2.1466  0.5757
 6693TIP3   OH241569   5.972   0.907  11.093 -0.3371  0.1711  0.2494
 6693TIP3    H141570   5.963   0.890  10.999  0.8421 -1.1862  0.3604
 6693TIP3    H241571   6.005   0.825  11.130  0.8743  1.2123  1.5955
 6694TIP3   OH241572   1.887   1.389   3.733 -0.1723  0.3762 -0.2706
 6694TIP3    H141573   1.858   1.319   3.675  0.4164  0.1018 -0.2492
 6694TIP3    H241574   1.927   1.343   3.807  0.7695  0.7231 -0.5397
 6695TIP3   OH241575   5.102   2.832   1.315 -0.0827 -0.3582  0.2143
 6695TIP3    H141576   5.132   2.780   1.239  1.6687  0.9623 -0.0633
 6695TIP3    H241577   5.183   2.863   1.355 -1.0615  1.9907  0.4844
 6696TIP3   OH241578   1.139   0.875   4.313  0.0167 -0.3675 -0.0634
 6696TIP3    H141579   1.195   0.951   4.327 -1.2106  0.6927 -0.6752
 6696TIP3    H241580   1.117   0.845   4.402  0.6556 -0.1345  0.1806
 6697TIP3   OH241581   2.224   6.006  11.328  0.5951 -0.0906 -0.9237
 6697TIP3    H141582   2.196   5.915  11.329  0.9575 -0.2591 -2.5647
 6697TIP3    H241583   2.318   6.002  11.308  0.9401  0.6074  0.4529
 6698TIP3   OH241584   1.051   4.628  13.729  0.4566  0.3972 -0.4345
 6698TIP3    H141585   1.024   4.559  13.669  1.8437 -1.1428  0.6387
 6698TIP3    H241586   1.118   4.677  13.681 -0.0327  0.5689 -0.9469
 6699TIP3   OH241587   1.686   6.788  15.386  0.2171  0.1896 -0.7295
 6699TIP3    H141588   1.722   6.855  15.328  0.2463  0.3340 -0.5449
 6699TIP3    H241589   1.683   6.708  15.332 -0.8692  0.6012 -1.3038
 6700TIP3   OH241590   4.315   5.084   3.453 -0.2054  0.1516  0.5382
 6700TIP3    H141591   4.267   5.059   3.374  0.2912  1.4187 -0.1989
 6700TIP3    H241592   4.258   5.147   3.497  0.2028  0.6653  0.3411
 6701TIP3   OH241593   2.613   2.564   0.424 -0.4705 -0.4166  0.2891
 6701TIP3    H141594   2.705   2.558   0.398 -0.9793 -2.1099 -1.3670
 6701TIP3    H241595   2.616   2.590   0.516  1.5590  2.1737 -0.4019
 6702TIP3   OH241596   5.037   1.886  11.831 -0.1596  0.4945 -0.0206
 6702TIP3    H141597   5.030   1.856  11.740 -0.3342 -1.6844  0.6396
 6702TIP3    H241598   4.971   1.955  11.839 -2.6041 -1.5630 -0.7521
 6703TIP3   OH241599   1.135   6.395  11.083 -0.0770  0.1324 -0.0522
 6703TIP3    H141600   1.223   6.419  11.112  0.5800  0.1152 -1.9132
 6703TIP3    H241601   1.128   6.302  11.104 -0.5398  0.6221  2.1531
 6704TIP3   OH241602   3.016   1.252  15.549  0.2305 -0.3179  0.2385
 6704TIP3    H141603   3.087   1.306  15.583 -1.5504  0.7130  2.6716
 6704TIP3    H241604   3.003   1.282  15.459  0.3335  2.2680  1.0163
 6705TIP3   OH241605   1.087   5.827  13.368  0.6583  0.0059 -0.1500
 6705TIP3    H141606   1.094   5.807  13.274 -3.2690 -0.7524 -0.4159
 6705TIP3    H241607   1.134   5.755  13.411 -0.2070 -1.4369 -1.5001
 6706TIP3   OH241608   5.468   3.831   0.389 -0.1046  0.5797  0.2872
 6706TIP3    H141609   5.379   3.796   0.391 -0.8700  2.3857 -0.1429
 6706TIP3    H241610   5.485   3.858   0.479  0.7683 -1.4036  0.7881
 6707TIP3   OH241611   0.700   0.492  16.861 -0.5785  0.2429  0.3174
 6707TIP3    H141612   0.709   0.545  16.781 -1.5645  0.8631  0.6022
 6707TIP3    H241613   0.771   0.523  16.918 -0.1722  0.1433 -0.1233
 6708TIP3   OH241614   2.924   3.861  11.286  0.0116  0.0822  0.3951
 6708TIP3    H141615   2.864   3.931  11.258 -2.0110 -1.3222  0.9958
 6708TIP3    H241616   2.871   3.806  11.343  1.7598 -1.5693  0.5050
 6709TIP3   OH241617   3.486   2.219  11.765  0.1839  0.1418  0.0622
 6709TIP3    H141618   3.569   2.203  11.809  0.3258  0.0276 -0.2451
 6709TIP3    H241619   3.446   2.133  11.756  0.0943  0.1808  0.0817
 6710TIP3   OH241620   5.711   6.470  16.360  0.4328 -0.1958 -0.7390
 6710TIP3    H141621   5.689   6.502  16.273  0.3274 -2.0059 -1.4331
 6710TIP3    H241622   5.641   6.409  16.381  2.1527 -2.3775 -0.9139
 6711TIP3   OH241623   6.067   5.189   4.347 -0.1639 -0.0410 -0.8240
 6711TIP3    H141624   6.109   5.221   4.427  0.4650  0.2944 -1.2751
 6711TIP3    H241625   5.976   5.172   4.372 -0.3852  1.5790 -0.4321
 6712TIP3   OH241626   2.573   5.206   5.469  0.1129  0.0720  0.5068
 6712TIP3    H141627   2.646   5.228   5.527 -0.7030 -0.7456  1.8924
 6712TIP3    H241628   2.605   5.130   5.419  0.8488  0.8332 -0.2156
 6713TIP3   OH241629   5.516   6.372  14.263  0.3211 -0.2354  0.5628
 6713TIP3    H141630   5.552   6.291  14.228  0.6160  0.7558 -1.5545
 6713TIP3    H241631   5.567   6.442  14.222 -0.4031  1.0639  1.7677
 6714TIP3   OH241632   3.184   6.075   4.182  0.5808  0.0618  0.8607
 6714TIP3    H141633   3.210   5.983   4.182  1.5625  0.2116 -2.6091
 6714TIP3    H241634   3.265   6.123   4.163  0.1847  1.7635  3.0471
 6715TIP3   OH241635   4.730   5.620   4.549 -0.1759  0.0695  0.2558
 6715TIP3    H141636   4.676   5.677   4.494 -0.2504  0.6365  0.9042
 6715TIP3    H241637   4.707   5.532   4.521 -0.1980  0.3457 -0.6360
 6716TIP3   OH241638   5.784   1.003  16.735  0.0133 -0.7537  0.1680
 6716TIP3    H141639   5.861   0.995  16.679  1.3422 -1.7223  2.0339
 6716TIP3    H241640   5.724   0.937  16.702  0.1671 -0.3506 -0.9778
 6717TIP3   OH241641   4.337   3.583   1.257  0.0851 -0.0309 -0.7577
 6717TIP3    H141642   4.400   3.512   1.244  0.3534  0.0410  0.0457
 6717TIP3    H241643   4.376   3.637   1.326 -0.0586  0.9719 -1.4445
 6718TIP3   OH241644   3.770   0.438   3.995  0.0823 -0.4589  0.1481
 6718TIP3    H141645   3.812   0.448   3.909 -1.3202 -0.5088 -0.5774
 6718TIP3    H241646   3.802   0.355   4.028  0.6987 -0.4045 -0.2922
 6719TIP3   OH241647   5.087   6.006   0.912  0.1941 -0.0372  1.1804
 6719TIP3    H141648   5.096   5.977   0.821  0.6927 -0.0997  1.2479
 6719TIP3    H241649   5.011   5.957   0.945  0.1102 -0.1352  0.8461
 6720TIP3   OH241650   3.233   2.795  12.806  0.0834  0.0962  0.1797
 6720TIP3    H141651   3.266   2.755  12.886  2.1945  0.3684 -0.4910
 6720TIP3    H241652   3.212   2.885  12.831  1.3732  0.3772  0.3148
 6721TIP3   OH241653   3.466   0.367  14.104 -0.1216 -0.2318 -0.0730
 6721TIP3    H141654   3.497   0.311  14.175  1.4067 -0.7941 -1.1245
 6721TIP3    H241655   3.535   0.433  14.094  0.2597 -0.8483 -1.7789
 6722TIP3   OH241656   5.348   5.779  14.764 -0.8050 -0.0292 -0.5722
 6722TIP3    H141657   5.299   5.747  14.840 -1.7672  0.9842 -0.7461
 6722TIP3    H241658   5.385   5.700  14.725 -1.5717 -0.7271  0.0773
 6723TIP3   OH241659   1.135   1.272  10.371 -0.1400 -0.0924  0.2103
 6723TIP3    H141660   1.050   1.246  10.406 -0.3485  0.3674  0.0530
 6723TIP3    H241661   1.120   1.281  10.277  0.1477 -0.2651  0.1472
 6724TIP3   OH241662   1.052   4.464   0.343 -0.5040  0.4285  0.6403
 6724TIP3    H141663   1.121   4.452   0.408 -1.4516 -1.7405  1.3380
 6724TIP3    H241664   1.097   4.500   0.267  0.9756  1.2174  1.8191
 6725TIP3   OH241665   4.552   3.740   0.451 -0.2274 -0.0419 -0.4824
 6725TIP3    H141666   4.634   3.781   0.478  0.3689 -0.4446 -1.6454
 6725TIP3    H241667   4.485   3.788   0.500  0.4242  2.3056 -1.7409
 6726TIP3   OH241668   6.569   3.031  10.544 -0.2839 -0.1543 -0.3839
 6726TIP3    H141669   6.636   3.098  10.561 -0.5379 -0.5488  2.7209
 6726TIP3    H241670   6.494   3.081  10.513 -0.5086  1.1408  1.9861
 6727TIP3   OH241671   5.491   3.883   1.039  0.0207  0.2050  0.0967
 6727TIP3    H141672   5.503   3.968   1.081 -0.8060  0.5091 -0.2365
 6727TIP3    H241673   5.527   3.820   1.100  0.4379  0.7770  0.4554
 6728TIP3   OH241674   1.825   2.681   2.980  0.2041  0.0693 -0.1296
 6728TIP3    H141675   1.785   2.728   2.907  1.6762  2.9572  0.7782
 6728TIP3    H241676   1.828   2.590   2.951  0.6815  1.0578 -3.6366
 6729TIP3   OH241677   6.329   2.552  13.816 -0.0878 -0.1343  0.4897
 6729TIP3    H141678   6.335   2.619  13.748  0.1372  0.8006  1.4035
 6729TIP3    H241679   6.271   2.590  13.883 -1.8006 -1.7682  0.0211
 6730TIP3   OH241680   6.357   2.480  15.824  0.5816  0.3355  0.1898
 6730TIP3    H141681   6.270   2.507  15.795  0.6462 -0.4841 -0.8402
 6730TIP3    H241682   6.361   2.386  15.805  2.3034  0.6732 -1.4458
 6731TIP3   OH241683   2.484   0.622  13.015  0.5038 -0.1559  0.5830
 6731TIP3    H141684   2.389   0.614  13.007  0.5066  0.9753 -1.0067
 6731TIP3    H241685   2.498   0.710  13.049  1.0069  0.3362 -0.8266
 6732TIP3   OH241686   3.304   0.101  14.814  0.2758 -0.0193 -0.2412
 6732TIP3    H141687   3.350   0.183  14.830  0.0770  0.3173 -1.3270
 6732TIP3    H241688   3.218   0.127  14.783 -0.3002 -0.6488  0.7811
 6733TIP3   OH241689   5.375   0.727   4.279 -0.0433  0.4000  0.1067
 6733TIP3    H141690   5.326   0.660   4.231 -0.3244  0.0402  0.8764
 6733TIP3    H241691   5.463   0.723   4.242 -0.4011  0.5667 -0.8054
 6734TIP3   OH241692   3.894   5.002   1.341 -0.9257  0.0243  0.4410
 6734TIP3    H141693   3.897   4.940   1.414 -3.1707  0.9171  1.3783
 6734TIP3    H241694   3.965   5.063   1.358  0.9260 -1.8340 -0.1594
 6735TIP3   OH241695   1.605   3.253  15.668  0.1523  0.3950  0.3057
 6735TIP3    H141696   1.610   3.179  15.608  0.7294  0.2146  0.5719
 6735TIP3    H241697   1.696   3.271  15.692 -0.0965  0.0877  1.5761
 6736TIP3   OH241698   0.933   2.484   2.658  0.0154 -0.5595 -0.1865
 6736TIP3    H141699   1.019   2.517   2.683  0.8384 -1.0506 -2.1559
 6736TIP3    H241700   0.911   2.419   2.725  0.5101  0.5668  1.1080
 6737TIP3   OH241701   3.702   1.964   6.232 -0.2899  0.5244  0.4255
 6737TIP3    H141702   3.613   1.999   6.234 -1.3275 -1.8731 -0.5622
 6737TIP3    H241703   3.755   2.035   6.195 -1.8382  1.8076  0.5499
 6738TIP3   OH241704   3.296   0.939  14.781 -0.4856 -0.1420 -0.5804
 6738TIP3    H141705   3.212   0.982  14.765  0.7661  2.1834 -1.4549
 6738TIP3    H241706   3.323   0.904  14.696  0.5201  1.3434 -0.9192
 6739TIP3   OH241707   6.352   4.831  14.550  0.5956 -0.3149 -0.0468
 6739TIP3    H141708   6.318   4.780  14.476  1.1845 -0.6378 -0.1011
 6739TIP3    H241709   6.395   4.906  14.509 -1.4541  0.9945  0.0802
 6740TIP3   OH241710   5.653   6.636  14.573 -0.3546  0.2110  0.4607
 6740TIP3    H141711   5.610   6.665  14.492  1.2606  0.1895 -0.4496
 6740TIP3    H241712   5.628   6.701  14.638 -0.1305  1.3376 -0.5435
 6741TIP3   OH241713   0.022   5.147   3.536 -0.7113  0.2365  0.2569
 6741TIP3    H141714  -0.040   5.082   3.505  0.3505  0.2933 -2.2016
 6741TIP3    H241715  -0.030   5.226   3.550 -1.6218 -0.4839  1.0501
 6742TIP3   OH241716   1.284   3.138  15.242 -0.4151  0.2676 -0.2965
 6742TIP3    H141717   1.199   3.121  15.283  0.0445  1.4376  1.2197
 6742TIP3    H241718   1.293   3.233  15.243  0.3065  0.2415 -1.7533
 6743TIP3   OH241719   5.028   5.082  15.673  0.4096  0.2930 -0.9715
 6743TIP3    H141720   5.007   5.169  15.638  2.0231  1.6227  1.1190
 6743TIP3    H241721   5.053   5.098  15.764 -0.5432 -2.5737 -0.1029
 6744TIP3   OH241722   4.163   2.460  16.285  0.0476  0.2676  0.5813
 6744TIP3    H141723   4.087   2.507  16.319  0.5621  1.9079 -0.3980
 6744TIP3    H241724   4.179   2.500  16.199  0.1190 -2.2195 -0.6515
 6745TIP3   OH241725   3.162   5.240   1.289  0.2814 -0.1777  0.7799
 6745TIP3    H141726   3.104   5.306   1.327 -0.5982  0.0332 -0.8058
 6745TIP3    H241727   3.146   5.161   1.340 -0.1094  0.3407  1.4698
 6746TIP3   OH241728   3.713   1.689   2.975  0.4319  0.1809 -0.0449
 6746TIP3    H141729   3.719   1.770   3.024  0.6556  0.0531  0.1400
 6746TIP3    H241730   3.642   1.704   2.912 -0.5315  0.0087  0.9561
 6747TIP3   OH241731   4.433   3.293   1.575  0.5608  0.8037  0.2984
 6747TIP3    H141732   4.470   3.206   1.561 -0.6371  0.0081  1.8452
 6747TIP3    H241733   4.505   3.353   1.555  1.8979 -0.5916  0.7422
 6748TIP3   OH241734   4.215   0.751  11.870 -0.5999  0.6001  0.1288
 6748TIP3    H141735   4.254   0.769  11.784  0.2628  2.1576  0.7968
 6748TIP3    H241736   4.121   0.743  11.853 -0.3814  0.3976 -1.0256
 6749TIP3   OH241737   4.988   2.152   6.375 -0.0337 -0.0068 -0.4571
 6749TIP3    H141738   5.074   2.162   6.334  0.2950 -1.0794 -0.0584
 6749TIP3    H241739   4.942   2.234   6.355  1.4810  1.0753  0.2982
 6750TIP3   OH241740   1.242   4.909  16.284 -0.0815  1.1281  0.0689
 6750TIP3    H141741   1.330   4.928  16.253 -1.0059  2.9232 -1.6822
 6750TIP3    H241742   1.198   4.866  16.211 -0.7086  0.3462  0.8744
 6751TIP3   OH241743   2.696   3.161  12.027 -0.3172 -0.0685  0.6722
 6751TIP3    H141744   2.620   3.175  11.970  0.1389 -1.6042 -0.3741
 6751TIP3    H241745   2.660   3.163  12.116 -1.6737 -1.1723  0.1866
 6752TIP3   OH241746   0.716   1.167   0.858  0.0055 -0.2193  0.0445
 6752TIP3    H141747   0.777   1.123   0.798  0.8987 -1.0635  1.5024
 6752TIP3    H241748   0.630   1.151   0.820  0.5889  4.0128 -4.1169
 6753TIP3   OH241749   3.802   4.799   1.786 -0.1217  0.0500 -0.0973
 6753TIP3    H141750   3.732   4.734   1.784 -0.2800  0.2309 -0.3533
 6753TIP3    H241751   3.758   4.882   1.805  0.3706 -0.3373  3.4544
 6754TIP3   OH241752   6.348   4.467  10.045 -0.4195 -0.3203  0.0529
 6754TIP3    H141753   6.290   4.441   9.974  2.2315 -1.0760 -1.9858
 6754TIP3    H241754   6.375   4.384  10.086  0.6081 -0.1354 -0.2218
 6755TIP3   OH241755   1.135   4.156   2.859 -0.1955  0.1743 -0.0897
 6755TIP3    H141756   1.041   4.172   2.851 -0.3058 -0.3339  0.1568
 6755TIP3    H241757   1.142   4.084   2.922  0.3204 -0.2278 -0.5855
 6756TIP3   OH241758   4.768   1.364  15.443 -0.7026  0.6900  0.1208
 6756TIP3    H141759   4.714   1.413  15.505  0.3999  2.3556 -0.1586
 6756TIP3    H241760   4.764   1.274  15.473 -3.5746  0.7375  0.1392
 6757TIP3   OH241761   4.375   3.302   3.345  0.0164  0.2357  0.7788
 6757TIP3    H141762   4.444   3.248   3.382 -0.3103 -0.7224  0.0412
 6757TIP3    H241763   4.357   3.264   3.260 -1.0353  0.8027  0.7189
 6758TIP3   OH241764   0.687   1.479  10.984  0.2675  0.2972 -0.2847
 6758TIP3    H141765   0.606   1.430  10.972  0.5659 -0.3913  0.4353
 6758TIP3    H241766   0.740   1.458  10.907 -0.8379  2.0279 -1.5984
 6759TIP3   OH241767   3.277   4.510   4.880  0.1600  0.2635  1.0636
 6759TIP3    H141768   3.353   4.567   4.891  0.6649 -0.3400  0.7824
 6759TIP3    H241769   3.314   4.425   4.855 -0.5841 -0.1607  1.3642
 6760TIP3   OH241770   3.568   2.124  15.834  0.1784 -1.1458  0.2777
 6760TIP3    H141771   3.620   2.192  15.791 -2.0505  0.1051 -0.6487
 6760TIP3    H241772   3.529   2.075  15.761 -0.3773 -1.6811  0.9289
 6761TIP3   OH241773   4.944   1.509  16.588 -0.6364  0.0547 -0.0885
 6761TIP3    H141774   4.975   1.438  16.531  0.2193  0.7857 -0.5409
 6761TIP3    H241775   5.007   1.580  16.575 -0.4424  0.2625  1.7314
 6762TIP3   OH241776   5.325   2.737  12.856 -0.3551 -0.6596 -0.0160
 6762TIP3    H141777   5.307   2.830  12.869 -1.6761 -0.9968  0.7765
 6762TIP3    H241778   5.357   2.730  12.766  0.0140  0.5837  0.0066
 6763TIP3   OH241779   3.469   6.493   5.604 -0.4368 -0.3032  0.6004
 6763TIP3    H141780   3.447   6.554   5.675 -1.2321 -0.1783  0.2524
 6763TIP3    H241781   3.392   6.437   5.595  0.2038 -1.2347  0.7643
 6764TIP3   OH241782   2.119   4.307   1.303  0.2254  0.5945 -0.0436
 6764TIP3    H141783   2.039   4.256   1.318  0.4184  0.4896  0.6512
 6764TIP3    H241784   2.136   4.350   1.387  1.2970  0.0517  0.0256
 6765TIP3   OH241785   3.042   1.025  14.739  0.2442  0.2337 -0.3691
 6765TIP3    H141786   2.987   1.000  14.665 -0.5281  2.1564 -0.4781
 6765TIP3    H241787   2.983   1.068  14.800  1.2168  0.3137  0.5520
 6766TIP3   OH241788   1.167   5.257  11.275 -0.0323  0.1323 -0.4779
 6766TIP3    H141789   1.200   5.291  11.192 -1.3544  1.5952 -0.4411
 6766TIP3    H241790   1.071   5.265  11.268 -0.2693 -1.4324  0.4791
 6767TIP3   OH241791   1.991   0.470  13.490  0.2830  0.0368  0.5621
 6767TIP3    H141792   2.008   0.406  13.421 -0.7151  0.9719 -0.6100
 6767TIP3    H241793   2.068   0.465  13.547  1.1124 -0.8120 -0.5764
 6768TIP3   OH241794   3.562   4.046  11.078 -0.1703  0.5852 -0.0033
 6768TIP3    H141795   3.508   4.060  11.000  0.0250  0.0106 -0.2519
 6768TIP3    H241796   3.501   4.049  11.151 -0.1318  2.7495 -0.0146
 6769TIP3   OH241797   4.188   1.495  14.107  0.4668 -0.2318 -0.0389
 6769TIP3    H141798   4.261   1.493  14.045  1.0161  0.4904  0.5701
 6769TIP3    H241799   4.210   1.430  14.173  1.3676  1.0987  1.0142
 6770TIP3   OH241800   0.100   3.074  15.671 -0.1456  0.0614 -0.2697
 6770TIP3    H141801   0.123   3.026  15.592 -0.8114 -0.5991 -0.0799
 6770TIP3    H241802   0.156   3.037  15.740 -1.1381 -0.9609  0.0208
 6771TIP3   OH241803   3.438   5.364  11.970  0.4087  1.0134  0.2932
 6771TIP3    H141804   3.492   5.343  11.894  0.4472 -1.3237  0.8680
 6771TIP3    H241805   3.349   5.366  11.937  0.3434 -0.7773  0.2575
 6772TIP3   OH241806   2.839   3.798   3.790  0.5930 -1.0033 -0.2386
 6772TIP3    H141807   2.914   3.857   3.784  0.2084 -0.4548  0.2688
 6772TIP3    H241808   2.875   3.717   3.827  0.8567 -0.6068  0.3838
 6773TIP3   OH241809   1.021   3.256   0.477 -0.0905  0.1080  0.4511
 6773TIP3    H141810   0.936   3.215   0.461  0.5023 -0.9096 -0.1905
 6773TIP3    H241811   1.073   3.188   0.520  0.0710  1.0769  1.8326
 6774TIP3   OH241812   3.549   1.919   3.340 -0.1003 -0.4357 -0.2820
 6774TIP3    H141813   3.602   1.954   3.269 -0.8538 -1.1289 -1.2142
 6774TIP3    H241814   3.499   1.993   3.373  0.6926  0.0114 -0.0594
 6775TIP3   OH241815   5.152   0.632   5.743 -0.3901  0.2320 -0.3881
 6775TIP3    H141816   5.100   0.555   5.767 -2.6235  1.2802 -1.5751
 6775TIP3    H241817   5.117   0.703   5.797 -0.1378  0.9450 -1.1323
 6776TIP3   OH241818   6.647   4.154   2.315  0.8122 -0.5175  0.0798
 6776TIP3    H141819   6.567   4.121   2.275  0.7972 -0.4300  0.0369
 6776TIP3    H241820   6.693   4.198   2.244  0.5742  0.0277  0.2524
 6777TIP3   OH241821   1.145   5.905  16.199 -0.3894 -0.0696 -0.0346
 6777TIP3    H141822   1.180   5.905  16.288  0.7681 -0.8010 -0.4651
 6777TIP3    H241823   1.215   5.869  16.146 -0.9639  0.6191 -1.2992
 6778TIP3   OH241824   1.580   1.618   2.282 -0.3095 -0.5269 -0.5518
 6778TIP3    H141825   1.539   1.650   2.202  0.2491  2.3514  0.1802
 6778TIP3    H241826   1.507   1.607   2.343 -0.4338  0.7424 -0.4367
 6779TIP3   OH241827   4.579   2.794  11.755  0.0578 -0.2698  0.2009
 6779TIP3    H141828   4.565   2.881  11.718  0.4541  1.1299  3.0591
 6779TIP3    H241829   4.667   2.770  11.726 -0.1982  0.0745 -0.9265
 6780TIP3   OH241830   2.550   1.893   6.263  0.1264 -0.3383  0.1031
 6780TIP3    H141831   2.527   1.806   6.295 -0.0086 -1.5021 -2.8255
 6780TIP3    H241832   2.468   1.942   6.262  0.4100  0.3547  2.9697
 6781TIP3   OH241833   2.452   0.768  15.614  0.5745 -0.4961 -0.3354
 6781TIP3    H141834   2.363   0.744  15.589  0.1970 -0.4666  0.8986
 6781TIP3    H241835   2.450   0.864  15.616  1.0431 -0.4399 -1.6641
 6782TIP3   OH241836   1.041   1.199   4.001  0.1046 -0.1041  0.2058
 6782TIP3    H141837   0.980   1.171   4.069  0.1212 -0.7971 -0.0559
 6782TIP3    H241838   1.045   1.125   3.940  1.6386 -0.3253  0.5170
 6783TIP3   OH241839   1.153   5.629   6.053  0.5843  0.5685 -0.8565
 6783TIP3    H141840   1.139   5.704   6.112  1.7020 -0.1168  0.3377
 6783TIP3    H241841   1.065   5.602   6.028  0.0835  1.1059  0.2263
 6784TIP3   OH241842   4.411   3.035  16.894 -0.9656 -0.0841 -0.5055
 6784TIP3    H141843   4.409   2.963  16.832 -2.0555 -0.2762 -0.2746
 6784TIP3    H241844   4.424   3.114  16.840 -2.3273 -0.2009 -1.0417
 6785TIP3   OH241845   1.997   0.795   0.281 -0.2554 -0.7263 -0.0726
 6785TIP3    H141846   1.953   0.849   0.347 -1.3427 -0.5058 -0.9491
 6785TIP3    H241847   1.926   0.756   0.231  0.5499 -0.8866 -1.1276
 6786TIP3   OH241848   4.282   0.600  14.586 -0.3848  0.1342 -0.0266
 6786TIP3    H141849   4.306   0.622  14.496  1.2583  0.2855  0.4140
 6786TIP3    H241850   4.227   0.673  14.615  1.0354  1.2974 -0.1531
 6787TIP3   OH241851   5.857   3.262  16.026 -0.0864 -0.0615 -0.1193
 6787TIP3    H141852   5.941   3.229  16.056 -0.2527  1.0577  1.7170
 6787TIP3    H241853   5.794   3.231  16.093 -1.0164 -0.2099 -1.0329
 6788TIP3   OH241854   6.012   5.512  15.832  0.1649  0.0395 -0.7655
 6788TIP3    H141855   6.006   5.552  15.919 -0.0110 -0.2931 -0.6251
 6788TIP3    H241856   6.010   5.587  15.772  0.1530  0.2635 -0.4908
 6789TIP3   OH241857   0.746   2.217  11.724  0.5204 -0.1915  0.2176
 6789TIP3    H141858   0.764   2.283  11.657  0.0916  1.0685  1.3062
 6789TIP3    H241859   0.800   2.243  11.799  1.5016 -1.9486  0.1855
 6790TIP3   OH241860   5.252   5.160  12.361 -0.7692  0.5438 -0.0243
 6790TIP3    H141861   5.282   5.250  12.354  1.9399 -0.1758  0.9316
 6790TIP3    H241862   5.280   5.119  12.279 -1.3815  0.3932 -0.1655
 6791TIP3   OH241863   1.737   5.460   2.716 -0.0340  0.3637 -0.4796
 6791TIP3    H141864   1.649   5.499   2.722  1.3768  3.6870  1.9316
 6791TIP3    H241865   1.787   5.524   2.666  1.4880 -0.4142  0.0079
 6792TIP3   OH241866   0.772   1.131  11.992 -0.4484  0.4851  0.3585
 6792TIP3    H141867   0.735   1.095  11.912  1.8045 -0.4836 -0.3350
 6792TIP3    H241868   0.818   1.211  11.964  0.9974 -0.2671  0.5061
 6793TIP3   OH241869   2.610   2.563   2.577 -0.3603  0.5475  0.0577
 6793TIP3    H141870   2.668   2.638   2.560 -1.8484  1.4663 -1.1629
 6793TIP3    H241871   2.651   2.490   2.531  1.3967  0.4129  1.6994
 6794TIP3   OH241872   6.474   1.704   1.957 -0.2038  0.4530 -0.9821
 6794TIP3    H141873   6.408   1.769   1.934 -0.2893  0.9465  0.5475
 6794TIP3    H241874   6.426   1.638   2.008 -0.0040 -0.5307 -2.0281
 6795TIP3   OH241875   2.348   4.106  12.070 -0.1537  0.4630  0.3521
 6795TIP3    H141876   2.389   4.192  12.071  0.8582  0.0373 -1.2661
 6795TIP3    H241877   2.267   4.117  12.120 -0.6624  2.6655 -0.8545
 6796TIP3   OH241878   5.563   2.240  12.506  0.4600 -0.0240  0.3811
 6796TIP3    H141879   5.642   2.192  12.481  0.9750  0.3687  1.2026
 6796TIP3    H241880   5.572   2.325  12.462  0.7697  0.2139  0.8819
 6797TIP3   OH241881   5.645   2.800   3.839 -0.1571  0.0452 -0.4310
 6797TIP3    H141882   5.585   2.805   3.913 -1.1176  0.6383 -1.2298
 6797TIP3    H241883   5.616   2.869   3.780  1.1139  0.1229 -0.9931
 6798TIP3   OH241884   3.525   5.027   4.980 -0.4507  0.8063 -0.3833
 6798TIP3    H141885   3.512   5.027   5.075 -0.5748 -0.7793 -0.3830
 6798TIP3    H241886   3.615   5.060   4.969 -0.2692  0.5806  0.3124
 6799TIP3   OH241887   4.673   2.913  16.736 -0.1460 -0.7155  0.0739
 6799TIP3    H141888   4.722   2.865  16.804 -1.0061  0.2748  1.4343
 6799TIP3    H241889   4.682   3.005  16.760 -2.1356 -0.4639  0.0078
 6800TIP3   OH241890   2.959   3.876   0.070  0.4712  0.7592 -0.6399
 6800TIP3    H141891   3.049   3.849   0.050 -0.5157 -1.1317 -3.0178
 6800TIP3    H241892   2.904   3.814   0.022 -2.1780  1.1130  1.6581
 6801TIP3   OH241893   4.116   0.795   2.214 -0.2020  0.3408 -0.1909
 6801TIP3    H141894   4.195   0.791   2.268 -0.2834  0.2006 -0.0815
 6801TIP3    H241895   4.090   0.703   2.203 -1.0524  0.4508  0.7955
 6802TIP3   OH241896   3.074   1.191   3.834 -1.0019  0.3706 -0.0037
 6802TIP3    H141897   3.095   1.146   3.753  0.4437 -1.4368  1.2982
 6802TIP3    H241898   3.015   1.262   3.808 -3.1607 -2.0258 -2.2228
 6803TIP3   OH241899   2.115   4.979  12.628 -0.2177  0.3075  0.2399
 6803TIP3    H141900   2.092   4.995  12.536 -0.9106 -0.1957  0.3229
 6803TIP3    H241901   2.209   4.998  12.632 -0.4594  1.7630 -0.2440
 6804TIP3   OH241902   1.066   6.558   4.194 -0.1494  0.0947 -0.2598
 6804TIP3    H141903   1.084   6.631   4.136 -0.4474 -0.3622 -0.9373
 6804TIP3    H241904   1.142   6.501   4.187 -0.7986 -0.6697 -1.3168
 6805TIP3   OH241905   4.939   5.089   5.147  0.0718 -0.2446 -0.0300
 6805TIP3    H141906   4.969   5.076   5.057  0.9451 -0.2749  0.2512
 6805TIP3    H241907   4.872   5.157   5.140 -0.4584 -0.8216 -0.7968
 6806TIP3   OH241908   6.295   4.949  16.710 -0.4264 -0.3146  0.5371
 6806TIP3    H141909   6.266   5.031  16.749 -1.3330 -0.7507  0.8020
 6806TIP3    H241910   6.225   4.924  16.650  0.7220  0.0807 -1.0181
 6807TIP3   OH241911   5.682   5.909   2.110  0.3403 -0.0289  0.0090
 6807TIP3    H141912   5.594   5.880   2.136  0.2933  0.7048  0.6995
 6807TIP3    H241913   5.667   5.974   2.042  0.2347  1.4971  1.4347
 6808TIP3   OH241914   1.712   2.661   5.090  0.2365 -0.4205  0.3381
 6808TIP3    H141915   1.618   2.652   5.104  0.2779 -1.6991 -0.1247
 6808TIP3    H241916   1.724   2.754   5.072 -1.2957 -0.6139 -2.0809
 6809TIP3   OH241917   5.880   0.584   1.609 -0.1978  0.9152 -0.5254
 6809TIP3    H141918   5.869   0.589   1.515  0.8266 -1.0243 -0.7937
 6809TIP3    H241919   5.886   0.491   1.629  1.2933  1.3008  1.2211
 6810TIP3   OH241920   4.997   6.048   5.482 -0.1170 -0.1421 -0.1325
 6810TIP3    H141921   4.958   6.064   5.568 -1.5633  0.7680 -0.9279
 6810TIP3    H241922   5.083   6.009   5.502 -0.4275  0.0221  1.7084
 6811TIP3   OH241923   2.790   2.701   4.149  0.2310 -0.0145 -0.0734
 6811TIP3    H141924   2.724   2.715   4.082  0.2775  1.7772  0.2075
 6811TIP3    H241925   2.788   2.606   4.165 -1.7754 -0.1007 -0.5409
 6812TIP3   OH241926   1.571   3.640   0.671 -0.2843  0.1228  0.2538
 6812TIP3    H141927   1.581   3.673   0.581  1.7934  1.4666  0.8988
 6812TIP3    H241928   1.592   3.547   0.665 -1.6396 -0.1500 -0.8605
 6813TIP3   OH241929   2.693   5.899   6.550  0.3689  0.8543 -0.1337
 6813TIP3    H141930   2.731   5.812   6.562  1.0452  1.0897 -0.5438
 6813TIP3    H241931   2.607   5.882   6.510 -0.3092  0.2838  1.4645
 6814TIP3   OH241932   0.679   6.635  12.292 -0.0486  0.5074 -0.4414
 6814TIP3    H141933   0.631   6.596  12.365  0.2559 -3.7387 -2.2098
 6814TIP3    H241934   0.611   6.660  12.229 -0.1543  0.0623 -0.5054
 6815TIP3   OH241935   3.374   3.714   1.618  0.0951  0.4844  0.3446
 6815TIP3    H141936   3.321   3.667   1.682 -1.6383  1.1240 -0.5700
 6815TIP3    H241937   3.403   3.646   1.557 -1.0178  0.3418 -0.0426
 6816TIP3   OH241938   5.204   6.153   0.314  0.8526  0.0783 -0.6043
 6816TIP3    H141939   5.158   6.194   0.240 -1.2506  0.0101  0.5917
 6816TIP3    H241940   5.154   6.179   0.391  1.8322 -1.4539  0.6117
 6817TIP3   OH241941   5.683   4.467   6.348 -0.0067 -0.4491  0.2824
 6817TIP3    H141942   5.713   4.471   6.257  0.9013 -0.8093  0.5574
 6817TIP3    H241943   5.762   4.449   6.398 -0.0791  1.9945  1.3961
 6818TIP3   OH241944   3.993   6.246  14.480 -0.4400 -0.4038 -0.3261
 6818TIP3    H141945   3.988   6.237  14.576  0.5078  0.5768 -0.1736
 6818TIP3    H241946   3.986   6.340  14.465 -1.5423 -0.6201 -1.3039
 6819TIP3   OH241947   6.467   0.379  14.386  0.4568 -0.6022 -0.2958
 6819TIP3    H141948   6.464   0.395  14.292  2.0319 -1.0819 -0.4527
 6819TIP3    H241949   6.414   0.300  14.399 -0.8152  0.1764 -0.5797
 6820TIP3   OH241950   1.785   4.321  13.717 -0.1394 -0.4670 -0.4870
 6820TIP3    H141951   1.732   4.371  13.655 -3.0149 -2.4091  0.1954
 6820TIP3    H241952   1.804   4.383  13.788 -0.7580  0.5170 -1.1541
 6821TIP3   OH241953   4.752   2.177   3.714 -0.0388 -0.2668  1.3615
 6821TIP3    H141954   4.785   2.103   3.663  2.4404  0.8590  1.1203
 6821TIP3    H241955   4.678   2.211   3.663  1.5891  0.0696 -0.9570
 6822TIP3   OH241956   1.708   1.396   2.384 -0.0518  0.6739 -0.4239
 6822TIP3    H141957   1.661   1.320   2.350 -0.2763  0.4387  0.3910
 6822TIP3    H241958   1.667   1.471   2.339  0.9297  0.2692 -2.0869
 6823TIP3   OH241959   6.621   0.884  14.774  0.8099  0.2401 -0.5528
 6823TIP3    H141960   6.676   0.962  14.778  0.7701  0.2360  0.5895
 6823TIP3    H241961   6.544   0.911  14.725 -0.4174  1.7390  1.9796
 6824TIP3   OH241962   3.876   1.361   3.583  0.3714 -0.1150  0.3425
 6824TIP3    H141963   3.912   1.439   3.625  0.1718  0.3388 -0.3065
 6824TIP3    H241964   3.782   1.370   3.592  0.2454  0.6635 -1.3037
 6825TIP3   OH241965   4.319   5.940  12.775 -0.3308 -0.4550 -0.4142
 6825TIP3    H141966   4.385   5.919  12.710  2.9483 -0.8746  2.7143
 6825TIP3    H241967   4.340   6.030  12.802 -0.1658 -1.0139  1.4678
 6826TIP3   OH241968   4.299   4.384   3.675 -0.3177 -0.0176 -0.6044
 6826TIP3    H141969   4.286   4.477   3.659 -0.6504 -0.1584 -1.1864
 6826TIP3    H241970   4.242   4.364   3.748  1.8809  0.8264  1.4847
 6827TIP3   OH241971   6.575   4.788  15.894 -0.0614  0.1889 -0.5412
 6827TIP3    H141972   6.638   4.743  15.837 -0.1312  2.2757 -2.4035
 6827TIP3    H241973   6.560   4.727  15.966  1.3252 -1.8835 -1.8958
 6828TIP3   OH241974   5.425   1.122   1.141  0.0116 -0.2146  0.0761
 6828TIP3    H141975   5.464   1.209   1.138 -1.0992  0.2728 -1.1778
 6828TIP3    H241976   5.495   1.063   1.114  0.3169  0.4869 -0.7035
 6829TIP3   OH241977   5.376   6.014   4.704  0.0115  0.2783 -0.1874
 6829TIP3    H141978   5.373   6.107   4.680  0.4240 -0.2882 -2.7895
 6829TIP3    H241979   5.296   5.978   4.666  0.4631 -0.6325 -0.2908
 6830TIP3   OH241980   1.156   2.672   3.048 -0.0488  0.3756  0.0926
 6830TIP3    H141981   1.242   2.636   3.070 -0.3614 -0.8078 -0.5226
 6830TIP3    H241982   1.175   2.755   3.004  0.7497  0.4126  0.4999
 6831TIP3   OH241983   4.439   2.625  11.915  0.6355 -0.1931 -0.0023
 6831TIP3    H141984   4.510   2.678  11.879 -0.1954  0.8381 -0.1678
 6831TIP3    H241985   4.390   2.595  11.839  0.5700 -0.4230  0.1312
 6832TIP3   OH241986   1.480   6.685  17.009 -0.1634  0.1739 -0.2008
 6832TIP3    H141987   1.553   6.647  17.057 -0.5718  0.4340  0.6488
 6832TIP3    H241988   1.477   6.776  17.036 -0.0562  0.4738 -1.1642
 6833TIP3   OH241989   5.001   3.797  11.049  0.5062  0.1589 -0.3636
 6833TIP3    H141990   5.065   3.851  11.095  0.1226  1.1540 -0.9588
 6833TIP3    H241991   4.917   3.840  11.065  0.4402  0.9868 -2.5429
 6834TIP3   OH241992   2.405   5.430   6.530 -0.9012  0.5084 -0.0437
 6834TIP3    H141993   2.373   5.518   6.549  1.2659  1.0967  1.1542
 6834TIP3    H241994   2.497   5.442   6.505 -0.2848 -1.4858  1.0243
 6835TIP3   OH241995   6.048   4.637  12.030 -0.0423 -0.1499  0.2735
 6835TIP3    H141996   6.139   4.625  12.059  0.2759  0.2714 -0.5236
 6835TIP3    H241997   5.996   4.626  12.110  0.5289 -2.4297  0.4126
 6836TIP3   OH241998   3.688   2.907  15.712  0.0409 -0.3918 -0.1085
 6836TIP3    H141999   3.599   2.941  15.709  1.1202  2.7980 -0.6191
 6836TIP3    H242000   3.704   2.873  15.625 -0.6487 -0.9547 -0.0214
 6837TIP3   OH242001   6.583   6.288   2.889 -0.5940  0.2616 -0.3351
 6837TIP3    H142002   6.595   6.195   2.905  0.0070 -0.0396 -2.3374
 6837TIP3    H242003   6.605   6.329   2.973  0.2275 -1.3125  0.2590
 6838TIP3   OH242004   3.287   0.391   6.083 -0.3120  0.5417  0.2664
 6838TIP3    H142005   3.277   0.394   6.178  2.5688 -1.6351  0.7877
 6838TIP3    H242006   3.327   0.306   6.065  0.9188  1.5840 -2.6936
 6839TIP3   OH242007   1.706   5.300   6.369 -0.3159  0.5290  0.1344
 6839TIP3    H142008   1.797   5.273   6.380  0.3826  2.1409 -1.3329
 6839TIP3    H242009   1.657   5.241   6.427  1.5480 -0.9036  0.3573
 6840TIP3   OH242010   0.535   1.530   2.636  0.6215 -0.4081  0.1812
 6840TIP3    H142011   0.543   1.623   2.660 -3.4431 -0.3077  2.0318
 6840TIP3    H242012   0.513   1.531   2.543  1.3968  0.4010 -0.0098
 6841TIP3   OH242013   5.049   1.678  11.981 -0.0002  0.3001  0.4863
 6841TIP3    H142014   5.045   1.761  11.934  2.9869  0.0837 -0.3083
 6841TIP3    H242015   5.137   1.644  11.965 -0.6122 -2.3409  1.9891
 6842TIP3   OH242016   3.211   6.490   5.806  0.1564 -0.0330  0.0253
 6842TIP3    H142017   3.221   6.405   5.762 -1.5840 -0.2989  0.0661
 6842TIP3    H242018   3.158   6.542   5.746  0.7413  0.8412  0.2549
 6843TIP3   OH242019   1.740   3.271  16.947  0.0239 -0.3501  0.4741
 6843TIP3    H142020   1.746   3.176  16.941 -0.2298 -0.2943 -1.2650
 6843TIP3    H242021   1.750   3.301  16.856 -1.0119  1.2083  0.8384
 6844TIP3   OH242022   1.740   3.122  13.478  0.0314 -0.1987  0.1294
 6844TIP3    H142023   1.769   3.055  13.416 -0.5411 -1.1144  0.8350
 6844TIP3    H242024   1.751   3.204  13.430  1.0329 -0.7573 -0.6450
 6845TIP3   OH242025   2.625   2.062  11.467  0.0608 -0.1844  0.3755
 6845TIP3    H142026   2.655   2.150  11.443 -1.5922  0.4641  0.6113
 6845TIP3    H242027   2.705   2.009  11.464  0.9977  1.1902 -0.3251
 6846TIP3   OH242028   0.772   2.689  13.514 -0.2863  0.0794 -0.2086
 6846TIP3    H142029   0.795   2.735  13.595 -0.5898 -0.7013  0.3314
 6846TIP3    H242030   0.785   2.754  13.445 -4.7405  2.5022  0.8374
 6847TIP3   OH242031   1.855   3.998  14.353 -0.0575  0.0162  0.0650
 6847TIP3    H142032   1.934   3.959  14.391  0.7291  1.9612  0.5601
 6847TIP3    H242033   1.808   4.033  14.429  0.1381  1.5093 -0.4805
 6848TIP3   OH242034   3.550   0.358  15.376 -0.2920  0.5599 -0.2710
 6848TIP3    H142035   3.475   0.364  15.317 -0.9311  2.3939  0.6238
 6848TIP3    H242036   3.550   0.442  15.423  2.9075  1.0694 -0.9244
 6849TIP3   OH242037   0.981   5.225   5.002  0.6082  0.6452  0.8673
 6849TIP3    H142038   0.946   5.270   4.925 -0.1473 -0.8282  0.3157
 6849TIP3    H242039   0.944   5.273   5.076 -0.8554  0.4430  0.2901
 6850TIP3   OH242040   6.366   6.450  13.689  0.3336  0.1200 -0.1184
 6850TIP3    H142041   6.281   6.408  13.675 -0.6638  1.8843  0.4095
 6850TIP3    H242042   6.352   6.541  13.663  2.0363  0.4702  0.1094
 6851TIP3   OH242043   6.003   4.374   1.589 -0.1465  0.0613  0.0575
 6851TIP3    H142044   6.032   4.417   1.508 -0.1210 -0.4212 -0.1996
 6851TIP3    H242045   5.961   4.443   1.640  0.6393  0.5777  0.0339
 6852TIP3   OH242046   2.675   3.338   0.304  0.0593 -0.3029 -0.0442
 6852TIP3    H142047   2.760   3.297   0.293  0.7028  0.8472  0.5272
 6852TIP3    H242048   2.673   3.368   0.394 -0.5570  0.5436 -0.3167
 6853TIP3   OH242049   6.480   0.876  13.552  0.5145  0.2054  0.0350
 6853TIP3    H142050   6.556   0.913  13.597 -0.2371  0.9447  0.7400
 6853TIP3    H242051   6.466   0.791  13.593  1.8290 -0.5863 -1.1044
 6854TIP3   OH242052   5.610   2.313   0.133 -0.0223  0.1858  0.2078
 6854TIP3    H142053   5.558   2.356   0.065  0.4024  1.9655  0.9446
 6854TIP3    H242054   5.637   2.230   0.094 -1.0224  0.5046 -1.2311
 6855TIP3   OH242055   3.266   1.523   3.759  0.2166  0.3770 -0.1866
 6855TIP3    H142056   3.242   1.599   3.705  0.8143 -0.0073 -1.0064
 6855TIP3    H242057   3.359   1.509   3.740 -0.2827 -1.6486 -1.4420
 6856TIP3   OH242058   4.604   1.641   3.204  0.3657 -0.2413 -0.5919
 6856TIP3    H142059   4.622   1.726   3.244 -2.8464 -0.0386  0.6999
 6856TIP3    H242060   4.650   1.579   3.260 -0.0926  0.4318  0.5821
 6857TIP3   OH242061   5.443   0.445  16.623  0.2054  0.4450 -0.3030
 6857TIP3    H142062   5.439   0.452  16.718 -1.7470  1.1533 -0.3943
 6857TIP3    H242063   5.415   0.531  16.591  1.6377  0.4996 -1.5415
 6858TIP3   OH242064   6.140   2.853  11.447  0.0869 -0.4549  0.0080
 6858TIP3    H142065   6.200   2.865  11.373  1.8217  0.4237  1.4915
 6858TIP3    H242066   6.100   2.939  11.460  1.2198 -0.0838  1.2345
 6859TIP3   OH242067   2.420   1.380   2.022  0.1380  0.2537 -0.7054
 6859TIP3    H142068   2.500   1.409   2.066 -1.7278  2.8247  1.3128
 6859TIP3    H242069   2.356   1.374   2.093 -1.7342 -0.7925 -2.4022
 6860TIP3   OH242070   0.960   6.503   4.987  0.1702 -0.3274 -0.1170
 6860TIP3    H142071   0.946   6.595   5.007 -0.8770 -0.7025  0.9962
 6860TIP3    H242072   0.871   6.466   4.979  0.5646 -1.3712  0.1161
 6861TIP3   OH242073   6.077   1.613   4.459 -0.7048 -0.0642  0.5749
 6861TIP3    H142074   6.029   1.642   4.536 -0.8524 -1.4413  1.0419
 6861TIP3    H242075   6.012   1.611   4.389 -1.7240 -3.0175  1.4595
 6862TIP3   OH242076   2.458   4.953   1.314 -0.3703 -0.7207 -0.5834
 6862TIP3    H142077   2.430   5.014   1.382 -0.2061 -1.5370  0.2291
 6862TIP3    H242078   2.552   4.968   1.306 -0.6395  0.5433 -1.8338
 6863TIP3   OH242079   5.850   5.481  15.216 -0.1554 -0.2176  0.8764
 6863TIP3    H142080   5.918   5.416  15.230 -0.6649 -0.5929  1.7398
 6863TIP3    H242081   5.773   5.444  15.260 -1.2740 -0.3801 -1.1057
 6864TIP3   OH242082   3.955   4.523  14.035  0.2867  0.3787 -0.6614
 6864TIP3    H142083   3.930   4.490  13.948 -3.0823 -0.1357  0.3604
 6864TIP3    H242084   3.996   4.448  14.078 -2.7329 -1.1268 -0.1196
 6865TIP3   OH242085   3.599   1.588   1.081  0.0135 -0.0090 -0.1127
 6865TIP3    H142086   3.642   1.503   1.094  0.6319  0.4664  1.0642
 6865TIP3    H242087   3.636   1.621   0.999  1.4066  0.0871  0.5285
 6866TIP3   OH242088   3.246   4.957   0.598 -0.3736 -0.1906 -0.0785
 6866TIP3    H142089   3.221   4.922   0.512 -0.6169 -0.9165  0.2850
 6866TIP3    H242090   3.266   4.879   0.650  0.7671  0.2819  0.2220
 6867TIP3   OH242091   1.622   4.048  16.739 -0.0699 -0.0075 -0.0136
 6867TIP3    H142092   1.696   4.096  16.701 -0.0115 -0.2583 -0.2151
 6867TIP3    H242093   1.560   4.038  16.666 -0.9870  1.5227  0.4927
 6868TIP3   OH242094   4.042   0.714  13.969 -0.4814 -0.0494  0.1115
 6868TIP3    H142095   3.954   0.687  13.944 -0.3386  1.8369 -2.8874
 6868TIP3    H242096   4.036   0.808  13.981  0.9796 -0.0039  0.6875
 6869TIP3   OH242097   3.861   1.045   4.965  0.1166  0.0306 -0.3816
 6869TIP3    H142098   3.817   1.026   5.048  1.0262 -0.8071 -0.0709
 6869TIP3    H242099   3.836   1.135   4.945  0.6143  0.5667  1.2671
 6870TIP3   OH242100   2.557   2.757   6.378 -0.4474 -0.5510  0.1152
 6870TIP3    H142101   2.641   2.795   6.403 -0.3912  0.2249 -1.1712
 6870TIP3    H242102   2.573   2.663   6.373  0.3537 -0.4084 -0.1455
 6871TIP3   OH242103   5.258   5.054   5.830 -0.2334 -0.0269  0.0070
 6871TIP3    H142104   5.324   5.046   5.898 -2.7348 -3.4048  2.3529
 6871TIP3    H242105   5.181   5.087   5.875 -1.0130  1.0592 -2.0051
 6872TIP3   OH242106   2.365   3.835  13.827  0.5940 -0.1990  0.3948
 6872TIP3    H142107   2.290   3.856  13.773  1.6138  0.2573 -0.9024
 6872TIP3    H242108   2.338   3.759  13.878 -0.9366  0.3206  0.4099
 6873TIP3   OH242109   4.562   4.379  12.614 -0.6834  0.0093 -0.0320
 6873TIP3    H142110   4.554   4.395  12.708  0.3480  0.4667 -0.0087
 6873TIP3    H242111   4.647   4.416  12.590  0.0604 -1.9855 -0.7214
 6874TIP3   OH242112   0.893   0.772   2.433 -0.4007  0.1497 -0.8109
 6874TIP3    H142113   0.854   0.688   2.460 -1.2185  0.5215 -0.8005
 6874TIP3    H242114   0.938   0.804   2.512 -0.0917 -0.2685 -0.8128
 6875TIP3   OH242115   0.602   2.293  10.503 -0.3309  0.3390  0.5224
 6875TIP3    H142116   0.645   2.253  10.579 -0.5533 -0.0397  0.4498
 6875TIP3    H242117   0.520   2.245  10.494 -1.3495  1.8150  1.3864
 6876TIP3   OH242118   6.713   1.310  13.912 -1.0098  0.4921  0.3569
 6876TIP3    H142119   6.647   1.332  13.847 -0.1887 -0.1806 -0.7411
 6876TIP3    H242120   6.730   1.392  13.958 -0.1978  1.4955 -1.6114
 6877TIP3   OH242121   0.030   2.573   1.142 -0.0915 -0.0236  0.6714
 6877TIP3    H142122   0.088   2.499   1.160  0.3682  0.1746  0.0644
 6877TIP3    H242123   0.026   2.577   1.046  1.2276  1.7247  0.6259
 6878TIP3   OH242124   4.276   6.562   5.508 -0.2505 -0.2359 -0.9123
 6878TIP3    H142125   4.303   6.483   5.555 -0.0073 -1.0166 -2.2954
 6878TIP3    H242126   4.186   6.577   5.536  0.4184  0.3245  1.0534
 6879TIP3   OH242127   6.377   4.008  12.793 -0.0402  0.3283  0.4475
 6879TIP3    H142128   6.363   4.090  12.746 -1.0446  0.1413  0.4118
 6879TIP3    H242129   6.335   4.022  12.878  2.4340  0.9621  1.6503
 6880TIP3   OH242130   2.952   0.816   5.506 -0.1038  0.2649  0.0573
 6880TIP3    H142131   3.034   0.849   5.468  0.2320 -1.0908 -0.4746
 6880TIP3    H242132   2.939   0.731   5.464 -3.5899  1.8137 -2.3978
 6881TIP3   OH242133   4.384   6.275   0.156  0.3449 -0.4853 -0.0517
 6881TIP3    H142134   4.404   6.246   0.245  0.5501  0.0067  0.0637
 6881TIP3    H242135   4.421   6.363   0.150  1.2357 -0.8989 -0.9570
 6882TIP3   OH242136   5.454   3.779  16.745  0.4593 -0.0557 -0.2555
 6882TIP3    H142137   5.536   3.748  16.709  0.2372 -0.2039 -0.6382
 6882TIP3    H242138   5.477   3.816  16.830  1.1143  1.1222 -0.9347
 6883TIP3   OH242139   2.532   3.533  14.444 -0.1095 -0.1219 -0.0332
 6883TIP3    H142140   2.609   3.478  14.458  0.9555  1.1821 -0.5735
 6883TIP3    H242141   2.557   3.593  14.374 -0.7182  1.9575  1.4288
 6884TIP3   OH242142   2.595   1.110   3.160 -0.1586 -0.3348 -0.3025
 6884TIP3    H142143   2.552   1.128   3.244  3.8836  1.0158  1.7716
 6884TIP3    H242144   2.588   1.016   3.149 -0.9198 -0.5486  1.5335
 6885TIP3   OH242145   4.128   4.381  13.835  0.1551  0.3584  0.5669
 6885TIP3    H142146   4.160   4.311  13.778 -0.7807  0.2725  0.1251
 6885TIP3    H242147   4.053   4.418  13.788  0.9775  2.0620  0.5146
 6886TIP3   OH242148   3.762   3.878  10.621  0.4917  0.0736  0.5324
 6886TIP3    H142149   3.670   3.864  10.599  0.0718  2.6001  0.3844
 6886TIP3    H242150   3.775   3.972  10.611  3.2224 -0.2639  0.1407
 6887TIP3   OH242151   2.457   1.484   1.761 -0.4698  0.5025  0.0775
 6887TIP3    H142152   2.489   1.471   1.850 -0.3414  2.6140  0.3865
 6887TIP3    H242153   2.362   1.469   1.767 -0.5456  1.1883  0.7056
 6888TIP3   OH242154   2.430   6.352   5.555 -0.2732  0.6483 -0.3687
 6888TIP3    H142155   2.368   6.280   5.548  0.4901 -0.2443  1.5094
 6888TIP3    H242156   2.376   6.427   5.583 -0.7350  0.2632 -0.2058
 6889TIP3   OH242157   1.293   4.554   2.840 -0.2136  0.1528 -0.0345
 6889TIP3    H142158   1.299   4.638   2.794 -1.4484  0.3480  0.1412
 6889TIP3    H242159   1.200   4.537   2.848  0.0079 -1.3410 -0.2236
 6890TIP3   OH242160   4.873   0.115   1.950 -0.6305  0.0684 -0.2807
 6890TIP3    H142161   4.805   0.163   1.902  1.3778  4.0896  0.4535
 6890TIP3    H242162   4.825   0.059   2.011 -3.3207  2.3164 -0.1450
 6891TIP3   OH242163   2.039   6.363   4.066  0.0713  0.2482 -0.3104
 6891TIP3    H142164   2.108   6.405   4.116 -0.8098  0.7734  0.5140
 6891TIP3    H242165   1.965   6.424   4.071  0.0488  0.4767 -2.5517
 6892TIP3   OH242166   1.269   0.211  14.607 -0.5042 -0.1230 -0.1726
 6892TIP3    H142167   1.264   0.156  14.685 -1.9636 -1.8766 -1.4014
 6892TIP3    H242168   1.340   0.172  14.555  0.0437  0.6539 -0.0290
 6893TIP3   OH242169   1.034   1.457  12.091 -0.2404 -0.2397  0.0009
 6893TIP3    H142170   1.024   1.401  12.014  1.2263 -1.5922  0.7295
 6893TIP3    H242171   0.963   1.430  12.150  0.1613 -1.0153  0.1457
 6894TIP3   OH242172   3.565   4.633  13.813 -0.1880 -0.6278  0.2734
 6894TIP3    H142173   3.582   4.653  13.905  0.7837 -1.8232  0.3778
 6894TIP3    H242174   3.610   4.702  13.765 -0.9157  0.1475  0.6865
 6895TIP3   OH242175   3.838   6.356  12.269  0.3481  0.1810  0.0998
 6895TIP3    H142176   3.769   6.361  12.203  1.4779  0.3095 -1.1211
 6895TIP3    H242177   3.846   6.263  12.288  1.7178 -0.1825 -1.8916
 6896TIP3   OH242178   6.044   5.928   2.615 -0.0356  0.3652 -0.2440
 6896TIP3    H142179   6.095   5.856   2.653  0.4617  0.9347  0.1813
 6896TIP3    H242180   5.983   5.953   2.685 -1.0041 -0.3943 -0.7914
 6897TIP3   OH242181   0.391   1.466   1.362  0.6841 -0.3334  0.2087
 6897TIP3    H142182   0.360   1.541   1.414 -2.4447 -1.1674 -0.2617
 6897TIP3    H242183   0.428   1.406   1.426  2.3690  1.1644  0.7055
 6898TIP3   OH242184   5.533   3.568  11.216 -0.8733  0.0880  0.2455
 6898TIP3    H142185   5.551   3.547  11.124 -0.3643 -0.3965  0.4493
 6898TIP3    H242186   5.447   3.610  11.214 -1.3311 -0.8440 -0.3352
 6899TIP3   OH242187   0.568   4.958  11.518 -0.7436 -0.1748 -0.7999
 6899TIP3    H142188   0.628   4.885  11.536 -0.4437  0.3080  0.2161
 6899TIP3    H242189   0.529   4.936  11.433 -0.3806 -1.3324 -0.6892
 6900TIP3   OH242190   3.993   1.563   2.629  0.2574  0.5551  0.0744
 6900TIP3    H142191   4.005   1.646   2.582  4.5305  0.7426  1.1110
 6900TIP3    H242192   3.997   1.586   2.721 -0.7557 -0.6161  0.4400
 6901TIP3   OH242193   0.971   4.041  11.403  0.4917  0.3090  0.0021
 6901TIP3    H142194   0.906   4.044  11.474 -0.3825  1.0173 -0.8130
 6901TIP3    H242195   0.967   4.127  11.363  1.5003  0.1525 -0.4706
 6902TIP3   OH242196   6.332   3.826  16.970 -0.2634  0.7614  0.1096
 6902TIP3    H142197   6.341   3.834  16.875 -0.7637  0.8852  0.0697
 6902TIP3    H242198   6.422   3.825  17.002 -0.0921  0.9370 -0.3491
 6903TIP3   OH242199   5.486   2.075   2.780  0.5655  0.3959  0.0584
 6903TIP3    H142200   5.448   2.041   2.861 -0.2147 -0.1600 -0.5209
 6903TIP3    H242201   5.580   2.079   2.797  0.5592 -0.9921  0.5344
 6904TIP3   OH242202   2.084   0.439  17.056 -0.1978  0.1954  0.5448
 6904TIP3    H142203   2.033   0.519  17.064  1.1828  1.2756 -0.9381
 6904TIP3    H242204   2.145   0.443  17.130  0.2724  0.8235  0.1286
 6905TIP3   OH242205   5.756   4.131  11.173  0.2400 -0.3072  0.1851
 6905TIP3    H142206   5.731   4.038  11.172  0.4884 -0.3917  0.9783
 6905TIP3    H242207   5.846   4.132  11.141  0.1818 -0.3273  0.0239
 6906TIP3   OH242208   4.711   2.419   2.675  0.8516 -0.0320  0.1765
 6906TIP3    H142209   4.687   2.341   2.726  0.8408  0.1653  0.4794
 6906TIP3    H242210   4.741   2.481   2.741 -0.1881  0.6146  0.0690
 6907TIP3   OH242211   5.238   4.761  11.610 -0.0502 -0.2572  0.3771
 6907TIP3    H142212   5.327   4.735  11.585  0.2814  0.9113  0.2438
 6907TIP3    H242213   5.194   4.680  11.633  0.5089 -1.0842 -1.2774
 6908TIP3   OH242214   4.317   3.203  14.992  0.1981  0.3908  0.0159
 6908TIP3    H142215   4.357   3.286  14.966 -1.7358  1.2077 -0.5817
 6908TIP3    H242216   4.223   3.217  14.980 -0.1145 -2.4759 -1.8539
 6909TIP3   OH242217   6.501   2.186  14.962 -0.1247  0.0454  0.1139
 6909TIP3    H142218   6.423   2.157  15.010 -0.6041 -0.5171 -0.9706
 6909TIP3    H242219   6.548   2.106  14.944 -0.1031  0.2188 -0.6116
 6910TIP3   OH242220   6.627   3.369  11.357  0.0976  0.5854  0.0527
 6910TIP3    H142221   6.635   3.409  11.444 -0.7417 -0.1615  0.4950
 6910TIP3    H242222   6.538   3.333  11.356  0.5738 -0.6322 -0.5837
 6911TIP3   OH242223   0.949   3.766   5.468  0.1857  0.3185  0.0660
 6911TIP3    H142224   0.929   3.735   5.557 -0.3545 -1.0162 -0.4930
 6911TIP3    H242225   1.042   3.748   5.457  0.4555  1.2901  0.6557
 6912TIP3   OH242226   4.079   5.704   3.894 -0.1092 -0.2833  0.8693
 6912TIP3    H142227   3.996   5.657   3.889  0.0307 -0.4629 -0.0824
 6912TIP3    H242228   4.084   5.753   3.811  1.2488 -1.1739  0.3817
 6913TIP3   OH242229   1.620   5.564  11.040 -0.0597 -0.5081 -0.0590
 6913TIP3    H142230   1.559   5.553  10.967  0.7183 -2.2430 -0.5055
 6913TIP3    H242231   1.706   5.573  10.999  0.2168 -0.0551  0.6055
 6914TIP3   OH242232   1.686   2.854   0.124  0.2910  0.0838  0.3002
 6914TIP3    H142233   1.595   2.859   0.155 -0.0570  1.6504 -0.8635
 6914TIP3    H242234   1.684   2.785   0.057  0.5266 -1.5970  1.9448
 6915TIP3   OH242235   0.209   0.267   5.996  0.1754  0.2694  0.1416
 6915TIP3    H142236   0.157   0.196   5.958  0.7878  0.6182 -1.4619
 6915TIP3    H242237   0.163   0.347   5.971 -0.0387  0.4707  1.1715
 6916TIP3   OH242238   4.947   6.664  12.978  0.3079  0.0073  0.1111
 6916TIP3    H142239   4.959   6.744  12.926 -1.2431  0.8218  0.9536
 6916TIP3    H242240   4.945   6.594  12.913  0.5541  0.7702 -0.7459
 6917TIP3   OH242241   5.222   2.217  11.524  0.1952 -0.2327  0.7220
 6917TIP3    H142242   5.312   2.187  11.520  0.4655  0.6451 -0.4711
 6917TIP3    H242243   5.215   2.264  11.607  1.5802  1.8302 -0.2313
 6918TIP3   OH242244   3.481   6.691  16.474  0.2123 -0.1227 -0.1858
 6918TIP3    H142245   3.465   6.668  16.565 -1.3232 -0.2299 -0.4522
 6918TIP3    H242246   3.573   6.667  16.459  0.1131 -1.3722  0.9531
 6919TIP3   OH242247   5.199   4.666   5.670 -0.5144 -0.1217  0.0506
 6919TIP3    H142248   5.162   4.751   5.645  3.1431  1.7737  0.4012
 6919TIP3    H242249   5.179   4.658   5.763  0.6493  1.3362  0.4704
 6920TIP3   OH242250   4.883   5.368  14.635  0.3824  0.2222 -0.5273
 6920TIP3    H142251   4.864   5.276  14.653 -0.5077  0.8087  1.8539
 6920TIP3    H242252   4.883   5.374  14.539  1.0522 -2.3446 -0.7516
 6921TIP3   OH242253   4.988   6.824   5.478 -0.4208  0.9586 -0.2192
 6921TIP3    H142254   5.004   6.839   5.571  0.3190 -0.9479  0.0085
 6921TIP3    H242255   5.033   6.896   5.434  1.0323  0.7430  0.8325
 6922TIP3   OH242256   0.934   6.791   5.707  0.3486  0.1545 -0.0679
 6922TIP3    H142257   0.895   6.708   5.735  0.1993  0.4318  0.5596
 6922TIP3    H242258   1.023   6.790   5.743  0.2725  0.3601  0.1319
 6923TIP3   OH242259   6.092   4.938  15.322  0.2182  0.1082  0.1636
 6923TIP3    H142260   6.091   4.842  15.327  1.9288  0.1067  2.6460
 6923TIP3    H242261   6.018   4.961  15.266 -0.7240 -2.6248  0.1732
 6924TIP3   OH242262   1.591   4.084   6.303 -0.2043  0.1025 -0.2191
 6924TIP3    H142263   1.512   4.136   6.320  0.1262  0.1772  1.1772
 6924TIP3    H242264   1.640   4.087   6.385 -0.2385 -2.5457 -0.0184
 6925TIP3   OH242265   3.829   6.114   2.315 -0.1092  0.0096 -0.3522
 6925TIP3    H142266   3.772   6.170   2.263 -0.9763 -1.8911 -1.5454
 6925TIP3    H242267   3.845   6.164   2.395 -2.2578  1.2197 -0.6009
 6926TIP3   OH242268   6.449   4.901  12.221  0.4987  0.0078  0.1982
 6926TIP3    H142269   6.463   4.814  12.259 -0.1894 -0.0064  0.4392
 6926TIP3    H242270   6.536   4.930  12.193  0.6200 -1.1229 -0.6841
 6927TIP3   OH242271   5.026   4.940   0.577  0.0239 -0.6577 -0.0042
 6927TIP3    H142272   5.019   4.854   0.618 -0.7202 -0.9628 -0.7315
 6927TIP3    H242273   5.110   4.939   0.531  0.7615 -0.3898  1.2982
 6928TIP3   OH242274   0.980   0.458  13.881 -0.7309  0.1748  0.0143
 6928TIP3    H142275   0.965   0.453  13.975 -0.6232 -1.0328 -0.0143
 6928TIP3    H242276   0.938   0.540  13.854 -2.5451 -0.4237  0.7981
 6929TIP3   OH242277   0.781   5.979  14.635 -0.0577 -0.2460  0.4535
 6929TIP3    H142278   0.705   6.034  14.653  0.6712  0.4384  1.5072
 6929TIP3    H242279   0.766   5.899  14.685  0.1703  0.1203  1.1209
 6930TIP3   OH242280   4.089   0.849   4.441  0.1343 -0.5348  0.1334
 6930TIP3    H142281   4.048   0.836   4.527  1.2017  2.5456  1.2309
 6930TIP3    H242282   4.074   0.767   4.395 -2.5155 -1.4827  2.4108
 6931TIP3   OH242283   6.136   0.727  12.569  0.0051 -0.3488  0.1622
 6931TIP3    H142284   6.156   0.752  12.479 -0.8775 -0.5001 -0.0833
 6931TIP3    H242285   6.188   0.648  12.584 -0.4574 -0.7879 -0.4891
 6932TIP3   OH242286   1.686   3.377  14.500  0.5107 -0.0167 -0.0727
 6932TIP3    H142287   1.726   3.301  14.544  0.0886 -1.7718 -2.5049
 6932TIP3    H242288   1.592   3.366  14.514  0.4883  0.6161  0.3346
 6933TIP3   OH242289   0.613   2.967  12.582 -0.2587  0.2085  0.2963
 6933TIP3    H142290   0.615   3.058  12.550  0.0052 -0.8939 -3.2698
 6933TIP3    H242291   0.705   2.944  12.594 -0.3422  0.4923  1.6758
 6934TIP3   OH242292   5.782   5.294  12.662  0.2462  0.2401  0.1208
 6934TIP3    H142293   5.744   5.258  12.582 -1.5387  1.4898  0.3465
 6934TIP3    H242294   5.712   5.288  12.726  1.1188  0.7587  1.1570
 6935TIP3   OH242295   2.455   0.152  13.937 -0.2186  0.0311  0.6461
 6935TIP3    H142296   2.430   0.061  13.921  0.9609 -0.2902  0.5172
 6935TIP3    H242297   2.373   0.200  13.936 -0.8989 -1.0773  1.0262
 6936TIP3   OH242298   4.052   0.163  10.901 -0.2085  0.0990 -0.0005
 6936TIP3    H142299   4.080   0.164  10.809 -0.2699  1.3961 -0.0328
 6936TIP3    H242300   4.011   0.249  10.914 -1.0583 -0.4418  0.9894
 6937TIP3   OH242301   5.971   1.006  13.468  0.4509 -0.8978  0.4626
 6937TIP3    H142302   6.015   1.026  13.385 -0.2738  2.0547  0.6712
 6937TIP3    H242303   5.918   0.929  13.449  3.1852 -2.6507 -0.6728
 6938TIP3   OH242304   5.597   2.135   2.434 -0.3533 -0.4686  0.3041
 6938TIP3    H142305   5.686   2.145   2.399 -0.8059  0.8555 -0.5268
 6938TIP3    H242306   5.610   2.124   2.528  0.7323 -1.1637  0.0951
 6939TIP3   OH242307   3.288   1.094   0.289  0.3291 -0.5171  0.0415
 6939TIP3    H142308   3.282   1.163   0.223  3.8403  1.3800  1.4376
 6939TIP3    H242309   3.236   1.126   0.363  0.9399  0.0764  0.2220
 6940TIP3   OH242310   3.559   0.643  10.694  0.0594  0.3641 -0.1592
 6940TIP3    H142311   3.473   0.657  10.734  0.0708  0.8712 -0.3081
 6940TIP3    H242312   3.614   0.612  10.766 -0.1792  0.2949 -0.0045
 6941TIP3   OH242313   5.026   0.454  13.544 -0.5068 -0.0416 -0.7227
 6941TIP3    H142314   4.937   0.423  13.530 -0.8765  0.4610  0.4615
 6941TIP3    H242315   5.023   0.504  13.625  1.0605 -0.8100 -0.1461
 6942TIP3   OH242316   6.164   0.860   0.539  0.7637 -0.7864 -0.7963
 6942TIP3    H142317   6.130   0.777   0.506 -1.0057 -0.9950  1.2638
 6942TIP3    H242318   6.111   0.927   0.496  2.2135 -0.6777 -2.4831
 6943TIP3   OH242319   0.379   1.946  12.496 -0.7735  0.2773 -0.3449
 6943TIP3    H142320   0.469   1.925  12.471 -0.4640 -0.9076  1.5381
 6943TIP3    H242321   0.331   1.952  12.414  1.3536  2.8630 -1.5570
 6944TIP3   OH242322   6.109   4.743   5.409 -0.1607  0.2178 -0.5355
 6944TIP3    H142323   6.186   4.797   5.388  0.1536  0.0032  0.0389
 6944TIP3    H242324   6.144   4.656   5.426 -0.4482  0.2731  0.3943
 6945TIP3   OH242325   1.513   4.279   0.823  0.3917 -0.1509 -0.3526
 6945TIP3    H142326   1.438   4.281   0.882 -0.4355  3.5127 -1.2852
 6945TIP3    H242327   1.500   4.200   0.770 -2.3470 -0.1018  0.1112
 6946TIP3   OH242328   6.184   4.055  14.511  0.1016 -0.3503 -1.0689
 6946TIP3    H142329   6.190   3.967  14.546  0.3249  0.4492  1.0596
 6946TIP3    H242330   6.153   4.044  14.421 -0.2197 -2.5456 -0.7279
 6947TIP3   OH242331   4.514   6.243   5.508 -0.7027  0.0227 -0.3935
 6947TIP3    H142332   4.467   6.255   5.590  1.6249 -1.8693  1.3433
 6947TIP3    H242333   4.600   6.210   5.534 -0.2649 -1.7631 -3.6455
 6948TIP3   OH242334   6.413   0.440   0.820 -0.6659  0.0858  0.3412
 6948TIP3    H142335   6.405   0.462   0.727  1.9504  0.4579  0.1193
 6948TIP3    H242336   6.372   0.514   0.865  0.2383  1.1675 -0.5309
 6949TIP3   OH242337   4.949   1.094  15.178  0.0787  0.3724 -0.2998
 6949TIP3    H142338   4.868   1.100  15.128 -1.8426 -1.1544  2.3891
 6949TIP3    H242339   4.963   1.182  15.212 -1.4712  0.3017  0.6016
 6950TIP3   OH242340   5.606   3.521   5.892  0.2370 -0.1520  0.1154
 6950TIP3    H142341   5.562   3.598   5.855  1.9472  0.7174 -0.2129
 6950TIP3    H242342   5.554   3.447   5.861 -0.3296  0.7609 -1.2307
 6951TIP3   OH242343   2.669   3.682   4.935  0.3827  0.1722  0.2431
 6951TIP3    H142344   2.634   3.593   4.946  0.2963  0.1964  0.1726
 6951TIP3    H242345   2.763   3.673   4.952  0.9201 -0.5153 -2.5707
 6952TIP3   OH242346   1.503   3.572  14.703  0.1390 -0.4468 -0.2155
 6952TIP3    H142347   1.474   3.481  14.703 -1.2286 -0.0293 -0.0315
 6952TIP3    H242348   1.496   3.599  14.611  3.5007 -1.3732 -0.8857
 6953TIP3   OH242349   4.283   4.039  11.126 -0.0008  0.2980 -0.3781
 6953TIP3    H142350   4.232   4.119  11.139  1.2692  1.1157 -0.2928
 6953TIP3    H242351   4.370   4.069  11.099  0.1607 -1.0963 -1.5579
 6954TIP3   OH242352   1.679   2.403   1.714  0.0251  0.7533 -0.4375
 6954TIP3    H142353   1.647   2.493   1.706 -1.5442  0.4079  1.1884
 6954TIP3    H242354   1.687   2.389   1.809 -1.0628 -1.2222 -0.5857
 6955TIP3   OH242355   4.437   5.967  13.071 -0.6597 -0.2966 -0.0879
 6955TIP3    H142356   4.511   5.946  13.014  1.2528  0.6262  1.9318
 6955TIP3    H242357   4.360   5.953  13.015  1.0298 -0.2017 -2.6325
 6956TIP3   OH242358   4.776   3.628   2.239 -0.3896  0.5141  0.2840
 6956TIP3    H142359   4.797   3.671   2.156 -1.3633 -0.3153 -0.4170
 6956TIP3    H242360   4.685   3.653   2.256 -0.3841  0.1898  0.7933
 6957TIP3   OH242361   0.400   6.055   6.458 -0.4465  0.2953 -0.4289
 6957TIP3    H142362   0.487   6.072   6.495 -0.0062 -0.1002 -1.2557
 6957TIP3    H242363   0.382   5.964   6.481 -1.1307  0.7051  0.6920
 6958TIP3   OH242364   5.768   2.828  11.842 -0.2353  0.1528 -0.2432
 6958TIP3    H142365   5.772   2.896  11.910  1.2397 -0.4426  0.3070
 6958TIP3    H242366   5.682   2.789  11.853 -0.8451  1.4737 -0.1177
 6959TIP3   OH242367   2.131   6.774   4.602 -0.0257  0.4297 -0.4163
 6959TIP3    H142368   2.072   6.738   4.669  1.2331  0.0461  0.5258
 6959TIP3    H242369   2.147   6.864   4.632  1.3863 -0.0690  0.4397
 6960TIP3   OH242370   5.619   3.870   5.551 -0.0052  0.2976 -0.3587
 6960TIP3    H142371   5.684   3.894   5.617 -1.1280  0.5089  0.7040
 6960TIP3    H242372   5.554   3.940   5.555  0.8488  1.3793 -3.0904
 6961TIP3   OH242373   1.195   3.872  12.465  0.4694 -0.2090  0.0697
 6961TIP3    H142374   1.121   3.812  12.476  0.7999 -0.7308 -0.4493
 6961TIP3    H242375   1.269   3.827  12.507  0.3371  0.6604  1.2778
 6962TIP3   OH242376   4.336   5.181  15.161 -0.0848 -0.3564 -0.1276
 6962TIP3    H142377   4.409   5.241  15.148  0.3995 -0.8164  0.4131
 6962TIP3    H242378   4.368   5.117  15.224 -0.3202 -1.6429 -1.2599
 6963TIP3   OH242379   0.543   4.534  14.893 -0.4649 -0.0688 -0.5647
 6963TIP3    H142380   0.483   4.459  14.903  0.0101 -0.4670 -0.6587
 6963TIP3    H242381   0.573   4.528  14.803 -1.7543  1.2586 -1.1221
 6964TIP3   OH242382   4.271   4.856  13.429  0.0619  0.5930 -0.4876
 6964TIP3    H142383   4.280   4.762  13.445  0.0019  0.3666 -1.6873
 6964TIP3    H242384   4.222   4.862  13.347 -1.3022  1.6983  0.3711
 6965TIP3   OH242385   0.955   4.110   4.852  0.0563 -0.0712 -0.1763
 6965TIP3    H142386   1.001   4.037   4.893  0.1361  1.3008  2.3658
 6965TIP3    H242387   1.023   4.176   4.838 -0.3122  0.1706 -0.8750
 6966TIP3   OH242388   4.385   4.472  14.787 -0.5323  0.4490  0.0852
 6966TIP3    H142389   4.439   4.546  14.817  0.4226 -0.2687  0.1946
 6966TIP3    H242390   4.358   4.496  14.699 -2.6673  2.2146  1.1130
 6967TIP3   OH242391   1.143   6.468   1.931 -0.4307 -0.6579  0.5015
 6967TIP3    H142392   1.199   6.402   1.972  0.5387  0.6675  1.4093
 6967TIP3    H242393   1.204   6.536   1.901 -1.4552  0.1956  0.2930
 6968TIP3   OH242394   4.199   2.933   3.629  0.2435 -0.2730 -0.0039
 6968TIP3    H142395   4.230   2.953   3.541  1.7521  0.3785  0.6468
 6968TIP3    H242396   4.226   3.009   3.682 -1.9625  0.0698  0.7466
 6969TIP3   OH242397   1.126   1.103  15.833  0.3145  0.3037 -0.4353
 6969TIP3    H142398   1.048   1.139  15.792  1.2870  0.7569 -1.9884
 6969TIP3    H242399   1.093   1.040  15.898 -1.3645 -2.3895 -3.6038
 6970TIP3   OH242400   0.407   5.631  13.218  0.4146  0.3079 -0.1583
 6970TIP3    H142401   0.474   5.565  13.199  1.5178  1.2725  0.3005
 6970TIP3    H242402   0.434   5.708  13.168  0.0162  0.9125  0.5400
 6971TIP3   OH242403   2.898   3.545   0.310 -0.4632  0.1965  0.6340
 6971TIP3    H142404   2.890   3.463   0.261 -0.4900 -0.3968  1.6135
 6971TIP3    H242405   2.919   3.610   0.243 -1.8957 -0.3200 -0.3905
 6972TIP3   OH242406   0.772   5.428  13.021  0.2558 -0.3152 -0.5450
 6972TIP3    H142407   0.855   5.476  13.017 -0.0538  0.1400 -2.6051
 6972TIP3    H242408   0.743   5.439  13.111  0.1130  3.6119 -0.8827
 6973TIP3   OH242409   0.770   3.288  12.963 -0.0385 -0.4352 -0.5734
 6973TIP3    H142410   0.821   3.210  12.985  1.8994  1.4152  2.1666
 6973TIP3    H242411   0.811   3.322  12.883 -0.0348 -1.4850 -1.0262
 6974TIP3   OH242412   5.720   1.866   1.540  0.0344 -0.5444  0.1780
 6974TIP3    H142413   5.727   1.783   1.587  0.6932  0.1688  1.3974
 6974TIP3    H242414   5.661   1.919   1.594  0.3691  0.1004 -0.0838
 6975TIP3   OH242415   1.900   2.104  15.265  0.6624  0.1741 -0.1837
 6975TIP3    H142416   1.934   2.015  15.278 -1.3438 -0.6470 -0.0745
 6975TIP3    H242417   1.887   2.138  15.354 -1.7083 -0.7815 -0.0822
 6976TIP3   OH242418   3.218   6.259  16.111  0.2482  0.4102  0.3300
 6976TIP3    H142419   3.155   6.209  16.059  2.0338 -0.8895 -0.6993
 6976TIP3    H242420   3.166   6.298  16.181 -1.4079 -2.0069  0.5483
 6977TIP3   OH242421   6.428   3.667  12.219 -0.2786  0.6241  0.2396
 6977TIP3    H142422   6.407   3.654  12.127 -1.7966  1.5272  0.4154
 6977TIP3    H242423   6.502   3.609  12.236 -0.9110 -0.6579 -1.1810
 6978TIP3   OH242424   1.665   1.892   1.755  0.1596 -0.2944  0.0882
 6978TIP3    H142425   1.590   1.837   1.730 -1.0017  0.7328  1.1871
 6978TIP3    H242426   1.654   1.972   1.704  0.8147 -0.3435 -0.1368
 6979TIP3   OH242427   5.789   0.101  14.510  0.0605 -0.2507  0.7026
 6979TIP3    H142428   5.851   0.139  14.574  0.9007 -0.3824 -0.0172
 6979TIP3    H242429   5.713   0.159  14.514  1.2547  1.4611 -0.2552
 6980TIP3   OH242430   1.070   6.429  15.194 -0.5731  0.2711  0.1232
 6980TIP3    H142431   1.042   6.456  15.282  2.5715  1.4570  0.8833
 6980TIP3    H242432   1.082   6.334  15.201 -0.6434  0.3093  0.8733
 6981TIP3   OH242433   4.471   0.411   5.576 -0.2037 -0.5335 -0.3042
 6981TIP3    H142434   4.376   0.405   5.578 -0.1117 -2.3276  0.2331
 6981TIP3    H242435   4.498   0.342   5.515  0.7000  1.3958 -2.2656
 6982TIP3   OH242436   3.059   5.893   4.833  1.0611 -0.1489  0.0377
 6982TIP3    H142437   3.040   5.864   4.744 -1.7683  0.9362  0.1641
 6982TIP3    H242438   3.044   5.816   4.887 -1.5031  0.1445 -0.1019
 6983TIP3   OH242439   4.642   5.262   6.330 -0.7315  0.0169  0.1271
 6983TIP3    H142440   4.642   5.284   6.237 -1.3722  2.1575  0.5807
 6983TIP3    H242441   4.555   5.226   6.346  0.3523 -3.2635 -0.6386
 6984TIP3   OH242442   6.661   4.790  14.977 -0.0848 -0.4743  0.0147
 6984TIP3    H142443   6.617   4.805  15.061  0.2154  0.9253 -0.0499
 6984TIP3    H242444   6.689   4.699  14.980 -0.3912 -0.5394  1.2959
 6985TIP3   OH242445   0.938   3.680  16.809  0.2555 -0.3543  0.4413
 6985TIP3    H142446   0.845   3.690  16.790  0.2891 -1.2380 -0.2470
 6985TIP3    H242447   0.982   3.703  16.728  0.6158 -0.4469  0.6091
 6986TIP3   OH242448   0.474   2.117   0.641  0.6263 -0.3078 -0.1266
 6986TIP3    H142449   0.423   2.037   0.627  0.2292 -0.5732  2.3818
 6986TIP3    H242450   0.565   2.087   0.643  0.6103 -0.4214 -0.8203
 6987TIP3   OH242451   2.982   5.286  12.339  0.1389  0.3015  0.0427
 6987TIP3    H142452   2.931   5.332  12.272  2.4237  1.5522 -0.9791
 6987TIP3    H242453   3.042   5.231  12.290 -0.7671 -1.8499  1.2267
 6988TIP3   OH242454   0.705   5.811  14.964 -0.1103  0.2070 -0.0134
 6988TIP3    H142455   0.660   5.744  14.914  0.6887  0.5761 -1.2727
 6988TIP3    H242456   0.763   5.763  15.023  1.1111 -0.2515 -1.5170
 6989TIP3   OH242457   3.077   0.159  14.663 -0.1114 -0.1243 -0.0978
 6989TIP3    H142458   3.031   0.243  14.665  0.0534 -0.0489  0.3853
 6989TIP3    H242459   3.026   0.106  14.601 -0.5562  0.1314  0.0473
 6990TIP3   OH242460   6.304   2.888  16.008  0.0628 -0.4025 -0.4644
 6990TIP3    H142461   6.359   2.956  15.968 -1.7646  1.4918  0.0345
 6990TIP3    H242462   6.263   2.844  15.933 -0.2457  0.3996 -0.7808
 6991TIP3   OH242463   2.653   3.630   3.677  0.2487  0.1279 -0.4951
 6991TIP3    H142464   2.713   3.680   3.733  1.1748 -0.4880 -0.9042
 6991TIP3    H242465   2.649   3.543   3.716 -2.0761  0.7082  0.7317
 6992TIP3   OH242466   3.470   3.606  13.703  0.3714  0.3295  0.0261
 6992TIP3    H142467   3.413   3.663  13.652 -0.1658 -0.7488 -0.6273
 6992TIP3    H242468   3.432   3.518  13.691  1.2225 -0.1775  0.9141
 6993TIP3   OH242469   6.706   1.866  11.387  0.2877  0.5669  0.4791
 6993TIP3    H142470   6.718   1.924  11.312 -1.3772 -0.0312 -0.2922
 6993TIP3    H242471   6.765   1.793  11.371 -1.1900 -0.3527 -1.1284
 6994TIP3   OH242472   1.264   4.049  11.313  0.2331  0.5103  0.4621
 6994TIP3    H142473   1.321   4.126  11.308 -0.1211  0.6797 -2.9543
 6994TIP3    H242474   1.176   4.084  11.300 -0.0275 -0.3513 -0.1774
 6995TIP3   OH242475   1.143   1.497   0.170  0.1912 -0.0035  0.1311
 6995TIP3    H142476   1.112   1.445   0.243 -2.4772 -0.0185 -0.9128
 6995TIP3    H242477   1.075   1.490   0.104  1.3667  1.9701 -1.4336
 6996TIP3   OH242478   3.013   6.666   1.767  0.4658 -0.1508 -0.2834
 6996TIP3    H142479   3.104   6.647   1.790 -0.0349 -0.0770  2.0304
 6996TIP3    H242480   2.971   6.579   1.764  0.0528 -0.0749  1.5785
 6997TIP3   OH242481   4.504   0.205   3.050  0.1931  0.0429  0.0374
 6997TIP3    H142482   4.495   0.271   2.981  3.3582  1.2376  0.6072
 6997TIP3    H242483   4.468   0.125   3.012 -0.3174  1.2246 -2.0968
 6998TIP3   OH242484   1.703   5.837   4.274 -0.2031 -0.2582 -0.1974
 6998TIP3    H142485   1.653   5.756   4.283  0.4625 -0.6758 -0.1714
 6998TIP3    H242486   1.665   5.881   4.198 -0.7136 -0.4871 -0.0746
 6999TIP3   OH242487   2.824   2.909  16.751  0.0770 -0.5485 -0.1575
 6999TIP3    H142488   2.873   2.845  16.804  0.2471 -1.8514 -1.7791
 6999TIP3    H242489   2.736   2.910  16.789 -0.5624 -3.3975 -1.2889
 7000TIP3   OH242490   1.629   1.289  12.404 -0.0770 -0.4420  0.9763
 7000TIP3    H142491   1.596   1.259  12.319  0.1725  0.5674  0.5032
 7000TIP3    H242492   1.552   1.286  12.461 -0.6033  0.2485  0.3284
 7001TIP3   OH242493   1.398   2.939   1.911 -0.1507 -0.0527 -0.2333
 7001TIP3    H142494   1.449   3.012   1.875  0.7872 -0.5089  0.1130
 7001TIP3    H242495   1.309   2.953   1.879 -0.2591  1.8858  0.7948
 7002TIP3   OH242496   0.409   3.802   1.984 -0.0538 -0.2114  0.3059
 7002TIP3    H142497   0.355   3.787   1.906  1.7025 -1.4452 -0.7500
 7002TIP3    H242498   0.354   3.772   2.057 -0.3796 -2.6989 -0.8450
 7003TIP3   OH242499   1.677   3.892   6.755  0.2528 -0.0477 -0.0968
 7003TIP3    H142500   1.625   3.864   6.680 -1.3617  1.8954  0.2082
 7003TIP3    H242501   1.741   3.953   6.718 -0.1093  0.3967  0.0004
 7004TIP3   OH242502   2.294   5.264   0.307 -0.0334  0.3700 -0.4250
 7004TIP3    H142503   2.314   5.227   0.221 -1.4734 -0.9216 -0.2611
 7004TIP3    H242504   2.213   5.312   0.294  0.3997  1.2217 -0.0365
 7005TIP3   OH242505   6.004   4.649  14.173 -0.3359  0.6229  0.5660
 7005TIP3    H142506   6.082   4.594  14.163  0.0961  1.3857 -0.4195
 7005TIP3    H242507   5.953   4.634  14.094 -0.8195  0.7011  0.8612
 7006TIP3   OH242508   5.419   3.217  14.884 -0.1449 -0.5253  0.3716
 7006TIP3    H142509   5.399   3.284  14.950 -1.3011  2.8411 -2.9802
 7006TIP3    H242510   5.334   3.195  14.846  0.4145 -2.8276  0.3360
 7007TIP3   OH242511   1.998   5.541  16.570  0.2383 -0.4328  0.3225
 7007TIP3    H142512   1.915   5.568  16.610  0.2861  2.1284 -1.0909
 7007TIP3    H242513   2.061   5.544  16.642 -0.2669  0.9870  0.7373
 7008TIP3   OH242514   3.392   5.150   0.765 -0.1742 -0.3767 -0.0957
 7008TIP3    H142515   3.307   5.193   0.779 -0.1939 -0.6666  0.7398
 7008TIP3    H242516   3.386   5.114   0.677 -1.5712 -1.8193  0.5288
 7009TIP3   OH242517   1.994   5.336   6.154 -0.2944 -0.0094 -0.3870
 7009TIP3    H142518   1.991   5.349   6.059 -0.5385 -2.4847 -0.8014
 7009TIP3    H242519   2.011   5.423   6.190  1.5633  0.7375 -2.7820
 7010TIP3   OH242520   2.564   6.768  14.477 -0.3336  0.1158 -0.0940
 7010TIP3    H142521   2.611   6.823  14.415  1.4267 -1.4978 -0.2810
 7010TIP3    H242522   2.548   6.686  14.430 -0.7936 -0.3950  0.9077
 7011TIP3   OH242523   1.556   3.900  10.899 -0.2570  0.8644 -0.1262
 7011TIP3    H142524   1.584   3.809  10.910 -0.7519  0.5169 -1.5970
 7011TIP3    H242525   1.596   3.928  10.817 -0.3844  1.8889  0.1440
 7012TIP3   OH242526   1.948   1.317  10.489  0.0242  0.0557  0.3627
 7012TIP3    H142527   1.924   1.405  10.517  0.7425  0.2483  0.4037
 7012TIP3    H242528   1.919   1.260  10.560  0.2974  0.3527  0.7153
 7013TIP3   OH242529   5.111   1.226   2.502  0.2413  0.1647 -0.2402
 7013TIP3    H142530   5.030   1.197   2.459  0.2958 -0.5963  0.1577
 7013TIP3    H242531   5.177   1.162   2.473  0.3963 -0.0338  0.5300
 7014TIP3   OH242532   0.297   1.015  12.275 -0.3485  0.4084  0.3293
 7014TIP3    H142533   0.293   1.104  12.240 -1.7472  0.3530  0.3054
 7014TIP3    H242534   0.330   0.962  12.203 -0.5387  0.7381 -0.0037
 7015TIP3   OH242535   1.847   2.212   2.610 -0.2837 -0.0429 -0.3245
 7015TIP3    H142536   1.843   2.138   2.549  1.6806  0.1687 -0.7641
 7015TIP3    H242537   1.910   2.185   2.677 -1.5759  0.1870  1.0228
 7016TIP3   OH242538   6.457   5.587  17.002 -0.1161  0.0779  0.8855
 7016TIP3    H142539   6.410   5.506  16.983  0.1988  0.4802 -2.0640
 7016TIP3    H242540   6.548   5.561  17.015 -0.2298 -0.1530  1.2266
 7017TIP3   OH242541   4.052   4.149   0.308  0.1070  0.2710 -0.3307
 7017TIP3    H142542   4.131   4.129   0.359 -1.1793 -0.0376  1.6723
 7017TIP3    H242543   4.013   4.223   0.354 -1.3162 -0.2597 -0.6509
 7018TIP3   OH242544   3.813   5.531  14.139  0.0401  0.6591 -0.0117
 7018TIP3    H142545   3.883   5.490  14.089  0.2466  2.8311 -1.6150
 7018TIP3    H242546   3.851   5.612  14.172 -0.7272  0.2535  2.0390
 7019TIP3   OH242547   0.342   0.398   0.814  0.1688  0.2241 -0.4450
 7019TIP3    H142548   0.412   0.348   0.856 -0.9557 -3.1035 -2.1720
 7019TIP3    H242549   0.279   0.332   0.786 -1.4561  2.6529 -3.0358
 7020TIP3   OH242550   5.729   6.190  11.614 -0.4278 -0.1902 -0.4688
 7020TIP3    H142551   5.739   6.131  11.689  0.6263  0.1206 -0.3588
 7020TIP3    H242552   5.788   6.263  11.632 -0.2051 -0.0829 -1.5665
 7021TIP3   OH242553   4.469   6.529  13.141  0.0915  0.2105  0.1776
 7021TIP3    H142554   4.552   6.561  13.107 -0.1112 -0.7767 -1.3359
 7021TIP3    H242555   4.475   6.434  13.133 -1.0658  0.1161  0.3118
 7022TIP3   OH242556   5.941   2.276  11.430  0.1880  0.1693 -0.2344
 7022TIP3    H142557   6.005   2.207  11.448  0.0041  0.3493  1.2331
 7022TIP3    H242558   5.993   2.356  11.427  0.3580  0.0339 -1.6265
 7023TIP3   OH242559   5.758   6.421   5.868 -0.0508  0.4380  0.0241
 7023TIP3    H142560   5.821   6.381   5.807 -1.6860  0.9781 -2.1515
 7023TIP3    H242561   5.771   6.515   5.857  0.0080  0.5521  0.9800
 7024TIP3   OH242562   2.252   0.164   5.155 -0.3832  0.1531  0.2665
 7024TIP3    H142563   2.297   0.088   5.192  1.4196  1.7325  1.5199
 7024TIP3    H242564   2.163   0.158   5.188 -1.0041 -2.6267 -1.6044
 7025TIP3   OH242565   5.565   0.948   0.052 -0.0786 -0.0274  0.0452
 7025TIP3    H142566   5.561   1.040   0.077  1.3317  0.0507  0.0499
 7025TIP3    H242567   5.638   0.942  -0.009  0.5806 -1.3258  0.9096
 7026TIP3   OH242568   5.232   1.543   2.751  0.2243  0.2630 -0.1038
 7026TIP3    H142569   5.197   1.524   2.838  0.0024 -0.4960 -0.3508
 7026TIP3    H242570   5.322   1.509   2.753 -0.5073 -1.8877 -0.8828
 7027TIP3   OH242571   2.319   4.442  15.894 -0.2153  0.2347 -0.0025
 7027TIP3    H142572   2.378   4.386  15.944  0.4179  0.9231  0.0425
 7027TIP3    H242573   2.369   4.467  15.816 -1.2302 -0.9296 -1.0863
 7028TIP3   OH242574   4.389   4.902  12.538  0.1299 -0.1947  0.2626
 7028TIP3    H142575   4.304   4.869  12.566  0.2716 -2.3985 -1.6398
 7028TIP3    H242576   4.371   4.950  12.457  0.1257  3.6383  2.2880
 7029TIP3   OH242577   2.670   4.309  14.295 -0.8395  0.2678 -0.2818
 7029TIP3    H142578   2.694   4.359  14.217  0.4153 -1.3256 -0.9594
 7029TIP3    H242579   2.605   4.245  14.265  0.4949 -1.1181 -0.3119
 7030TIP3   OH242580   5.923   0.899  10.816  0.6765 -0.2858 -0.4199
 7030TIP3    H142581   5.937   0.921  10.724  0.7122  0.8655 -0.1559
 7030TIP3    H242582   5.938   0.804  10.821  0.3922 -0.4031 -1.6410
 7031TIP3   OH242583   4.310   4.097  10.306 -0.5145  0.4362  0.3876
 7031TIP3    H142584   4.293   4.013  10.349  0.0328 -0.2396 -0.6710
 7031TIP3    H242585   4.406   4.103  10.303 -0.5491  0.7682 -0.1593
 7032TIP3   OH242586   0.017   3.265   5.351  0.4913 -0.0198 -1.0473
 7032TIP3    H142587   0.014   3.170   5.334  0.2395 -0.4787  1.3019
 7032TIP3    H242588  -0.011   3.274   5.442  0.6058  2.3283 -1.2011
 7033TIP3   OH242589   3.339   2.010  11.662 -0.3118  0.0186  0.4060
 7033TIP3    H142590   3.316   2.061  11.585 -0.8743  0.1512  0.6528
 7033TIP3    H242591   3.259   1.960  11.682 -0.4002  0.4975  1.3013
 7034TIP3   OH242592   4.802   3.688  12.504 -0.6493  0.4790  0.2294
 7034TIP3    H142593   4.729   3.726  12.554 -0.3591  1.0378  0.2437
 7034TIP3    H242594   4.761   3.634  12.438 -1.0359 -0.6538  1.3638
 7035TIP3   OH242595   6.151   0.148   6.106  0.4545  0.2307  0.1156
 7035TIP3    H142596   6.096   0.215   6.145 -0.5258 -0.1992 -0.4692
 7035TIP3    H242597   6.224   0.196   6.068 -0.3059  0.9943 -0.4297
 7036TIP3   OH242598   6.172   1.650   3.030 -0.8124 -0.7460  0.5772
 7036TIP3    H142599   6.106   1.719   3.022  0.0998 -0.0495 -2.6752
 7036TIP3    H242600   6.254   1.692   3.005 -0.0068 -2.6638 -0.2671
 7037TIP3   OH242601   1.161   2.369  12.897 -0.0474  0.1344 -0.4309
 7037TIP3    H142602   1.252   2.358  12.926  0.0481 -0.3205 -0.8875
 7037TIP3    H242603   1.168   2.376  12.801 -0.3969  1.1526 -0.3914
 7038TIP3   OH242604   4.481   4.272  14.363  0.3763 -0.4035  0.1241
 7038TIP3    H142605   4.521   4.358  14.363 -0.4401 -0.0094  0.6017
 7038TIP3    H242606   4.545   4.215  14.320  0.5987  0.5810 -0.8644
 7039TIP3   OH242607   2.624   4.237   5.030  0.5101 -0.0598 -0.3948
 7039TIP3    H142608   2.642   4.201   4.943 -0.0360  0.3577 -0.6869
 7039TIP3    H242609   2.701   4.214   5.082  2.3060  2.3145 -1.7945
 7040TIP3   OH242610   5.824   2.099   0.799 -0.0789 -0.6282  0.1595
 7040TIP3    H142611   5.789   2.188   0.808 -1.0850 -1.1690  2.2558
 7040TIP3    H242612   5.846   2.073   0.888  1.4929 -2.0119 -0.5884
 7041TIP3   OH242613   6.264   1.427  16.609  0.0410 -0.0999  0.3064
 7041TIP3    H142614   6.320   1.450  16.535  1.3749 -2.3916  0.4864
 7041TIP3    H242615   6.298   1.479  16.682 -0.3704  1.1214 -0.3456
 7042TIP3   OH242616   3.408   1.060  10.768  0.6732 -0.4327 -0.3121
 7042TIP3    H142617   3.322   1.102  10.758  0.9008 -0.1133 -1.0068
 7042TIP3    H242618   3.388   0.970  10.794  0.1910  0.3834  2.4672
 7043TIP3   OH242619   3.693   5.317   2.224  0.2920 -0.4616  0.2535
 7043TIP3    H142620   3.625   5.304   2.158  0.0453 -0.4253  0.4989
 7043TIP3    H242621   3.687   5.241   2.281 -1.2019  0.6792  1.7323
 7044TIP3   OH242622   5.074   5.672  13.562  0.2248  0.4560  0.1830
 7044TIP3    H142623   4.980   5.688  13.553  0.1790  0.6082  0.8701
 7044TIP3    H242624   5.084   5.579  13.541 -0.3066  0.0592  1.5173
 7045TIP3   OH242625   6.152   5.430   1.867 -0.0064  0.1062  0.3183
 7045TIP3    H142626   6.201   5.458   1.945  0.1517 -2.5631  1.2748
 7045TIP3    H242627   6.061   5.434   1.894 -0.0206  0.2419  0.2513
 7046TIP3   OH242628   0.244   5.448   6.708 -0.5026 -0.5135  0.5268
 7046TIP3    H142629   0.320   5.486   6.665  1.4151 -2.1759  2.2290
 7046TIP3    H242630   0.191   5.524   6.734  0.7501  0.7036 -0.3522
 7047TIP3   OH242631   0.074   0.290   5.512 -0.3158 -0.6730 -0.0953
 7047TIP3    H142632   0.031   0.270   5.595 -0.8218  1.3420  0.1971
 7047TIP3    H242633   0.096   0.205   5.475 -0.2117 -1.6457  2.0163
 7048TIP3   OH242634   4.006   0.289  12.446  0.3460  0.2116  0.4004
 7048TIP3    H142635   4.049   0.227  12.387 -2.3768 -0.4849 -1.0543
 7048TIP3    H242636   4.049   0.276  12.530  3.1769 -0.0724 -0.9915
 7049TIP3   OH242637   4.467   3.733   2.998  0.0001 -0.2294 -0.0962
 7049TIP3    H142638   4.527   3.798   3.033  0.1591  0.3110 -1.3171
 7049TIP3    H242639   4.497   3.718   2.908 -1.0949 -0.6704 -0.4110
 7050TIP3   OH242640   4.884   0.773  15.630 -0.1684 -0.4268 -0.7628
 7050TIP3    H142641   4.828   0.807  15.560 -0.9288 -0.9813 -0.4391
 7050TIP3    H242642   4.966   0.752  15.586 -1.0728 -2.0254 -1.7806
 7051TIP3   OH242643   5.584   3.446  10.965 -0.1307 -0.4527  0.6816
 7051TIP3    H142644   5.531   3.435  10.886  1.1136  0.4006 -0.3129
 7051TIP3    H242645   5.650   3.510  10.940  1.3744 -1.4810  1.8739
 7052TIP3   OH242646   4.759   6.680   1.734  0.1042  0.6256  0.1828
 7052TIP3    H142647   4.707   6.737   1.677  4.1259  2.7358 -1.8412
 7052TIP3    H242648   4.766   6.598   1.685 -0.7324  0.5227  0.2133
 7053TIP3   OH242649   3.391   3.288  13.721 -0.3571  0.6091 -0.1988
 7053TIP3    H142650   3.423   3.234  13.649 -0.4029  1.0972 -0.5863
 7053TIP3    H242651   3.302   3.312  13.696 -0.5872  0.3009  0.2954
 7054TIP3   OH242652   0.474   6.390  15.085 -0.0222  0.1589 -0.2309
 7054TIP3    H142653   0.518   6.422  15.164  1.4933 -1.4027 -0.3879
 7054TIP3    H242654   0.482   6.461  15.022  0.9744  0.4614  0.2283
 7055TIP3   OH242655   2.636   6.323  14.560 -0.3099 -0.7590  0.3118
 7055TIP3    H142656   2.700   6.348  14.626  0.1398  1.0968 -0.7435
 7055TIP3    H242657   2.671   6.243  14.522  0.9467 -0.2648  0.3750
 7056TIP3   OH242658   4.568   6.502   0.950  0.4580  0.2380 -0.2331
 7056TIP3    H142659   4.639   6.471   1.006 -0.5968 -0.9626  0.4843
 7056TIP3    H242660   4.610   6.519   0.865  1.5361 -0.7924  0.0689
 7057TIP3   OH242661   0.431   5.702  16.310  0.0543  0.3223  0.5833
 7057TIP3    H142662   0.406   5.710  16.218 -0.3721 -0.9353  0.5720
 7057TIP3    H242663   0.521   5.733  16.313  0.3873 -0.4741 -0.4341
 7058TIP3   OH242664   5.346   4.195  16.802 -0.0033 -0.0442 -0.8662
 7058TIP3    H142665   5.341   4.242  16.718 -0.9378 -1.2050 -1.4900
 7058TIP3    H242666   5.261   4.150  16.809  0.0040  0.1430  0.7773
 7059TIP3   OH242667   2.375   2.171   3.463 -0.0664  0.5982 -0.8469
 7059TIP3    H142668   2.309   2.137   3.525  2.7025 -0.2536  1.9269
 7059TIP3    H242669   2.364   2.116   3.385 -2.2635  0.1604 -0.3148
 7060TIP3   OH242670   3.416   2.737   5.650 -0.0922 -0.0219  0.3904
 7060TIP3    H142671   3.431   2.660   5.596  2.8710  1.6051 -1.4017
 7060TIP3    H242672   3.417   2.704   5.740 -0.9294 -2.2759 -0.3743
 7061TIP3   OH242673   3.462   6.673  12.830 -0.2061 -0.4588 -0.2144
 7061TIP3    H142674   3.421   6.670  12.743 -3.1409 -0.4838  1.0409
 7061TIP3    H242675   3.503   6.760  12.833  0.9480 -0.8784 -1.9679
 7062TIP3   OH242676   5.010   6.737   4.236  0.1710  0.2245 -0.3913
 7062TIP3    H142677   5.014   6.701   4.148 -1.9337  0.2006 -0.5225
 7062TIP3    H242678   5.040   6.666   4.292  0.3008 -0.2005 -0.9886
 7063TIP3   OH242679   1.411   3.761  10.604 -0.5216 -0.7239  0.0741
 7063TIP3    H142680   1.333   3.815  10.612  0.1854  0.0752  2.4054
 7063TIP3    H242681   1.378   3.673  10.590 -1.7372 -0.0390 -1.7266
 7064TIP3   OH242682   4.748   3.357   4.993 -0.1134  0.0847 -0.7346
 7064TIP3    H142683   4.677   3.416   5.018 -0.4785  0.2106 -2.0158
 7064TIP3    H242684   4.743   3.285   5.056 -1.0635  0.3307 -0.5161
 7065TIP3   OH242685   4.673   0.525   6.089 -0.2853  0.2232  0.2796
 7065TIP3    H142686   4.672   0.555   6.180  2.3185 -0.9131  0.8022
 7065TIP3    H242687   4.682   0.604   6.037  1.7500  0.7401  1.3027
 7066TIP3   OH242688   6.518   3.547   1.313  0.3805 -0.4009  0.1683
 7066TIP3    H142689   6.572   3.611   1.265  2.4026 -1.2055  1.2666
 7066TIP3    H242690   6.428   3.573   1.293  1.1346  1.0957 -1.6435
 7067TIP3   OH242691   4.843   6.006   3.204 -0.0806 -0.5091 -0.2462
 7067TIP3    H142692   4.884   5.989   3.119  1.0211 -1.0699  0.3762
 7067TIP3    H242693   4.770   5.945   3.208 -0.8151  0.2715 -1.2332
 7068TIP3   OH242694   0.830   6.570   5.901 -0.0136  0.4061  0.2721
 7068TIP3    H142695   0.825   6.499   5.964  0.5491 -0.6786 -0.8638
 7068TIP3    H242696   0.845   6.648   5.954  0.4537 -0.4671  1.4702
 7069TIP3   OH242697   0.633   1.952  14.934 -0.4045  0.3174 -0.2540
 7069TIP3    H142698   0.684   1.912  14.863 -0.0829 -0.0021  0.1570
 7069TIP3    H242699   0.661   1.907  15.013 -1.1691  0.2885  0.0114
 7070TIP3   OH242700   5.426   1.998  16.760 -0.3142 -0.1143  0.2436
 7070TIP3    H142701   5.455   2.079  16.717  1.5076  0.0912  1.7553
 7070TIP3    H242702   5.479   1.993  16.839 -0.1816 -2.9534  0.0582
 7071TIP3   OH242703   1.025   4.713  14.353  0.1968  0.3974 -0.3425
 7071TIP3    H142704   1.090   4.734  14.286 -0.9284 -0.8570 -1.8894
 7071TIP3    H242705   0.994   4.799  14.385  0.1741  1.0357 -2.0166
 7072TIP3   OH242706   1.561   6.367   0.143 -0.0910  0.8148  0.1063
 7072TIP3    H142707   1.602   6.425   0.079  0.7079  2.0490  1.6473
 7072TIP3    H242708   1.489   6.420   0.180 -0.5929  0.0987  0.1713
 7073TIP3   OH242709   3.484   3.641  13.144 -0.0198  0.5416  0.3491
 7073TIP3    H142710   3.403   3.670  13.186 -0.4190  1.9118 -1.2372
 7073TIP3    H242711   3.542   3.718  13.148  0.3642  0.3069 -0.5166
 7074TIP3   OH242712   6.650   6.147   3.591 -0.2910 -0.2843 -0.0855
 7074TIP3    H142713   6.582   6.214   3.590 -0.9605 -0.9499  0.0815
 7074TIP3    H242714   6.730   6.193   3.566 -0.3130  1.0107  2.0045
 7075TIP3   OH242715   5.661   1.440   5.996  0.6112 -0.1218 -0.2859
 7075TIP3    H142716   5.579   1.440   5.946  0.7363  0.3098 -0.4927
 7075TIP3    H242717   5.633   1.451   6.087  0.5158  1.7539 -0.5077
 7076TIP3   OH242718   2.733   5.188   0.734  0.1088 -0.3004  0.7828
 7076TIP3    H142719   2.825   5.211   0.717  0.1594 -0.5263  0.7487
 7076TIP3    H242720   2.684   5.231   0.664  0.1991 -0.2735  0.7354
 7077TIP3   OH242721   5.655   4.675  14.198 -0.0293 -1.1077  0.1140
 7077TIP3    H142722   5.697   4.636  14.274  1.9226 -1.3266 -0.9950
 7077TIP3    H242723   5.612   4.601  14.154  0.9068 -1.4402 -0.2622
 7078TIP3   OH242724   5.680   5.916  15.464  0.0462 -0.0240  0.2661
 7078TIP3    H142725   5.761   5.893  15.509  0.3357  0.7429  0.1520
 7078TIP3    H242726   5.622   5.841  15.479  0.0264  0.3268  2.1451
 7079TIP3   OH242727   6.294   3.790  14.625 -0.0966 -0.5769  0.7251
 7079TIP3    H142728   6.263   3.739  14.700  0.8237 -2.4071 -0.0476
 7079TIP3    H242729   6.308   3.724  14.556 -0.8711  1.0271 -1.0500
 7080TIP3   OH242730   4.158   4.322   3.905  0.5225  0.2025 -0.0725
 7080TIP3    H142731   4.099   4.248   3.894  0.4115  0.2553  0.1498
 7080TIP3    H242732   4.224   4.292   3.967 -0.3682  0.7633  1.2024
 7081TIP3   OH242733   1.366   2.144  14.304 -0.6991 -0.4838  0.2168
 7081TIP3    H142734   1.323   2.147  14.389 -0.2921 -0.0381  0.4149
 7081TIP3    H242735   1.300   2.109  14.244 -2.3255  2.7375 -0.0816
 7082TIP3   OH242736   3.682   2.291  14.630 -0.5429 -0.0867 -0.0226
 7082TIP3    H142737   3.626   2.215  14.613  0.2525 -0.8828  0.7836
 7082TIP3    H242738   3.747   2.259  14.692 -0.2549  1.2972  0.4305
 7083TIP3   OH242739   1.823   5.842  15.207 -0.0171 -0.3319  0.2339
 7083TIP3    H142740   1.767   5.895  15.264  0.8211  0.1690  0.6165
 7083TIP3    H242741   1.908   5.840  15.253  0.7482  0.2667 -1.1000
 7084TIP3   OH242742   3.869   6.081   2.041  0.1482 -0.0539  0.0911
 7084TIP3    H142743   3.810   6.153   2.065 -1.9749 -1.5875 -0.1992
 7084TIP3    H242744   3.923   6.067   2.118 -0.3407  0.9545  0.6419
 7085TIP3   OH242745   3.805   3.283  16.137 -0.0090 -0.6646  0.1283
 7085TIP3    H142746   3.864   3.245  16.202  0.2390  1.4301  1.2040
 7085TIP3    H242747   3.721   3.238  16.152 -0.1460  0.2496  2.4069
 7086TIP3   OH242748   1.024   0.386   0.439  0.4000 -0.3661  0.8579
 7086TIP3    H142749   0.978   0.303   0.457 -0.6066 -0.2397 -0.8492
 7086TIP3    H242750   1.037   0.385   0.344  2.7015  0.2948  1.1131
 7087TIP3   OH242751   3.122   3.026  11.683 -0.0436  0.5347 -0.1130
 7087TIP3    H142752   3.155   2.997  11.767 -1.2736  0.6113  0.4167
 7087TIP3    H242753   3.053   2.963  11.661  0.1362  0.6233 -0.9695
 7088TIP3   OH242754   2.211   2.316   4.710 -0.1585  0.6321 -0.2124
 7088TIP3    H142755   2.140   2.272   4.664 -1.2768 -2.3096  3.7805
 7088TIP3    H242756   2.281   2.251   4.713  1.0742  1.8925 -0.2982
 7089TIP3   OH242757   6.748   4.440  12.271  0.1251  0.3237  0.3400
 7089TIP3    H142758   6.705   4.379  12.331 -0.3014  0.7210  0.4416
 7089TIP3    H242759   6.830   4.396  12.247 -0.8861 -1.0165 -0.8542
 7090TIP3   OH242760   1.179   3.885   6.212 -0.1805  1.1241 -0.3656
 7090TIP3    H142761   1.226   3.846   6.139  0.7338  0.8997  0.3359
 7090TIP3    H242762   1.090   3.850   6.204  0.5738 -1.0659  0.1880
 7091TIP3   OH242763   5.622   1.638   2.937 -0.0272 -0.2833 -0.7195
 7091TIP3    H142764   5.673   1.672   2.864 -0.9171  1.2568 -0.6758
 7091TIP3    H242765   5.566   1.570   2.898  0.9978 -0.9640 -1.0325
 7092TIP3   OH242766   5.104   0.253   5.427 -0.3109  0.7459 -0.3319
 7092TIP3    H142767   5.131   0.253   5.519 -0.2380  2.6872 -0.3047
 7092TIP3    H242768   5.185   0.267   5.379 -0.2609 -0.8705 -0.7616
 7093TIP3   OH242769   3.282   2.435  16.551  0.5296 -0.0811  0.3205
 7093TIP3    H142770   3.208   2.378  16.574 -0.8250  1.2923 -0.4396
 7093TIP3    H242771   3.274   2.509  16.611  1.5363 -0.0919  0.4783
 7094TIP3   OH242772   0.859   2.955  11.761  0.2959  0.0713  0.1628
 7094TIP3    H142773   0.811   2.899  11.700  2.2799 -0.2065 -1.2371
 7094TIP3    H242774   0.951   2.933  11.747  0.9592  1.7122  1.5787
 7095TIP3   OH242775   3.787   2.800   1.525  0.6893 -1.3972  0.2064
 7095TIP3    H142776   3.760   2.816   1.616  2.2860  2.6229  0.1988
 7095TIP3    H242777   3.735   2.863   1.474  0.7936 -2.6530 -1.5325
 7096TIP3   OH242778   2.987   1.502  14.844  0.3105  0.0448 -0.3246
 7096TIP3    H142779   3.047   1.433  14.817  0.0067 -0.3828  0.0527
 7096TIP3    H242780   2.900   1.466  14.825  0.0519 -0.5267  1.6820
 7097TIP3   OH242781   3.252   3.019  13.544  0.0924  1.2851  0.5301
 7097TIP3    H142782   3.323   3.075  13.513  0.2743  1.1154  0.6307
 7097TIP3    H242783   3.177   3.042  13.490  0.7596  0.0016 -1.0506
 7098TIP3   OH242784   6.844   5.483   3.219  0.5358  0.2617 -0.0632
 7098TIP3    H142785   6.873   5.393   3.237  0.9572 -0.0166 -1.9342
 7098TIP3    H242786   6.751   5.476   3.200  0.2715  0.4424  1.0599
 7099TIP3   OH242787   0.257   6.394  15.482  0.6061 -0.0974 -0.3658
 7099TIP3    H142788   0.324   6.448  15.523  0.7107 -0.2424 -0.3438
 7099TIP3    H242789   0.227   6.335  15.551 -1.5379  1.7850  0.4322
 7100TIP3   OH242790   5.129   4.630   2.423  0.5487 -0.6593 -0.1275
 7100TIP3    H142791   5.219   4.598   2.420  0.0911 -1.9912 -0.0335
 7100TIP3    H242792   5.087   4.588   2.348 -0.4174 -1.4078  0.8094
 7101TIP3   OH242793   2.886   0.818   0.242 -0.1733 -0.1318  0.4427
 7101TIP3    H142794   2.967   0.844   0.198 -0.1823  0.5023  0.7779
 7101TIP3    H242795   2.829   0.895   0.233 -0.0286  0.1828  1.8908
 7102TIP3   OH242796   1.203   5.637  16.347 -0.2010 -0.5539 -0.1112
 7102TIP3    H142797   1.281   5.634  16.402  0.8605  1.3612 -1.3843
 7102TIP3    H242798   1.227   5.589  16.268 -0.3001  0.0879 -0.5330
 7103TIP3   OH242799   0.829   0.374  14.515 -0.0931  0.3221  0.0935
 7103TIP3    H142800   0.863   0.453  14.557  1.4446  0.6829 -1.6700
 7103TIP3    H242801   0.905   0.334  14.474 -1.2759 -0.5820 -1.3620
 7104TIP3   OH242802   1.522   2.809  11.699  0.0096  0.3833 -0.2628
 7104TIP3    H142803   1.478   2.748  11.758 -0.1789  0.9858  0.2335
 7104TIP3    H242804   1.595   2.759  11.662  0.2901  0.0669  0.6920
 7105TIP3   OH242805   2.607   6.372   5.959  0.4990 -0.4150 -0.0268
 7105TIP3    H142806   2.673   6.337   6.019  2.0377  0.4274 -1.1541
 7105TIP3    H242807   2.638   6.345   5.872  0.8133  2.1694 -0.7925
 7106TIP3   OH242808   2.556   3.429   4.962  0.0602  0.5722  0.3223
 7106TIP3    H142809   2.527   3.409   4.873  2.1146  0.0916 -0.2869
 7106TIP3    H242810   2.476   3.455   5.007 -1.4946 -1.5718 -0.9651
 7107TIP3   OH242811   5.913   3.777   0.449  0.5474 -0.2583  0.4874
 7107TIP3    H142812   5.866   3.851   0.409  0.7808 -0.5048 -0.2615
 7107TIP3    H242813   5.866   3.760   0.530 -0.5824 -0.4015 -0.1745
 7108TIP3   OH242814   5.092   6.452  13.076  0.3414  0.3636 -0.6261
 7108TIP3    H142815   5.044   6.535  13.074  2.2388  1.5281 -0.5394
 7108TIP3    H242816   5.184   6.478  13.081  0.9248 -1.7702  1.1773
 7109TIP3   OH242817   5.611   1.610   0.733  0.5116 -0.2817 -0.1656
 7109TIP3    H142818   5.653   1.678   0.787  0.7308 -0.5557  0.0144
 7109TIP3    H242819   5.662   1.531   0.752 -2.1853 -1.5197  2.8070
 7110TIP3   OH242820   3.340   1.893   2.203  0.2571  0.2212 -0.1220
 7110TIP3    H142821   3.283   1.817   2.208  1.2293 -0.4645  1.2130
 7110TIP3    H242822   3.377   1.890   2.115  0.0631 -0.6807 -0.1810
 7111TIP3   OH242823   2.661   0.720  11.185  0.3572 -0.3430  0.7309
 7111TIP3    H142824   2.688   0.642  11.232 -0.4589 -1.8779 -1.1770
 7111TIP3    H242825   2.650   0.691  11.094  1.5284  2.3544 -0.3911
 7112TIP3   OH242826   6.467   2.988   0.909 -0.8306  0.2351  0.2714
 7112TIP3    H142827   6.503   3.006   0.823 -1.1987  0.9214  0.2617
 7112TIP3    H242828   6.537   2.940   0.954 -0.0824  1.1340  0.0879
 7113TIP3   OH242829   4.150   1.390  12.999  0.0107 -0.1161  0.1247
 7113TIP3    H142830   4.085   1.355  12.937 -1.1058 -1.5155  1.9872
 7113TIP3    H242831   4.172   1.476  12.964 -0.3417 -0.9320 -2.3620
 7114TIP3   OH242832   0.519   1.980  13.941  0.3588  0.1253  0.4172
 7114TIP3    H142833   0.591   2.022  13.892  1.0668 -2.4368 -0.8909
 7114TIP3    H242834   0.462   2.053  13.966  2.9801  2.1900  0.8368
 7115TIP3   OH242835   2.353   3.533   4.180  0.3069 -0.2139  0.3754
 7115TIP3    H142836   2.442   3.499   4.178  0.3348 -0.1943  1.0329
 7115TIP3    H242837   2.313   3.500   4.099  1.2590  0.7582 -0.5380
 7116TIP3   OH242838   3.906   3.326  15.796 -0.0170 -0.2559 -0.6465
 7116TIP3    H142839   3.827   3.380  15.792 -0.2751 -0.5922 -0.1092
 7116TIP3    H242840   3.887   3.260  15.862  0.9013 -0.0370 -0.1447
 7117TIP3   OH242841   1.479   3.239  16.541 -0.4477 -0.4710  0.1847
 7117TIP3    H142842   1.424   3.297  16.489 -2.0356 -0.7656  1.4350
 7117TIP3    H242843   1.457   3.151  16.511 -0.9697 -0.6124  0.9599
 7118TIP3   OH242844   4.858   0.343   6.077 -0.6397 -0.1493 -0.4885
 7118TIP3    H142845   4.848   0.320   6.169 -0.9186 -2.8187 -1.0914
 7118TIP3    H242846   4.787   0.404   6.059 -1.1582 -0.3307  0.8535
 7119TIP3   OH242847   4.222   6.076   4.639 -0.6969  0.4023  0.6722
 7119TIP3    H142848   4.202   6.017   4.712  0.9566 -0.1936  0.6850
 7119TIP3    H242849   4.161   6.149   4.650  0.2017  0.8988  3.3533
 7120TIP3   OH242850   2.383   6.160  15.335  0.0089  0.1468  0.7756
 7120TIP3    H142851   2.409   6.182  15.424  0.0192 -0.1202  0.8388
 7120TIP3    H242852   2.289   6.141  15.341 -0.1671  0.9241  0.5817
 7121TIP3   OH242853   5.714   0.247  13.336 -0.4860 -0.1183 -0.2662
 7121TIP3    H142854   5.734   0.319  13.276 -0.1992  1.5068  1.6732
 7121TIP3    H242855   5.619   0.250  13.345 -0.5117 -0.2403 -0.4877
 7122TIP3   OH242856   5.824   2.125  16.244 -0.1499 -0.1739 -0.6516
 7122TIP3    H142857   5.791   2.086  16.325  0.7097  0.1603 -0.1200
 7122TIP3    H242858   5.905   2.077  16.226 -0.9116 -1.0310 -1.9624
 7123TIP3   OH242859   6.469   0.071  14.238  0.7457  0.6281 -0.0556
 7123TIP3    H142860   6.470  -0.022  14.217  0.2884  0.4346  0.7150
 7123TIP3    H242861   6.395   0.080  14.298 -0.7960  1.9147 -2.0347
 7124TIP3   OH242862   3.616   6.123  11.315  0.3084 -0.2275  0.0680
 7124TIP3    H142863   3.628   6.194  11.252  2.7910 -0.5717  0.0699
 7124TIP3    H242864   3.535   6.080  11.287 -0.3855  1.5912 -0.8925
 7125TIP3   OH242865   5.236   2.921   2.980 -0.1076 -1.0009 -0.2131
 7125TIP3    H142866   5.280   2.989   3.030  0.9427 -0.7074 -1.4766
 7125TIP3    H242867   5.280   2.840   3.005  1.1260 -0.7238 -1.3810
 7126TIP3   OH242868   0.308   1.443  14.350  0.3896  0.1028 -0.2783
 7126TIP3    H142869   0.267   1.529  14.361 -1.1489 -0.5439 -0.7568
 7126TIP3    H242870   0.259   1.401  14.280  1.2576 -1.0999 -0.1995
 7127TIP3   OH242871   5.732   0.368  13.813  0.2697 -0.1409 -0.0587
 7127TIP3    H142872   5.826   0.377  13.794  0.8481 -0.1790  2.5020
 7127TIP3    H242873   5.706   0.452  13.850 -0.2738 -0.7188  0.9000
 7128TIP3   OH242874   2.964   3.875   5.100  0.3926 -0.0888 -0.3331
 7128TIP3    H142875   2.984   3.785   5.122 -2.6896 -1.2171 -1.5530
 7128TIP3    H242876   2.999   3.887   5.011  0.2089 -0.3121 -0.4352
 7129TIP3   OH242877   3.945   0.034   5.649  0.9367  0.0644  0.5528
 7129TIP3    H142878   3.897  -0.030   5.702  1.8261 -1.7621 -0.7196
 7129TIP3    H242879   3.878   0.096   5.620 -0.3708 -1.4302  0.2193
 7130TIP3   OH242880   2.926   2.046  11.628  0.6778  0.6354  0.0934
 7130TIP3    H142881   2.925   2.032  11.533  1.5043  1.2369 -0.0091
 7130TIP3    H242882   3.006   2.003  11.658 -0.1209 -0.4856  0.6813
 7131TIP3   OH242883   0.468   1.712   2.373  0.2515  0.2806  0.4881
 7131TIP3    H142884   0.429   1.759   2.300  0.7226  1.2593  0.8412
 7131TIP3    H242885   0.513   1.638   2.333  1.8774  1.6842 -0.4484
 7132TIP3   OH242886   1.853   6.657  14.631  0.4684  1.1372  0.0566
 7132TIP3    H142887   1.917   6.585  14.636  0.3213  1.0753  1.8399
 7132TIP3    H242888   1.896   6.730  14.677  0.1829  1.8650 -0.8013
 7133TIP3   OH242889   0.249   1.886  12.227  0.0743  0.1528  0.2168
 7133TIP3    H142890   0.313   1.886  12.155 -0.7783  0.1802 -0.5566
 7133TIP3    H242891   0.192   1.961  12.209 -1.1097 -0.7609  0.0247
 7134TIP3   OH242892   5.003   2.539   4.353 -0.4780  0.7826  0.7182
 7134TIP3    H142893   4.997   2.503   4.264  0.8390  2.5545 -0.1562
 7134TIP3    H242894   4.951   2.620   4.349 -2.3665 -0.2472  2.2844
 7135TIP3   OH242895   2.745   5.454  13.806  0.0794  0.4423  0.8714
 7135TIP3    H142896   2.802   5.527  13.830 -0.2155  0.6788  0.8574
 7135TIP3    H242897   2.703   5.428  13.888 -0.1829  0.6048  0.7879
 7136TIP3   OH242898   6.300   5.295   1.099 -0.5692 -0.0216  0.1027
 7136TIP3    H142899   6.382   5.314   1.054 -1.3361  0.7174 -1.0216
 7136TIP3    H242900   6.246   5.373   1.085 -1.4400 -0.4614  0.9023
 7137TIP3   OH242901   5.572   3.233  15.913  0.1945  0.1851  0.2629
 7137TIP3    H142902   5.557   3.196  15.999  0.7418 -1.4858 -0.3351
 7137TIP3    H242903   5.645   3.293  15.925 -1.3208  1.9179  1.4383
 7138TIP3   OH242904   5.477   0.100  15.314  0.3104 -0.4186  0.4329
 7138TIP3    H142905   5.520   0.017  15.335  0.5808 -0.1258  1.0532
 7138TIP3    H242906   5.434   0.126  15.395 -0.5555 -0.4112 -0.0164
 7139TIP3   OH242907   0.880   1.108   5.566 -0.0315 -0.0701 -0.3956
 7139TIP3    H142908   0.873   1.131   5.659  2.0502 -1.7858  0.2556
 7139TIP3    H242909   0.879   1.012   5.565  0.7526 -0.0882 -2.0635
 7140TIP3   OH242910   5.641   4.506  12.820  0.4046 -0.1006 -0.2963
 7140TIP3    H142911   5.551   4.522  12.794  0.3394 -1.1447 -0.8013
 7140TIP3    H242912   5.691   4.513  12.738  0.7809  0.4863 -0.0175
 7141TIP3   OH242913   1.885   1.033  16.565  1.0637  0.1235 -0.0157
 7141TIP3    H142914   1.818   1.069  16.623  0.0204 -1.4452 -0.1964
 7141TIP3    H242915   1.847   0.951  16.532  1.9213  0.5986 -2.3544
 7142TIP3   OH242916   4.400   5.445   0.923  0.0935  0.3505  0.0768
 7142TIP3    H142917   4.438   5.373   0.872 -1.9556 -0.2652 -0.6556
 7142TIP3    H242918   4.341   5.490   0.863 -1.2318  0.5397  1.4475
 7143TIP3   OH242919   0.480   0.952  13.607 -0.0541 -0.0468  0.0910
 7143TIP3    H142920   0.513   1.038  13.632  1.0117 -0.2108 -0.7188
 7143TIP3    H242921   0.516   0.892  13.672  0.2719 -0.0668 -0.1113
 7144TIP3   OH242922   3.880   4.966  14.115 -0.2722  0.2463 -0.4045
 7144TIP3    H142923   3.873   5.058  14.139  1.3373  0.2920  0.0230
 7144TIP3    H242924   3.924   4.925  14.189  0.6329 -0.5075 -1.3246
 7145TIP3   OH242925   1.249   5.789   2.284  0.3615 -0.1827  0.1198
 7145TIP3    H142926   1.180   5.730   2.312 -0.7334  1.0534  0.0920
 7145TIP3    H242927   1.277   5.755   2.199 -1.1246  0.0317 -0.4800
 7146TIP3   OH242928   0.308   4.743  13.658  0.8285 -0.2756 -0.3893
 7146TIP3    H142929   0.296   4.667  13.601  0.4826 -0.9766  0.5715
 7146TIP3    H242930   0.386   4.721  13.710  0.2828 -0.3371  0.4222
 7147TIP3   OH242931   0.916   6.022  14.069 -0.2400 -0.6040  0.0935
 7147TIP3    H142932   0.977   5.963  14.112  1.0104  0.9674  0.6017
 7147TIP3    H242933   0.859   5.965  14.017 -0.0615 -2.3244  1.7062
 7148TIP3   OH242934   4.168   1.520   0.463 -0.0737  0.2542  0.0935
 7148TIP3    H142935   4.167   1.590   0.528 -0.3118  0.6084 -0.2836
 7148TIP3    H242936   4.248   1.472   0.481  0.3435  0.9183  0.0551
 7149TIP3   OH242937   2.690   0.180  12.197 -0.6554 -0.2067 -0.8709
 7149TIP3    H142938   2.693   0.202  12.290  1.0888 -3.1806 -0.0700
 7149TIP3    H242939   2.740   0.249  12.154 -3.2656  2.4259 -0.0422
 7150TIP3   OH242940   0.902   1.002   0.369  0.7122  0.1955  1.0247
 7150TIP3    H142941   0.875   0.921   0.327 -0.7880  0.6768  0.9887
 7150TIP3    H242942   0.983   1.026   0.326 -0.3810  0.2704 -1.1090
 7151TIP3   OH242943   4.378   0.421  12.251 -0.1367  0.0845 -0.0494
 7151TIP3    H142944   4.382   0.493  12.314  0.5199  0.0425 -0.0354
 7151TIP3    H242945   4.389   0.463  12.166 -1.6193  0.2139 -0.2056
 7152TIP3   OH242946   1.428   0.328   1.282 -0.0056 -0.4867  0.3334
 7152TIP3    H142947   1.472   0.330   1.368  0.4237 -0.6820  0.1240
 7152TIP3    H242948   1.338   0.304   1.301  0.2204 -1.0779  0.6822
 7153TIP3   OH242949   5.754   4.343   0.009 -0.5941 -0.0162 -0.1305
 7153TIP3    H142950   5.750   4.437   0.024  0.7382 -0.1580  1.3467
 7153TIP3    H242951   5.681   4.325  -0.051 -0.0977  2.1118 -1.4613
 7154TIP3   OH242952   3.116   4.720   2.926 -0.4496  0.3121  0.5687
 7154TIP3    H142953   3.176   4.660   2.971  0.5113 -0.0294 -1.0682
 7154TIP3    H242954   3.171   4.766   2.863 -1.6937  0.9155 -0.1085
 7155TIP3   OH242955   5.785   1.382  11.929  0.4150  0.0380 -0.2000
 7155TIP3    H142956   5.765   1.465  11.886 -1.2220 -0.3902 -0.3507
 7155TIP3    H242957   5.873   1.394  11.964  0.0990  1.9750  0.0849
 7156TIP3   OH242958   1.320   2.754  14.662  0.2600  0.3378  0.5206
 7156TIP3    H142959   1.406   2.727  14.695  0.6106  0.7004 -0.0674
 7156TIP3    H242960   1.273   2.672  14.647  0.7915  0.0995  0.1176
 7157TIP3   OH242961   3.083   4.612  13.944 -0.5019  0.0809 -0.4697
 7157TIP3    H142962   3.048   4.552  14.010  2.0575  1.7682  2.7048
 7157TIP3    H242963   3.159   4.566  13.908  2.2132  1.5399  2.8414
 7158TIP3   OH242964   2.047   2.552  10.450  0.0225  0.2948 -0.4097
 7158TIP3    H142965   2.027   2.538  10.357 -0.4469 -1.7581 -0.0548
 7158TIP3    H242966   2.031   2.645  10.464  0.0848  0.6468 -2.3762
 7159TIP3   OH242967   2.918   0.067  14.938  0.2473  0.8936 -0.3159
 7159TIP3    H142968   2.823   0.056  14.944  0.3551 -0.2988 -0.6349
 7159TIP3    H242969   2.933   0.092  14.847  0.2586  0.8679 -0.3207
 7160TIP3   OH242970   2.569   0.137   4.782 -0.0493  0.2305 -0.4262
 7160TIP3    H142971   2.513   0.070   4.820  0.0323 -0.0261 -0.7541
 7160TIP3    H242972   2.527   0.220   4.805  0.1035  0.0966  0.3981
 7161TIP3   OH242973   1.935   4.601  12.940  0.3374 -0.8458 -0.2557
 7161TIP3    H142974   1.871   4.584  12.871  0.8680  0.6402 -1.1645
 7161TIP3    H242975   1.894   4.668  12.995  1.3775  0.7567 -1.3333
 7162TIP3   OH242976   3.926   5.381  12.614  0.2361 -0.0274  0.1701
 7162TIP3    H142977   3.904   5.431  12.692  0.6256 -0.3118  0.4658
 7162TIP3    H242978   3.886   5.295  12.628  0.6075 -0.1926  0.2192
 7163TIP3   OH242979   0.448   6.404   4.038 -0.2743  0.2040  0.0717
 7163TIP3    H142980   0.449   6.324   4.090  3.2915 -1.5463 -2.2659
 7163TIP3    H242981   0.531   6.447   4.058  0.1246  0.6842 -2.2764
 7164TIP3   OH242982   2.738   3.712  14.973 -0.5003  0.5916  0.3517
 7164TIP3    H142983   2.822   3.723  15.017 -1.1657  0.3813  1.7324
 7164TIP3    H242984   2.673   3.729  15.040 -1.5752 -2.1418  0.1447
 7165TIP3   OH242985   5.383   1.447  15.485 -0.0796  0.1858  0.2515
 7165TIP3    H142986   5.424   1.493  15.412 -0.1235 -0.8814 -0.4567
 7165TIP3    H242987   5.349   1.366  15.447 -0.9203  0.0355  1.2669
 7166TIP3   OH242988   2.877   2.075  12.695 -0.2207 -0.0534 -0.0298
 7166TIP3    H142989   2.888   2.170  12.686 -2.4762  0.1463 -1.3151
 7166TIP3    H242990   2.967   2.042  12.703  0.7894  2.0057 -1.6147
 7167TIP3   OH242991   3.149   5.864  16.500 -0.1969  0.0739  0.3861
 7167TIP3    H142992   3.064   5.901  16.478 -0.6190 -1.2928 -0.3326
 7167TIP3    H242993   3.188   5.842  16.416  0.8014  0.4854  0.7163
 7168TIP3   OH242994   1.702   4.457   5.470  0.4304 -0.1742 -0.0821
 7168TIP3    H142995   1.787   4.500   5.465  1.0205 -1.3362 -0.4544
 7168TIP3    H242996   1.722   4.364   5.476 -0.7714 -0.3678  1.8586
 7169TIP3   OH242997   5.275   2.534  12.440  0.1613  0.0567  0.2449
 7169TIP3    H142998   5.279   2.442  12.464 -1.7994 -0.4446 -1.1174
 7169TIP3    H242999   5.295   2.536  12.347  2.1118  1.2909  0.6229
 7170TIP3   OH243000   2.322   3.970   2.004 -0.8955  0.7592  0.5038
 7170TIP3    H143001   2.331   3.880   2.035  1.1902  0.7907  0.1640
 7170TIP3    H243002   2.345   3.966   1.911 -0.8729  1.6039  0.4584
 7171TIP3   OH243003   6.285   0.889  14.381  0.1434 -0.1257 -0.5346
 7171TIP3    H143004   6.369   0.916  14.416  0.7105 -1.8735 -0.4435
 7171TIP3    H243005   6.303   0.865  14.290 -0.0017 -1.5236 -0.2199
 7172TIP3   OH243006   0.046   5.938   0.044  0.3800 -0.0665  0.1891
 7172TIP3    H143007   0.136   5.907   0.039  0.8273  0.7874  2.1256
 7172TIP3    H243008   0.053   6.033   0.030 -0.2591 -0.0257  0.1180
 7173TIP3   OH243009   3.088   1.734  16.489  0.2205 -0.3519 -0.3033
 7173TIP3    H143010   3.136   1.806  16.449  1.4361 -0.6301  0.6014
 7173TIP3    H243011   2.997   1.765  16.494  0.5743  0.7804 -0.6690
 7174TIP3   OH243012   2.727   4.578  11.705  0.4781 -0.0421  0.0784
 7174TIP3    H143013   2.740   4.552  11.797  0.3608  1.0883  0.4208
 7174TIP3    H243014   2.749   4.499  11.655  1.8344 -0.2839  0.9996
 7175TIP3   OH243015   5.396   4.742   3.617 -0.2958 -0.1107  0.1683
 7175TIP3    H143016   5.463   4.691   3.663  0.0707  0.2520  0.0422
 7175TIP3    H243017   5.328   4.678   3.596 -0.2942 -0.3536  0.8737
 7176TIP3   OH243018   5.754   6.174  15.366  0.0591  0.9086 -0.0342
 7176TIP3    H143019   5.716   6.106  15.421  1.2512 -1.4759 -1.9171
 7176TIP3    H243020   5.685   6.195  15.303 -0.5791  2.0733  1.0229
 7177TIP3   OH243021   4.204   5.081   4.899 -0.3866  0.0010 -0.4020
 7177TIP3    H143022   4.118   5.116   4.875 -0.5263 -1.0633 -1.5314
 7177TIP3    H243023   4.241   5.048   4.817  0.3037 -1.2796  0.3854
 7178TIP3   OH243024   6.594   1.103   1.899 -0.3657 -0.7609 -0.5616
 7178TIP3    H143025   6.667   1.042   1.904 -0.2491 -0.6471 -0.8397
 7178TIP3    H243026   6.528   1.059   1.846 -0.7500 -1.1107  0.1892
 7179TIP3   OH243027   3.733   6.543   4.594 -0.1964  0.4775  0.3423
 7179TIP3    H143028   3.725   6.449   4.607  0.1011  0.5450  1.0127
 7179TIP3    H243029   3.662   6.564   4.533 -0.5374 -0.1069  0.5302
 7180TIP3   OH243030   5.384   1.544   1.734 -0.5690  0.1764  0.1137
 7180TIP3    H143031   5.319   1.613   1.724 -0.9345 -0.1174  0.4324
 7180TIP3    H243032   5.351   1.490   1.806  0.6760  0.7461  1.1536
 7181TIP3   OH243033   4.326   6.034   3.103 -0.6501 -0.1637  0.1862
 7181TIP3    H143034   4.346   6.109   3.158  1.1024 -0.8932  0.6209
 7181TIP3    H243035   4.391   5.968   3.128 -1.7463 -1.6006 -0.6135
 7182TIP3   OH243036   4.954   2.357  12.691 -0.3739 -0.3544  0.2647
 7182TIP3    H143037   4.977   2.424  12.626  0.4748 -2.0737 -1.3073
 7182TIP3    H243038   4.985   2.393  12.774  0.4254  1.0125 -0.5795
 7183TIP3   OH243039   6.517   2.185   4.703  0.0234 -0.1670 -0.1016
 7183TIP3    H143040   6.522   2.250   4.773 -1.8398 -1.7004  1.5694
 7183TIP3    H243041   6.426   2.190   4.673  0.5259 -0.2575 -1.7700
 7184TIP3   OH243042   5.832   3.856   0.007 -0.4837 -0.0783  0.0243
 7184TIP3    H143043   5.773   3.928   0.033  1.6350  2.5055 -1.7362
 7184TIP3    H243044   5.892   3.847   0.081  0.4390  1.4418 -0.4825
 7185TIP3   OH243045   1.310   3.366  13.709 -0.1366  0.0494  0.2536
 7185TIP3    H143046   1.367   3.292  13.688  1.3131  1.0904  0.4109
 7185TIP3    H243047   1.290   3.406  13.624  0.6299  0.5774  0.3127
 7186TIP3   OH243048   6.107   0.407   2.497 -0.0295 -0.2837 -0.5368
 7186TIP3    H143049   6.141   0.451   2.575  0.5696 -0.3677 -0.7462
 7186TIP3    H243050   6.068   0.326   2.530  3.2910 -2.0868 -0.6202
 7187TIP3   OH243051   2.654   6.149  15.874 -0.2274  0.4258  0.0358
 7187TIP3    H143052   2.652   6.079  15.939 -0.2808  0.2978 -0.1052
 7187TIP3    H243053   2.737   6.137  15.827 -0.0647  0.6780  0.2560
 7188TIP3   OH243054   1.361   3.893   2.910 -0.0386 -0.0008 -0.0580
 7188TIP3    H143055   1.453   3.870   2.922 -0.2232 -0.7053  0.0722
 7188TIP3    H243056   1.338   3.854   2.826 -0.7333 -1.5449  0.8104
 7189TIP3   OH243057   4.462   6.503  12.817 -0.5379  0.3207 -0.2221
 7189TIP3    H143058   4.521   6.554  12.871 -1.7135  0.6852  0.7607
 7189TIP3    H243059   4.399   6.567  12.783 -1.8173 -0.3753  0.7331
 7190TIP3   OH243060   1.870   5.862   5.693  0.5859  0.0928 -0.1544
 7190TIP3    H143061   1.779   5.837   5.681  0.9893 -0.9182 -1.3397
 7190TIP3    H243062   1.869   5.958   5.693 -0.8108  0.1815  2.9439
 7191TIP3   OH243063   5.211   2.266   1.308  0.3846  0.5810 -0.6927
 7191TIP3    H143064   5.144   2.297   1.247  0.5127 -1.8755 -2.2129
 7191TIP3    H243065   5.161   2.216   1.373  0.6763 -1.2324 -1.8134
 7192TIP3   OH243066   6.266   2.767  16.276  0.3210 -0.4559  0.0982
 7192TIP3    H143067   6.277   2.831  16.206 -0.5307 -0.9183 -0.4891
 7192TIP3    H243068   6.259   2.682  16.231 -1.7743 -0.6116  0.5650
 7193TIP3   OH243069   5.959   4.689   0.781  0.1341 -0.2736  0.0880
 7193TIP3    H143070   6.039   4.698   0.728 -0.0631  0.6575 -0.0791
 7193TIP3    H243071   5.889   4.674   0.717  0.0269 -0.0441  0.1498
 7194TIP3   OH243072   5.926   6.178  12.343  0.3349 -0.3575  0.7865
 7194TIP3    H143073   5.977   6.247  12.302 -1.1524  1.1062  1.3172
 7194TIP3    H243074   5.962   6.170  12.431  1.5057 -1.3699  0.2510
 7195TIP3   OH243075   5.579   0.911   5.321 -0.0232  0.2464  0.4490
 7195TIP3    H143076   5.619   0.835   5.364  1.3361  1.8258  2.1434
 7195TIP3    H243077   5.649   0.951   5.270  0.1021  1.9055  1.8298
 7196TIP3   OH243078   3.957   1.725  12.950  0.4356  0.0189 -0.1374
 7196TIP3    H143079   3.941   1.760  12.862 -2.3076 -1.8650 -0.5027
 7196TIP3    H243080   4.049   1.698  12.948  0.7066  0.8660 -2.0998
 7197TIP3   OH243081   5.755   1.010  11.761  0.3664 -0.2243 -0.2869
 7197TIP3    H143082   5.821   1.078  11.776  0.8408 -0.1975 -2.2842
 7197TIP3    H243083   5.729   1.021  11.670 -2.5287 -0.1586  0.4460
 7198TIP3   OH243084   6.044   4.547   3.887 -0.0305  0.3213 -0.0696
 7198TIP3    H143085   5.972   4.548   3.950  2.5296  1.8968  3.1277
 7198TIP3    H243086   6.053   4.638   3.860  0.8274  0.1708 -0.3144
 7199TIP3   OH243087   2.640   1.508   4.048 -0.2147  0.7110  0.2098
 7199TIP3    H143088   2.582   1.480   3.977 -0.1067 -0.8734  0.7177
 7199TIP3    H243089   2.598   1.586   4.084 -1.6588  0.0028  0.1136
 7200TIP3   OH243090   3.912   0.748   5.052 -0.1737 -0.2303 -0.1893
 7200TIP3    H143091   3.974   0.722   5.121  0.9777  0.1978 -1.0223
 7200TIP3    H243092   3.923   0.843   5.046 -0.0681 -0.2942 -1.1320
 7201TIP3   OH243093   0.933   4.390   5.109 -0.1023 -0.7832 -0.0425
 7201TIP3    H143094   0.893   4.413   5.025  0.4349  1.2275  0.1945
 7201TIP3    H243095   0.860   4.363   5.164 -0.8693  0.7437 -0.2799
 7202TIP3   OH243096   1.302   0.511  15.643 -0.3233  0.2508  0.1935
 7202TIP3    H143097   1.304   0.588  15.586  2.3694  0.0164 -0.1967
 7202TIP3    H243098   1.317   0.437  15.584  2.0496 -0.0376  1.0156
 7203TIP3   OH243099   6.134   1.208  16.710 -0.1848 -0.4861  0.3536
 7203TIP3    H143100   6.222   1.184  16.738 -0.4410 -1.2805  0.5022
 7203TIP3    H243101   6.145   1.293  16.667  0.6419 -0.5520  0.4182
 7204TIP3   OH243102   6.572   5.842   3.681 -0.4877  0.5939 -0.0773
 7204TIP3    H143103   6.498   5.903   3.680 -0.3005  0.8459  0.9774
 7204TIP3    H243104   6.644   5.892   3.719 -0.2764 -0.2147  0.6057
 7205TIP3   OH243105   5.338   6.640  13.990 -0.1661 -0.0126 -0.2641
 7205TIP3    H143106   5.373   6.551  13.988  1.1698  0.4906 -0.1566
 7205TIP3    H243107   5.402   6.692  13.941 -0.9806  0.8692 -0.4114
 7206TIP3   OH243108   6.241   3.091  12.455 -0.0321  0.2704  0.1292
 7206TIP3    H143109   6.188   3.132  12.387  0.6031  1.3208  0.2415
 7206TIP3    H243110   6.182   3.081  12.530 -0.4456  0.0959 -0.2168
 7207TIP3   OH243111   2.161   5.698   2.509 -0.4865  0.9367 -0.1564
 7207TIP3    H143112   2.069   5.723   2.514 -0.5545  0.6234  0.1429
 7207TIP3    H243113   2.161   5.602   2.513 -0.0508  0.9791  1.3996
 7208TIP3   OH243114   0.641   1.193   5.410  0.2180 -0.2918 -0.2518
 7208TIP3    H143115   0.678   1.278   5.388  0.2281  0.0895  1.1605
 7208TIP3    H243116   0.709   1.150   5.462 -0.2023 -0.7305 -0.0610
 7209TIP3   OH243117   0.703   3.425  16.724  0.3902  0.1152 -0.0649
 7209TIP3    H143118   0.644   3.420  16.798  1.6424  2.1486  1.1551
 7209TIP3    H243119   0.791   3.418  16.762  1.0450  0.2540 -1.4620
 7210TIP3   OH243120   5.881   1.203   0.024  0.0221  0.0378  0.3209
 7210TIP3    H143121   5.832   1.267  -0.028  3.5634  0.6627 -2.6727
 7210TIP3    H243122   5.829   1.123   0.018 -0.9588  0.7411 -2.2068
 7211TIP3   OH243123   0.075   3.407   2.578  0.1355 -0.3314 -0.5805
 7211TIP3    H143124   0.104   3.451   2.658 -1.0829 -1.9784  0.8496
 7211TIP3    H243125   0.101   3.316   2.589 -0.7252 -0.7507 -1.7141
 7212TIP3   OH243126   2.983   1.914   5.472  0.1081  0.4411 -0.4283
 7212TIP3    H143127   3.035   1.987   5.507 -1.3229  2.3454 -2.0604
 7212TIP3    H243128   2.948   1.871   5.550 -0.0616  2.3038  0.6022
 7213TIP3   OH243129   3.338   6.450  15.959  0.0546 -0.2067 -0.4436
 7213TIP3    H143130   3.412   6.393  15.935 -0.7542 -1.2996 -0.4019
 7213TIP3    H243131   3.275   6.391  16.001 -0.6211  0.8106  0.0024
 7214TIP3   OH243132   5.559   3.530  14.835  0.2626 -0.4746 -0.1999
 7214TIP3    H143133   5.630   3.517  14.898  0.2539  1.9886  0.4338
 7214TIP3    H243134   5.582   3.473  14.761  2.1700 -0.7643  0.5452
 7215TIP3   OH243135   5.161   0.197   3.381  0.4542  0.2144  0.0755
 7215TIP3    H143136   5.086   0.147   3.348  0.4172  1.3238 -1.6967
 7215TIP3    H243137   5.157   0.280   3.332  1.8083  1.0238  1.2576
 7216TIP3   OH243138   2.900   0.771  15.775 -0.0354 -0.0447  0.2373
 7216TIP3    H143139   2.968   0.817  15.726  1.0228 -2.0761 -0.3488
 7216TIP3    H243140   2.904   0.681  15.742 -4.6949  0.1732 -1.6054
 7217TIP3   OH243141   1.708   2.039  11.897 -0.4078 -0.0843  0.6237
 7217TIP3    H143142   1.647   2.064  11.828  0.5144  0.2121 -0.0972
 7217TIP3    H243143   1.680   2.089  11.973  1.2789  3.1651 -0.7068
 7218TIP3   OH243144   4.689   5.429   3.691 -0.2443  0.6034 -0.1210
 7218TIP3    H143145   4.674   5.518   3.659  0.1290  0.2604 -1.3254
 7218TIP3    H243146   4.748   5.390   3.626  0.2498 -0.2668  0.8194
 7219TIP3   OH243147   0.226   0.047   0.385 -0.4435  0.5634  0.0235
 7219TIP3    H143148   0.314   0.032   0.418  0.6152  1.0624 -2.3658
 7219TIP3    H243149   0.218   0.142   0.381  0.4732  0.6268 -3.3302
 7220TIP3   OH243150   5.368   6.535   4.951  0.0323  0.1295  0.1878
 7220TIP3    H143151   5.380   6.441   4.939 -0.3230  0.3339 -2.0812
 7220TIP3    H243152   5.453   6.566   4.981 -0.0821 -1.0006  1.8220
 7221TIP3   OH243153   3.179   3.789  11.644  1.1415 -0.1103  0.1614
 7221TIP3    H143154   3.153   3.874  11.611  0.8484  0.0862  0.8888
 7221TIP3    H243155   3.268   3.776  11.609  0.4011 -0.4786 -1.7505
 7222TIP3   OH243156   4.729   2.943   1.835  0.1047 -0.3857  0.5102
 7222TIP3    H143157   4.748   2.854   1.863  0.2528 -0.3159  0.6366
 7222TIP3    H243158   4.647   2.965   1.879 -0.5943 -0.8937 -0.4978
 7223TIP3   OH243159   4.984   5.184   5.540  0.3882 -0.1217 -0.2590
 7223TIP3    H143160   5.032   5.138   5.471  0.7169  0.0431 -0.1442
 7223TIP3    H243161   4.960   5.268   5.501  0.1420 -0.2310 -0.3374
 7224TIP3   OH243162   0.957   2.619   1.702  0.4165 -0.3008 -0.0256
 7224TIP3    H143163   0.941   2.590   1.792 -0.3766 -1.2616 -0.4695
 7224TIP3    H243164   1.031   2.680   1.710  0.2793 -0.2784  1.2889
 7225TIP3   OH243165   3.417   6.265   0.525  0.0412  0.7005 -0.0802
 7225TIP3    H143166   3.439   6.242   0.616 -0.1381  0.9575  0.0317
 7225TIP3    H243167   3.342   6.323   0.534 -0.4290  0.1513 -0.4382
 7226TIP3   OH243168   3.320   4.700   1.749  0.3815  0.3474  0.1005
 7226TIP3    H143169   3.320   4.661   1.661  1.3630 -0.3750  0.3985
 7226TIP3    H243170   3.238   4.673   1.788  0.1711  0.2390 -0.4090
 7227TIP3   OH243171   1.275   2.592  15.333 -0.3238 -0.5494 -0.5262
 7227TIP3    H143172   1.199   2.648  15.314 -0.7852 -1.6297 -2.0646
 7227TIP3    H243173   1.247   2.504  15.308  1.4591 -0.9706 -1.1941
 7228TIP3   OH243174   6.687   2.206  15.531  0.2165  0.1764 -0.2032
 7228TIP3    H143175   6.770   2.159  15.520 -0.0949 -0.1744 -1.1696
 7228TIP3    H243176   6.682   2.226  15.624  0.6188 -1.2278  0.1319
 7229TIP3   OH243177   5.400   2.557  14.135  0.3278  0.2091 -0.6580
 7229TIP3    H143178   5.486   2.530  14.105  1.1711  3.2315 -1.3227
 7229TIP3    H243179   5.370   2.485  14.190  2.9967 -1.2058 -0.8882
 7230TIP3   OH243180   0.143   3.663   2.099  0.6699 -0.4618 -0.2493
 7230TIP3    H143181   0.049   3.653   2.111  0.6380  0.2415  0.1388
 7230TIP3    H243182   0.165   3.602   2.029 -0.5900  1.5042 -2.5227
 7231TIP3   OH243183   1.223   3.064   1.621  0.2240 -0.2603 -0.3695
 7231TIP3    H143184   1.311   3.098   1.606  0.7466 -0.8533  1.1527
 7231TIP3    H243185   1.165   3.139   1.609  0.9149  0.1298 -1.4120
 7232TIP3   OH243186   5.717   2.499  11.671  0.2865  0.3200  0.2786
 7232TIP3    H143187   5.696   2.461  11.586  0.7587 -3.0792  1.5252
 7232TIP3    H243188   5.643   2.557  11.691  0.1466  1.1860 -2.3291
 7233TIP3   OH243189   2.700   0.310  12.427 -0.5899 -0.5021 -0.4419
 7233TIP3    H143190   2.789   0.340  12.443 -0.6807 -0.6464  0.3976
 7233TIP3    H243191   2.654   0.387  12.393 -0.5702  0.0566  0.7353
 7234TIP3   OH243192   2.080   5.311  13.876  0.8776 -0.4036 -0.3444
 7234TIP3    H143193   2.010   5.245  13.873  1.2360 -0.8148  0.2383
 7234TIP3    H243194   2.075   5.347  13.965  0.1625  0.9442 -0.8923
 7235TIP3   OH243195   3.452   0.050   2.674 -0.7501  0.4537  0.4679
 7235TIP3    H143196   3.399  -0.023   2.643  0.2038 -0.0037 -0.1211
 7235TIP3    H243197   3.403   0.085   2.749 -0.6196 -1.5782  1.5751
 7236TIP3   OH243198   0.772   4.635   1.921  0.5498  0.1541  0.1839
 7236TIP3    H143199   0.781   4.718   1.968  0.5434  0.3260 -0.1157
 7236TIP3    H243200   0.690   4.644   1.872 -0.0901 -0.5073  1.0936
 7237TIP3   OH243201   1.434   5.801   3.388  0.2036  0.0658 -0.4421
 7237TIP3    H143202   1.411   5.894   3.388 -0.8924 -0.1882 -0.3012
 7237TIP3    H243203   1.462   5.783   3.298 -1.1385  0.1918 -0.9201
 7238TIP3   OH243204   0.979   2.958  16.034 -0.0848  0.2458 -0.2183
 7238TIP3    H143205   0.979   3.036  16.089 -0.4582 -0.2857  0.5526
 7238TIP3    H243206   0.890   2.924  16.040  0.4655 -1.1216  0.7584
 7239TIP3   OH243207   2.878   2.465  17.045  0.3928  0.0816  0.2969
 7239TIP3    H143208   2.823   2.453  16.968  1.3651 -1.5825 -0.1754
 7239TIP3    H243209   2.968   2.465  17.012  0.8280 -0.7358  1.4040
 7240TIP3   OH243210   1.093   2.899  11.553  0.0492  0.0661  0.0016
 7240TIP3    H143211   1.141   2.817  11.564 -0.2821 -0.1931 -0.4376
 7240TIP3    H243212   1.148   2.965  11.594 -1.0495 -0.8030  3.1810
 7241TIP3   OH243213   0.851   4.557  15.961  0.0132  0.2288  0.3012
 7241TIP3    H143214   0.904   4.568  15.882  0.8299 -0.2013  0.7753
 7241TIP3    H243215   0.893   4.613  16.026  0.2711 -0.5844  0.8548
 7242TIP3   OH243216   5.706   5.879  14.839  0.4490 -0.5066  0.2674
 7242TIP3    H143217   5.645   5.812  14.871 -0.5192  0.3192  0.1886
 7242TIP3    H243218   5.752   5.908  14.917 -0.2895 -0.1127  0.5638
 7243TIP3   OH243219   4.618   3.397   0.913 -0.4407  0.1536 -0.5581
 7243TIP3    H143220   4.644   3.360   0.997 -0.7742  0.0954 -0.4763
 7243TIP3    H243221   4.540   3.450   0.934  0.7780  2.0164 -0.4294
 7244TIP3   OH243222   6.445   1.420  15.402 -0.5611 -0.1841  0.1790
 7244TIP3    H143223   6.473   1.433  15.492 -0.4314 -2.2808  0.4800
 7244TIP3    H243224   6.363   1.371  15.408 -0.1320 -1.0669 -0.8297
 7245TIP3   OH243225   6.776   4.648   4.162  0.1889 -0.0112 -0.4195
 7245TIP3    H143226   6.706   4.644   4.227 -0.4588  4.3703 -0.5771
 7245TIP3    H243227   6.746   4.588   4.093 -2.0799 -0.2834  0.6804
 7246TIP3   OH243228   5.893   1.820   6.606  0.3145  0.5855 -0.1411
 7246TIP3    H143229   5.892   1.742   6.662 -0.2547  0.6737 -0.0185
 7246TIP3    H243230   5.982   1.825   6.572  0.9172  0.9965  1.4198
 7247TIP3   OH243231   4.266   6.808  14.646  0.3280 -0.2085 -0.0939
 7247TIP3    H143232   4.182   6.847  14.622 -0.0869 -1.0041  0.0239
 7247TIP3    H243233   4.282   6.839  14.735  0.1758 -0.0264 -0.1300
 7248TIP3   OH243234   4.659   5.434   1.676  0.1052 -0.2853  0.6436
 7248TIP3    H143235   4.741   5.482   1.665 -0.9615  1.3845 -0.4210
 7248TIP3    H243236   4.633   5.452   1.766 -0.7209  1.9645  0.0141
 7249TIP3   OH243237   2.610   1.630  12.827  0.2819  0.4467  0.2309
 7249TIP3    H143238   2.608   1.536  12.808 -0.9611  0.7300 -1.2252
 7249TIP3    H243239   2.672   1.666  12.763  1.5986  0.5132  1.4952
 7250TIP3   OH243240   0.243   2.469   3.554  0.0653 -0.3287  0.2384
 7250TIP3    H143241   0.148   2.461   3.551  0.0214 -0.1875  0.9957
 7250TIP3    H243242   0.273   2.388   3.594  0.5450 -1.8639 -2.9526
 7251TIP3   OH243243   6.259   4.666   5.151 -0.6647 -0.3370 -0.5309
 7251TIP3    H143244   6.177   4.714   5.143 -0.2433  0.7020  0.8305
 7251TIP3    H243245   6.321   4.714   5.096 -0.5365 -0.0284 -0.1217
 7252TIP3   OH243246   1.766   3.334   5.785  0.1019 -0.2095  0.2834
 7252TIP3    H143247   1.742   3.259   5.839 -0.9377 -0.0712  0.0207
 7252TIP3    H243248   1.853   3.359   5.817 -0.1978 -0.5648  1.4030
 7253TIP3   OH243249   6.133   4.448   0.204 -0.1853 -0.3467  0.3462
 7253TIP3    H143250   6.055   4.455   0.259  0.9880  0.2135  2.0015
 7253TIP3    H243251   6.193   4.394   0.254  1.6964  1.8457  0.6308
 7254TIP3   OH243252   4.856   4.681   3.090 -0.0459 -0.0109 -0.8193
 7254TIP3    H143253   4.846   4.751   3.024 -1.5631 -0.4445 -1.0953
 7254TIP3    H243254   4.816   4.717   3.169  0.9722  0.1693 -0.3721
 7255TIP3   OH243255   0.680   1.655  10.453  0.1002 -0.4212 -0.4210
 7255TIP3    H143256   0.669   1.697  10.368  4.2857  0.5983 -0.6863
 7255TIP3    H243257   0.693   1.563  10.433  1.0795 -0.1822 -0.9325
 7256TIP3   OH243258   1.169   3.147   3.853  0.1873 -0.3433  0.2089
 7256TIP3    H143259   1.162   3.228   3.904 -1.2700 -0.5811  0.4411
 7256TIP3    H243260   1.172   3.077   3.920 -0.2799 -0.5737 -0.0081
 7257TIP3   OH243261   4.658   0.903   5.339 -0.1321  0.0881 -0.2830
 7257TIP3    H143262   4.717   0.866   5.274 -1.5549 -1.5205 -0.7334
 7257TIP3    H243263   4.618   0.828   5.382 -3.8168  0.8944 -1.8252
 7258TIP3   OH243264   2.273   5.100  13.657 -0.9163 -0.0079 -0.2387
 7258TIP3    H143265   2.210   5.066  13.593 -1.2966 -0.8380  0.5513
 7258TIP3    H243266   2.253   5.052  13.738 -1.0021  1.5849  0.7344
 7259TIP3   OH243267   5.368   5.155  16.839  0.2423  0.0080 -0.6379
 7259TIP3    H143268   5.443   5.172  16.782  1.0819 -0.4503  0.3132
 7259TIP3    H243269   5.366   5.229  16.899  1.2821 -1.0131  0.7297
 7260TIP3   OH243270   3.468   5.002   2.024 -0.2449  0.0621 -0.5411
 7260TIP3    H143271   3.476   5.093   2.053 -1.0295 -0.0401  0.0108
 7260TIP3    H243272   3.413   5.006   1.946 -2.7156 -0.1908  1.0826
 7261TIP3   OH243273   6.639   0.420   4.656  0.3260 -0.6417  0.3547
 7261TIP3    H143274   6.602   0.335   4.632  0.9137 -0.6933 -0.4274
 7261TIP3    H243275   6.568   0.482   4.644  0.1980 -0.8762 -0.1406
 7262TIP3   OH243276   6.240   6.267  13.290  0.4401 -0.1401 -0.0631
 7262TIP3    H143277   6.290   6.324  13.231  0.5517 -1.4615 -1.2959
 7262TIP3    H243278   6.275   6.180  13.275 -0.9438 -0.8177  0.4498
 7263TIP3   OH243279   4.427   3.264  13.501  0.0551 -0.2048 -0.3668
 7263TIP3    H143280   4.382   3.310  13.431 -2.0917 -0.8976  0.4498
 7263TIP3    H243281   4.488   3.205  13.457 -2.4896 -1.9254 -1.8540
 7264TIP3   OH243282   0.703   6.196   4.975 -0.2305  0.3465  0.1887
 7264TIP3    H143283   0.733   6.108   4.995 -0.7500 -0.2306 -1.3988
 7264TIP3    H243284   0.768   6.254   5.014  0.5333 -0.7604  0.5877
 7265TIP3   OH243285   1.152   0.950   5.504  0.0457  0.2491 -0.6327
 7265TIP3    H143286   1.153   1.045   5.516  2.4031  0.0625  1.4707
 7265TIP3    H243287   1.208   0.936   5.427  1.5712  0.5283  0.3692
 7266TIP3   OH243288   1.862   4.124   1.963 -0.1014 -0.1010  0.4156
 7266TIP3    H143289   1.834   4.201   1.914 -0.1311 -0.4577 -0.1327
 7266TIP3    H243290   1.853   4.051   1.901 -3.2404 -1.1102  1.8575
 7267TIP3   OH243291   0.518   0.258  16.849  0.2063  0.3773 -0.6272
 7267TIP3    H143292   0.537   0.336  16.796  1.0478  0.0577 -0.8068
 7267TIP3    H243293   0.501   0.189  16.784 -0.3800  0.3653 -0.4687
 7268TIP3   OH243294   3.370   3.136   2.383 -0.5242  0.6525 -0.1658
 7268TIP3    H143295   3.462   3.110   2.384 -0.8062 -0.3622  0.3039
 7268TIP3    H243296   3.373   3.232   2.377  0.5554  0.6439 -0.0315
 7269TIP3   OH243297   6.300   6.119  16.442  0.1195  0.3824  0.4103
 7269TIP3    H143298   6.265   6.038  16.405 -0.7940  0.5773  0.8052
 7269TIP3    H243299   6.344   6.163  16.369 -0.1892 -0.0338 -0.0279
 7270TIP3   OH243300   5.480   3.399   0.262  0.4086 -0.9144  0.4352
 7270TIP3    H143301   5.496   3.490   0.236  1.8113 -1.3611 -0.3709
 7270TIP3    H243302   5.508   3.347   0.186  0.9999 -2.0874  1.4244
 7271TIP3   OH243303   6.793   3.892  11.317 -0.2945 -0.6095  0.3077
 7271TIP3    H143304   6.796   3.985  11.339  0.9845 -0.4504 -0.4395
 7271TIP3    H243305   6.723   3.884  11.253 -0.6928 -0.2345  0.6960
 7272TIP3   OH243306   3.585   2.710   4.420 -0.1611 -0.1243 -0.1213
 7272TIP3    H143307   3.547   2.628   4.388  3.8703 -1.2506 -2.8483
 7272TIP3    H243308   3.652   2.682   4.483  0.2624  1.2218  0.0494
 7273TIP3   OH243309   1.777   6.241   2.032 -0.1006  0.6445  0.2819
 7273TIP3    H143310   1.728   6.203   1.959  0.4683 -0.9105  0.6670
 7273TIP3    H243311   1.845   6.176   2.052 -0.7793  0.5756  2.7572
 7274TIP3   OH243312   3.619   0.333  16.081 -0.4154  0.0437  0.1963
 7274TIP3    H143313   3.612   0.427  16.066 -0.3023  0.2272  1.2371
 7274TIP3    H243314   3.674   0.325  16.159  1.0853 -0.9456 -0.8939
 7275TIP3   OH243315   4.176   0.278  14.402  0.4397 -0.0460  0.0627
 7275TIP3    H143316   4.102   0.314  14.352  0.3619 -1.3167 -0.7701
 7275TIP3    H243317   4.254   0.311  14.358  0.4033  1.2790  0.9287
 7276TIP3   OH243318   2.917   5.981   5.937  0.7251 -0.5135 -0.9410
 7276TIP3    H143319   2.933   6.012   6.025  0.6595  1.0497 -1.4573
 7276TIP3    H243320   2.980   6.028   5.882  0.6976 -1.3765 -1.7528
 7277TIP3   OH243321   1.350   6.119   1.100  0.2848 -0.0683 -0.5377
 7277TIP3    H143322   1.408   6.156   1.168 -0.9796 -0.0877  0.5956
 7277TIP3    H243323   1.269   6.098   1.147 -0.2199 -1.1648 -1.8413
 7278TIP3   OH243324   5.459   4.508  14.625  0.3165  0.6242 -0.1868
 7278TIP3    H143325   5.410   4.576  14.580 -0.8501 -0.1131 -0.0742
 7278TIP3    H243326   5.419   4.426  14.596  0.0067  0.0948  1.6161
 7279TIP3   OH243327   6.368   6.170  15.457  0.0051  0.2469 -0.0142
 7279TIP3    H143328   6.292   6.179  15.401 -1.1236 -0.4846  1.3394
 7279TIP3    H243329   6.371   6.076  15.478  1.7384  0.1211 -0.6487
 7280TIP3   OH243330   5.727   5.028  12.496 -0.7095 -0.4234 -0.1510
 7280TIP3    H143331   5.796   4.996  12.437  0.6630 -0.4311  1.3802
 7280TIP3    H243332   5.730   4.968  12.571 -0.6716  1.0536  1.0642
 7281TIP3   OH243333   0.320   5.357   5.486  0.2977  1.0698 -0.4915
 7281TIP3    H143334   0.317   5.335   5.579 -0.7642 -0.9987 -0.9583
 7281TIP3    H243335   0.244   5.414   5.473 -0.7295 -0.2369 -0.4239
 7282TIP3   OH243336   0.174   0.060   5.417  0.1392  0.5901 -0.6089
 7282TIP3    H143337   0.256   0.029   5.381 -0.2475 -2.1984  0.6260
 7282TIP3    H243338   0.122   0.087   5.341  0.8031 -1.3071 -1.8026
 7283TIP3   OH243339   4.404   0.769   6.204 -0.1691  0.2916 -0.0334
 7283TIP3    H143340   4.493   0.752   6.237 -0.0976  0.5840 -0.0736
 7283TIP3    H243341   4.347   0.753   6.279 -0.1162 -0.2227 -0.0945
 7284TIP3   OH243342   0.348   2.508  14.659 -0.1288 -0.0481 -0.2110
 7284TIP3    H143343   0.337   2.603  14.651 -1.5810 -0.2735 -1.4760
 7284TIP3    H243344   0.432   2.490  14.618 -0.0353  0.6486 -0.3399
 7285TIP3   OH243345   4.758   3.630   1.883  0.0090  0.1395  0.2515
 7285TIP3    H143346   4.691   3.583   1.833  0.6230 -0.3449 -0.1230
 7285TIP3    H243347   4.819   3.562   1.912  1.0851  0.7222 -0.5632
 7286TIP3   OH243348   5.115   0.662   3.797  0.0052 -0.7050  0.4132
 7286TIP3    H143349   5.070   0.604   3.737  1.4266 -1.2962 -0.1343
 7286TIP3    H243350   5.098   0.625   3.884  0.0896 -1.3863  0.1457
 7287TIP3   OH243351   0.324   4.180   1.089 -0.2979  0.2253 -0.2176
 7287TIP3    H143352   0.337   4.263   1.045 -0.2034  0.6645  0.6209
 7287TIP3    H243353   0.306   4.118   1.019  1.3845  0.5803 -1.0009
 7288TIP3   OH243354   6.515   5.095   3.700  0.1739  0.2274  0.5092
 7288TIP3    H143355   6.557   5.009   3.700 -1.8295 -0.8534 -1.4891
 7288TIP3    H243356   6.546   5.137   3.780  1.1902 -2.3564  1.5668
 7289TIP3   OH243357   1.359   0.119   5.146  0.1509  0.1331 -0.0070
 7289TIP3    H143358   1.386   0.159   5.063  2.7287  0.9568  1.1394
 7289TIP3    H243359   1.393   0.178   5.213  0.6504 -1.9740  1.6828
 7290TIP3   OH243360   5.628   4.136  14.683  0.4296  0.2448  0.5886
 7290TIP3    H143361   5.589   4.079  14.617 -1.1095  2.1280 -0.2451
 7290TIP3    H243362   5.611   4.092  14.767  0.4036 -1.0772 -0.0879
 7291TIP3   OH243363   0.446   4.891   5.790  0.4172 -0.1933  0.3827
 7291TIP3    H143364   0.416   4.902   5.700  2.2460  2.5074 -0.0057
 7291TIP3    H243365   0.505   4.815   5.785  0.9838  0.2996 -0.8487
 7292TIP3   OH243366   2.896   1.110   3.405 -0.1067  0.1699 -0.1133
 7292TIP3    H143367   2.865   1.193   3.370  0.0347  0.3419  0.1653
 7292TIP3    H243368   2.927   1.061   3.329 -0.6496  0.1760 -0.3360
 7293TIP3   OH243369   0.727   2.582  16.751  0.4685 -0.0962  0.0949
 7293TIP3    H143370   0.801   2.621  16.704 -1.1687  1.7844 -1.0732
 7293TIP3    H243371   0.755   2.579  16.843  2.1601  0.0676 -0.3824
 7294TIP3   OH243372   5.996   5.688  16.041  0.0065  0.0723  0.3433
 7294TIP3    H143373   6.068   5.749  16.055  0.6541 -0.7331  0.6424
 7294TIP3    H243374   5.945   5.691  16.121 -2.0516  2.8270 -0.9160
 7295TIP3   OH243375   1.762   1.512  14.801  0.0383  0.4988  0.3494
 7295TIP3    H143376   1.695   1.498  14.868 -0.2156 -1.5040 -0.2740
 7295TIP3    H243377   1.718   1.492  14.719  1.3668 -0.7913 -0.0774
 7296TIP3   OH243378   5.506   3.940  13.298 -0.3240 -0.2151  0.6382
 7296TIP3    H143379   5.445   3.903  13.234 -0.6054 -2.1056  1.9292
 7296TIP3    H243380   5.583   3.884  13.293  1.0648  1.6861 -0.4237
 7297TIP3   OH243381   4.149   3.734   1.866 -0.6749 -0.3355  0.1652
 7297TIP3    H143382   4.186   3.754   1.780  0.7778 -0.0879  0.8132
 7297TIP3    H243383   4.054   3.739   1.853 -0.6163 -2.9076 -2.0453
 7298TIP3   OH243384   6.452   0.420  15.850 -0.3226  0.1608 -0.5913
 7298TIP3    H143385   6.367   0.377  15.838 -1.2311  0.7740  2.6577
 7298TIP3    H243386   6.516   0.350  15.840 -1.1893 -0.4146 -2.6102
 7299TIP3   OH243387   6.026   3.216   4.940  0.1927  0.4284 -0.7555
 7299TIP3    H143388   5.944   3.261   4.956  0.7215  1.1925 -0.0934
 7299TIP3    H243389   6.088   3.285   4.917  1.4000  0.3384  1.7855
 7300TIP3   OH243390   6.726   3.232   3.814 -0.2360  0.1530  0.5194
 7300TIP3    H143391   6.794   3.188   3.763 -1.3403 -1.2923  0.2403
 7300TIP3    H243392   6.716   3.317   3.770 -0.8439 -0.8694 -1.4582
 7301TIP3   OH243393   3.567   6.799   2.056  0.7392 -0.2917 -0.7381
 7301TIP3    H143394   3.532   6.811   1.967  0.9790 -1.7211 -1.0588
 7301TIP3    H243395   3.606   6.711   2.054 -0.9307 -1.1603  1.3335
 7302TIP3   OH243396   1.267   5.279   1.757 -0.0083  0.0990  0.2954
 7302TIP3    H143397   1.324   5.346   1.719 -0.3339  0.0313 -0.3257
 7302TIP3    H243398   1.186   5.286   1.707 -0.3137 -0.2494  0.7366
 7303TIP3   OH243399   4.331   2.328   0.554 -0.4202 -0.5364  0.0136
 7303TIP3    H143400   4.245   2.368   0.538  0.6159  2.8836  1.9899
 7303TIP3    H243401   4.319   2.277   0.635 -0.8854 -1.3361 -0.5398
 7304TIP3   OH243402   0.944   1.183  10.525 -0.7378 -0.1019  0.1223
 7304TIP3    H143403   0.958   1.091  10.546 -0.1412  0.1820  1.0320
 7304TIP3    H243404   0.855   1.201  10.555 -0.8437 -0.3777 -0.0277
 7305TIP3   OH243405   6.737   4.958   4.764  0.3630 -0.2225 -0.4713
 7305TIP3    H143406   6.647   4.975   4.736 -0.6537  1.1786  3.1443
 7305TIP3    H243407   6.791   5.014   4.707 -1.2623  0.6494 -1.2170
 7306TIP3   OH243408   0.093   1.327   4.117  0.2367  0.2963  0.2040
 7306TIP3    H143409   0.020   1.330   4.178  0.4536  2.0045  0.4088
 7306TIP3    H243410   0.166   1.368   4.163  1.4021 -1.4713  0.0459
 7307TIP3   OH243411   2.083   5.526   4.420 -0.3920  0.3557 -0.2475
 7307TIP3    H143412   2.124   5.537   4.506  0.0578  1.0803 -0.5444
 7307TIP3    H243413   2.152   5.490   4.366 -0.6511 -0.0171 -0.3326
 7308TIP3   OH243414   0.170   2.171   2.372  0.4093  0.1350  0.6561
 7308TIP3    H143415   0.235   2.232   2.337 -0.4752 -0.2842 -2.0321
 7308TIP3    H243416   0.089   2.223   2.378  0.1699 -0.2032  0.4512
 7309TIP3   OH243417   2.434   0.286   2.517  0.0873  0.5125  0.5412
 7309TIP3    H143418   2.486   0.219   2.562 -1.6946 -0.5018  1.1940
 7309TIP3    H243419   2.463   0.368   2.556  3.7189  0.4832 -1.6049
 7310TIP3   OH243420   1.778   3.086   4.718 -0.1179 -0.5089  0.2989
 7310TIP3    H143421   1.790   3.051   4.806 -0.8911 -1.0937  0.1864
 7310TIP3    H243422   1.719   3.023   4.675 -1.2286  0.7091 -0.0446
 7311TIP3   OH243423   3.716   2.871  11.031 -0.0058 -0.3441 -0.4108
 7311TIP3    H143424   3.711   2.959  10.994 -0.1056 -0.5392 -0.8690
 7311TIP3    H243425   3.633   2.830  11.008 -1.0171  0.2460  1.9378
 7312TIP3   OH243426   1.140   2.238   5.280 -0.6305 -0.7683 -0.2045
 7312TIP3    H143427   1.220   2.287   5.296 -1.3580  0.8631 -1.3437
 7312TIP3    H243428   1.073   2.284   5.330 -1.0188 -1.6625  0.1209
 7313TIP3   OH243429   5.678   0.937  13.171  0.4276  0.0809 -0.9016
 7313TIP3    H143430   5.593   0.896  13.188  1.6450 -2.7991 -1.2227
 7313TIP3    H243431   5.737   0.896  13.234  1.2316  3.9760  1.2483
 7314TIP3   OH243432   4.819   5.262   5.754 -0.0858  0.2990 -0.4276
 7314TIP3    H143433   4.851   5.208   5.682  0.8070  2.0966 -1.4499
 7314TIP3    H243434   4.743   5.215   5.788  1.1639 -2.0027 -0.6757
 7315TIP3   OH243435   0.638   0.476  14.322 -0.0954 -0.3875  0.0778
 7315TIP3    H143436   0.663   0.387  14.347 -1.0342 -0.2405  1.6956
 7315TIP3    H243437   0.543   0.472  14.311  0.0337  0.0697 -1.4886
 7316TIP3   OH243438   0.790   5.467   0.919 -0.2376  0.0859 -0.2650
 7316TIP3    H143439   0.784   5.389   0.975  1.8668  0.2183  0.2035
 7316TIP3    H243440   0.860   5.447   0.857 -1.0301  0.8411 -1.4629
 7317TIP3   OH243441   0.097   5.305   1.969 -0.7599  0.3197  0.3701
 7317TIP3    H143442   0.120   5.230   2.023 -0.2256  0.4187  0.2867
 7317TIP3    H243443   0.128   5.283   1.882  0.4910  1.1291  0.5891
 7318TIP3   OH243444   2.220   4.728   0.590 -0.1036 -0.0622  0.2322
 7318TIP3    H143445   2.285   4.658   0.601 -0.7431 -0.4768  1.7791
 7318TIP3    H243446   2.150   4.688   0.538  0.5382  0.1588 -0.8214
 7319TIP3   OH243447   4.410   5.422  15.773 -0.2354 -0.5250  0.6826
 7319TIP3    H143448   4.333   5.365  15.784 -1.2419  0.8218  0.8999
 7319TIP3    H243449   4.438   5.408  15.683 -2.3377  0.8293 -0.2534
 7320TIP3   OH243450   5.588   6.395  10.947  0.0785  1.0828  0.4801
 7320TIP3    H143451   5.621   6.310  10.975 -0.0928  0.1562 -1.9286
 7320TIP3    H243452   5.493   6.390  10.959 -0.2713 -0.1607 -2.1015
 7321TIP3   OH243453   6.782   0.212   5.728  0.2386  0.0943  0.2000
 7321TIP3    H143454   6.815   0.164   5.804  1.8399  0.8384  0.0262
 7321TIP3    H243455   6.687   0.203   5.733  0.4161 -1.8541  0.9583
 7322TIP3   OH243456   5.982   6.359  14.694  0.1484  0.1838  0.0243
 7322TIP3    H143457   6.021   6.435  14.736 -0.6216  0.6654 -0.1065
 7322TIP3    H243458   6.055   6.301  14.674  1.0854  1.9510 -2.0957
 7323TIP3   OH243459   1.103   2.747  16.175 -0.0825 -0.2718  0.3191
 7323TIP3    H143460   1.162   2.686  16.130  0.9129  0.5244  0.4975
 7323TIP3    H243461   1.085   2.815  16.110 -0.1952 -0.1234  0.5059
 7324TIP3   OH243462   0.726   0.655   2.108  0.2070 -0.0449  0.0277
 7324TIP3    H143463   0.809   0.654   2.155  0.8469 -0.7072 -1.0827
 7324TIP3    H243464   0.740   0.598   2.033 -0.8987  0.7018 -0.7825
 7325TIP3   OH243465   3.640   5.377   5.027 -0.0797 -0.3906  0.2230
 7325TIP3    H143466   3.669   5.418   4.946  0.6198 -0.5804  0.3737
 7325TIP3    H243467   3.667   5.286   5.018  1.7857 -0.0109  1.4929
 7326TIP3   OH243468   2.015   0.703   1.620  0.1705  0.7136  0.0189
 7326TIP3    H143469   2.102   0.663   1.613  0.4575  0.7948  2.3864
 7326TIP3    H243470   1.961   0.651   1.561  1.6512  0.1846 -0.9484
 7327TIP3   OH243471   4.593   0.501   1.926  0.4657  0.4512 -0.3769
 7327TIP3    H143472   4.606   0.591   1.957 -0.6324 -0.0880  1.9528
 7327TIP3    H243473   4.499   0.486   1.935  0.7412 -1.2060  0.1938
 7328TIP3   OH243474   4.862   0.701  16.778  0.1678 -0.4097 -0.8875
 7328TIP3    H143475   4.906   0.718  16.861 -1.0559 -1.8403  0.1064
 7328TIP3    H243476   4.842   0.788  16.743 -1.8499  0.3119  1.7308
 7329TIP3   OH243477   4.113   6.708   2.293  0.2603 -0.7819 -0.1289
 7329TIP3    H143478   4.145   6.706   2.384  2.8118  2.8273 -0.7359
 7329TIP3    H243479   4.023   6.740   2.300  0.2562 -1.0061  1.1403
 7330TIP3   OH243480   5.860   1.137  15.822 -0.0897 -0.0317 -0.2848
 7330TIP3    H143481   5.804   1.065  15.793  0.4402 -0.0026 -1.4287
 7330TIP3    H243482   5.800   1.209  15.840 -0.4088  0.1322 -1.8937
 7331TIP3   OH243483   2.222   4.366  16.405 -0.8162 -0.1862  0.1524
 7331TIP3    H143484   2.268   4.288  16.373 -0.4812 -0.4676  1.2760
 7331TIP3    H243485   2.255   4.378  16.494 -1.3383  0.8758  0.2142
 7332TIP3   OH243486   1.308   1.468   5.611  0.0096 -0.2390  0.1882
 7332TIP3    H143487   1.236   1.461   5.674 -0.9223 -1.4443 -0.9520
 7332TIP3    H243488   1.387   1.471   5.665 -0.8053 -0.3267  1.4332
 7333TIP3   OH243489   3.380   3.700  14.066  0.3592  0.1079 -0.4830
 7333TIP3    H143490   3.446   3.761  14.097  0.6018  0.3257 -1.4008
 7333TIP3    H243491   3.414   3.613  14.090  0.3678  0.2886  0.1622
 7334TIP3   OH243492   0.860   5.356   3.703 -0.0826  0.4068  0.6046
 7334TIP3    H143493   0.825   5.351   3.615 -2.7519  1.0485  1.5389
 7334TIP3    H243494   0.887   5.266   3.723  2.0051  0.5030 -1.2929
 7335TIP3   OH243495   0.955   1.413  12.682 -0.1591  0.3731 -0.1629
 7335TIP3    H143496   0.878   1.357  12.686 -1.0104  1.5677  2.2571
 7335TIP3    H243497   1.013   1.379  12.750  1.0660  0.1178 -1.2782
 7336TIP3   OH243498   6.618   6.093  12.706  0.0812  0.3067 -0.2294
 7336TIP3    H143499   6.711   6.105  12.690 -0.0457 -0.5368 -1.8636
 7336TIP3    H243500   6.579   6.090  12.619 -1.2022 -1.3311  0.3510
 7337TIP3   OH243501   5.559   2.882   0.650 -0.7001  0.4107  0.6692
 7337TIP3    H143502   5.548   2.965   0.604 -2.3723 -0.5346 -0.7186
 7337TIP3    H243503   5.572   2.908   0.742  1.1476  2.2587 -0.0242
 7338TIP3   OH243504   2.393   1.860   1.943  0.5382 -0.2776  0.3664
 7338TIP3    H143505   2.349   1.809   1.875  1.1134 -3.0148  1.9154
 7338TIP3    H243506   2.366   1.951   1.926 -2.6228 -1.3440 -0.9840
 7339TIP3   OH243507   0.169   2.142  11.079  0.0976  0.7284 -0.5622
 7339TIP3    H143508   0.150   2.068  11.137 -0.4696  1.4025  0.1377
 7339TIP3    H243509   0.155   2.219  11.134  1.7424  1.3484 -0.9590
 7340TIP3   OH243510   2.204   6.307   3.223 -0.6068 -0.2020 -0.2140
 7340TIP3    H143511   2.135   6.240   3.224 -0.3283 -0.4922 -0.4819
 7340TIP3    H243512   2.249   6.296   3.307  0.1650 -1.1152 -0.7282
 7341TIP3   OH243513   5.201   1.393   1.964 -0.5305 -0.3156  0.2244
 7341TIP3    H143514   5.220   1.452   2.037 -0.3315  1.1783 -0.9806
 7341TIP3    H243515   5.106   1.382   1.965 -0.4738 -0.8044  1.0559
 7342TIP3   OH243516   1.460   4.208   4.617 -0.0518  0.4463  0.0410
 7342TIP3    H143517   1.467   4.213   4.712 -2.9027  1.0231  0.3017
 7342TIP3    H243518   1.449   4.115   4.598  0.3324  0.3498  0.2725
 7343TIP3   OH243519   4.142   0.596   0.852  0.8831 -0.5010 -0.0220
 7343TIP3    H143520   4.205   0.525   0.846 -0.4229 -1.6137 -2.0800
 7343TIP3    H243521   4.083   0.581   0.777 -1.4806  0.7692  1.4689
 7344TIP3   OH243522   1.929   3.533   3.457  0.2981  0.2987  0.1086
 7344TIP3    H143523   2.011   3.576   3.481 -0.4135  1.2815  0.8327
 7344TIP3    H243524   1.869   3.554   3.528 -0.5381 -0.5793 -0.3156
 7345TIP3   OH243525   1.737   5.411  15.643 -0.6573  0.4614 -0.0284
 7345TIP3    H143526   1.816   5.358  15.655 -0.5596  0.7384  0.5893
 7345TIP3    H243527   1.729   5.420  15.548 -0.5329 -0.4399 -0.1344
 7346TIP3   OH243528   2.698   4.215  16.384 -0.2306 -0.4307  0.7959
 7346TIP3    H143529   2.742   4.275  16.323 -0.2139 -0.6722  0.5667
 7346TIP3    H243530   2.711   4.254  16.470  0.6199 -0.6051  0.7599
 7347TIP3   OH243531   5.129   0.112   2.285  0.1908  0.1230 -0.4537
 7347TIP3    H143532   5.046   0.152   2.309 -0.4950 -1.0458 -0.7885
 7347TIP3    H243533   5.180   0.112   2.366 -1.0780 -1.3353  0.4052
 7348TIP3   OH243534   0.941   5.375   3.196 -0.2401  0.4421  0.4067
 7348TIP3    H143535   1.033   5.389   3.174 -0.4898  0.0333 -0.9822
 7348TIP3    H243536   0.927   5.281   3.184 -0.6691  0.3833  1.3116
 7349TIP3   OH243537   2.478   1.015   1.409  0.3193 -0.0459 -0.3920
 7349TIP3    H143538   2.446   0.933   1.444 -0.9228  0.8306  0.5993
 7349TIP3    H243539   2.424   1.031   1.331  0.1806  0.1044 -0.2652
 7350TIP3   OH243540   6.290   6.402   5.060 -0.2218  0.9047 -0.0011
 7350TIP3    H143541   6.223   6.360   5.114 -0.4301 -0.0662 -0.9752
 7350TIP3    H243542   6.368   6.403   5.115 -0.7823  1.1766  0.7985
 7351TIP3   OH243543   6.627   0.360  11.040 -0.3655  0.1751 -0.2126
 7351TIP3    H143544   6.672   0.439  11.069 -0.2131  0.0443 -0.0884
 7351TIP3    H243545   6.623   0.368  10.944  0.2529  0.0169 -0.2589
 7352TIP3   OH243546   4.347   2.066   2.440  0.6703 -0.2816 -0.3013
 7352TIP3    H143547   4.346   2.155   2.475 -1.5480  0.6240 -2.4049
 7352TIP3    H243548   4.407   2.070   2.366 -0.3118 -0.1728 -1.1188
 7353TIP3   OH243549   3.080   4.687  11.220 -0.0541  0.4769  0.1933
 7353TIP3    H143550   3.131   4.659  11.296 -1.3946  1.2585  1.4128
 7353TIP3    H243551   3.097   4.781  11.214 -1.1878  0.7125  0.5111
 7354TIP3   OH243552   1.038   0.595  16.600  0.0116 -0.0505 -0.4295
 7354TIP3    H143553   0.994   0.529  16.548  0.8691  1.0248 -2.6290
 7354TIP3    H243554   0.982   0.672  16.594 -0.1649 -0.0533  0.7759
 7355TIP3   OH243555   0.922   2.769  12.967 -0.6978 -0.3444 -0.1311
 7355TIP3    H143556   0.954   2.857  12.947 -0.2948 -0.8240 -1.7819
 7355TIP3    H243557   0.994   2.726  13.012 -0.2530 -0.3506 -0.8343
 7356TIP3   OH243558   6.384   2.261  16.345 -0.0806 -0.1723  0.0843
 7356TIP3    H143559   6.391   2.268  16.440  0.4922 -0.0242  0.0414
 7356TIP3    H243560   6.426   2.341  16.312 -1.8627  0.6566 -0.2721
 7357TIP3   OH243561   4.845   3.264  13.068  0.4036  0.3483 -0.0935
 7357TIP3    H143562   4.836   3.212  12.988 -1.2089 -0.0392  0.2872
 7357TIP3    H243563   4.884   3.347  13.040  2.0330 -0.6570 -0.8768
 7358TIP3   OH243564   0.901   4.532  12.134 -0.0771  0.4764 -0.2499
 7358TIP3    H143565   0.932   4.603  12.076 -1.0073  0.7252 -0.4612
 7358TIP3    H243566   0.842   4.576  12.195 -1.1110 -0.1869 -0.7389
 7359TIP3   OH243567   5.643   4.448   4.516  0.0614 -0.2856  0.3923
 7359TIP3    H143568   5.559   4.420   4.479 -0.2184  1.2131 -0.1643
 7359TIP3    H243569   5.709   4.404   4.463 -0.3542  0.6926 -0.9869
 7360TIP3   OH243570   3.511   2.168  14.003  0.1028 -0.3167  0.4792
 7360TIP3    H143571   3.539   2.149  13.913 -1.0584 -0.0502  0.0392
 7360TIP3    H243572   3.588   2.151  14.056  0.8378 -0.4010 -0.5801
 7361TIP3   OH243573   4.570   0.545   2.400 -0.0317  0.5104 -0.5973
 7361TIP3    H143574   4.537   0.465   2.439  2.7723 -0.8513 -0.7580
 7361TIP3    H243575   4.502   0.573   2.339 -1.4880 -1.1873  0.1892
 7362TIP3   OH243576   6.184   5.945  15.493  0.3023  0.1023  0.6207
 7362TIP3    H143577   6.126   5.869  15.494 -2.4617  1.9814 -1.1127
 7362TIP3    H243578   6.162   5.993  15.573  1.5065 -0.5085  1.3395
 7363TIP3   OH243579   3.471   1.331  14.663 -0.5283  0.6789  0.1000
 7363TIP3    H143580   3.491   1.238  14.664 -2.5223  0.1724  2.7117
 7363TIP3    H243581   3.511   1.363  14.582 -0.2213 -2.5037 -1.1508
 7364TIP3   OH243582   2.475   2.182   5.699  0.1921  0.1783 -0.1222
 7364TIP3    H143583   2.446   2.127   5.772  0.2611 -1.7047 -1.4432
 7364TIP3    H243584   2.571   2.180   5.706  0.2038 -0.1484 -0.3548
 7365TIP3   OH243585   4.052   3.707  10.707 -0.0471 -0.0469 -0.2321
 7365TIP3    H143586   4.030   3.789  10.752 -1.3176 -0.4511 -0.0729
 7365TIP3    H243587   4.145   3.716  10.684  0.4810  0.4677  1.8693
 7366TIP3   OH243588   3.645   4.934  15.637  0.1558  0.1715 -0.2303
 7366TIP3    H143589   3.592   4.859  15.607 -1.8919  1.4151  0.1101
 7366TIP3    H243590   3.625   4.942  15.730 -1.0290  2.1329 -0.5928
 7367TIP3   OH243591   0.095   3.801   3.051 -0.0256  0.5866  0.0614
 7367TIP3    H143592   0.154   3.858   3.100 -0.4170  1.0349  0.0173
 7367TIP3    H243593   0.098   3.835   2.961  0.5891 -0.1490 -0.2070
 7368TIP3   OH243594   0.046   6.795  11.680 -0.4777 -0.2139  0.2463
 7368TIP3    H143595  -0.015   6.858  11.641 -0.4342  0.0042  0.5239
 7368TIP3    H243596  -0.009   6.721  11.705 -0.5914 -0.1240  0.2661
 7369TIP3   OH243597   2.977   4.280   1.820  0.5173 -0.4703 -0.3565
 7369TIP3    H143598   2.975   4.193   1.861  0.2619  0.0116  0.6841
 7369TIP3    H243599   2.962   4.263   1.727 -0.6017 -1.4626 -0.0222
 7370TIP3   OH243600   1.674   0.643  12.611  0.0298 -0.0137  0.6411
 7370TIP3    H143601   1.734   0.577  12.647  0.5538  0.9774  1.6606
 7370TIP3    H243602   1.614   0.661  12.683  0.5220  1.3439  0.7371
 7371TIP3   OH243603   5.239   2.372  13.254  0.0640  0.5744 -0.5739
 7371TIP3    H143604   5.297   2.343  13.184  2.3393  0.9072  1.0213
 7371TIP3    H243605   5.253   2.467  13.258 -0.9915  0.7367 -0.4569
 7372TIP3   OH243606   5.221   3.614  11.910  0.2363 -0.3754  0.5796
 7372TIP3    H143607   5.206   3.690  11.853 -1.4667 -0.6439  0.6394
 7372TIP3    H243608   5.180   3.638  11.993  0.7057 -0.9065  0.9700
 7373TIP3   OH243609   0.973   0.970   2.081  0.3349  0.1774 -0.5725
 7373TIP3    H143610   1.030   1.047   2.081  2.2919 -1.1894  0.2351
 7373TIP3    H243611   0.989   0.928   1.997 -1.7204  1.2362 -1.5931
 7374TIP3   OH243612   0.846   0.146  15.834  0.1358 -0.6451 -0.3891
 7374TIP3    H143613   0.816   0.213  15.773 -1.2646  0.3471  1.3005
 7374TIP3    H243614   0.793   0.069  15.814 -1.7809  0.2904  0.8287
 7375TIP3   OH243615   6.560   0.150  12.028  0.1260 -0.0615  0.0913
 7375TIP3    H143616   6.628   0.166  11.963  0.0012 -0.4747 -0.1479
 7375TIP3    H243617   6.494   0.217  12.011  0.3202  0.1338  0.1089
 7376TIP3   OH243618   5.046   6.819   2.660  0.4840  0.4833 -0.2925
 7376TIP3    H143619   4.969   6.872   2.684  1.2957  1.8930 -0.6664
 7376TIP3    H243620   5.119   6.863   2.704  1.3214  0.2102 -1.3808
 7377TIP3   OH243621   1.638   6.236  16.939  0.1757 -0.2176  0.3974
 7377TIP3    H143622   1.645   6.327  16.910 -0.0220  0.2652  1.8046
 7377TIP3    H243623   1.676   6.235  17.026 -1.5806 -1.0535  1.2120
 7378TIP3   OH243624   5.880   5.400   3.913  0.0140 -0.2703 -0.4696
 7378TIP3    H143625   5.818   5.394   3.986  0.3416 -2.3696 -0.2838
 7378TIP3    H243626   5.956   5.349   3.942  0.1343 -1.1923 -2.2530
 7379TIP3   OH243627   5.463   5.083   3.790 -0.0503 -0.3611 -0.4054
 7379TIP3    H143628   5.553   5.101   3.819 -0.0779  1.2590 -1.1949
 7379TIP3    H243629   5.463   5.104   3.697 -0.9604 -1.5844 -0.7092
 7380TIP3   OH243630   1.972   0.561   4.086  0.2549 -0.2061 -0.2921
 7380TIP3    H143631   1.942   0.489   4.140 -0.9804  2.1216  2.4155
 7380TIP3    H243632   2.064   0.572   4.108 -0.1299  0.4365  1.0902
 7381TIP3   OH243633   0.194   1.606   2.938 -0.0264  0.0689 -0.0150
 7381TIP3    H143634   0.145   1.582   2.859  0.3829  0.8390 -0.5065
 7381TIP3    H243635   0.128   1.601   3.008 -0.2885 -1.0479 -0.3216
 7382TIP3   OH243636   2.915   3.067  16.073  0.3531  0.2063  0.0734
 7382TIP3    H143637   2.909   3.157  16.104 -3.3518 -0.1556  0.9077
 7382TIP3    H243638   2.943   3.017  16.150 -0.0714  0.3747  0.3405
 7383TIP3   OH243639   6.703   2.135  11.938 -0.1386 -0.4822  0.8087
 7383TIP3    H143640   6.668   2.223  11.927  0.9474 -0.2273 -1.1107
 7383TIP3    H243641   6.797   2.144  11.922 -0.0998 -2.0810 -0.1585
 7384TIP3   OH243642   2.810   3.152  13.971 -0.2626 -0.4957  0.4849
 7384TIP3    H143643   2.841   3.238  13.942 -1.4799 -0.6273 -1.4370
 7384TIP3    H243644   2.881   3.117  14.024  1.3297  0.6699 -0.7753
 7385TIP3   OH243645   3.573   2.994  13.734  0.7659 -0.4484  0.0878
 7385TIP3    H143646   3.528   2.914  13.762  2.7083 -1.5931  0.0855
 7385TIP3    H243647   3.580   2.985  13.639  0.9413 -0.2554  0.0828
 7386TIP3   OH243648   0.636   2.430   0.641  0.1422 -0.4207 -0.7566
 7386TIP3    H143649   0.569   2.374   0.602 -0.3731 -0.0627 -0.4030
 7386TIP3    H243650   0.614   2.432   0.735  0.9689 -0.7400 -0.5542
 7387TIP3   OH243651   0.731   2.015   2.301 -0.2634 -0.5409  0.0365
 7387TIP3    H143652   0.701   1.966   2.225 -0.7054 -0.0869 -0.0830
 7387TIP3    H243653   0.702   1.963   2.376  0.4860 -1.1742 -0.0985
 7388TIP3   OH243654   4.946   0.218   2.436  0.4533  0.3212  0.2243
 7388TIP3    H143655   5.014   0.277   2.468  0.5366  0.9536 -1.0219
 7388TIP3    H243656   4.870   0.235   2.492  0.8319  0.7774  0.6083
 7389TIP3   OH243657   0.271   6.503   5.388 -0.4854  0.0601 -0.0940
 7389TIP3    H143658   0.210   6.439   5.425 -0.3943 -0.7215 -1.2188
 7389TIP3    H243659   0.221   6.548   5.320  0.0572 -0.3431 -0.7834
 7390TIP3   OH243660   6.052   1.807   1.404 -0.0500  0.0926 -0.0379
 7390TIP3    H143661   6.015   1.727   1.440  0.6493  0.8985  2.6537
 7390TIP3    H243662   5.995   1.877   1.436  1.6975  1.0255  1.2190
 7391TIP3   OH243663   5.937   0.988   2.857  0.2710  0.1720  0.3284
 7391TIP3    H143664   5.860   1.041   2.878 -0.5356 -0.7344 -0.2361
 7391TIP3    H243665   6.002   1.052   2.828 -0.1295  0.9940  1.1734
 7392TIP3   OH243666   3.968   5.442   3.997  0.5898  0.2172  0.2161
 7392TIP3    H143667   4.062   5.447   3.979  0.5398  2.7276  0.3243
 7392TIP3    H243668   3.927   5.452   3.911  0.4281  0.5266  0.3262
 7393TIP3   OH243669   1.411   6.461  16.560  0.1400  0.8041  0.0245
 7393TIP3    H143670   1.345   6.477  16.493 -1.2549  1.2064  1.4391
 7393TIP3    H243671   1.389   6.374  16.595 -0.1582  1.2750  1.0464
 7394TIP3   OH243672   5.419   5.632   1.148  0.1256 -0.3020  0.9209
 7394TIP3    H143673   5.491   5.569   1.153 -0.2043 -0.9864 -1.4799
 7394TIP3    H243674   5.458   5.711   1.113 -0.2556 -0.7084 -0.4881
 7395TIP3   OH243675   0.323   1.287  15.110 -0.3794  0.1460  0.0706
 7395TIP3    H143676   0.412   1.277  15.142  0.1748  1.5053 -0.9530
 7395TIP3    H243677   0.268   1.283  15.189  0.3992 -2.2450  0.5631
 7396TIP3   OH243678   4.357   3.947   2.451  0.4656  0.6051  0.1136
 7396TIP3    H143679   4.270   3.935   2.413 -0.0389 -0.4975  1.5364
 7396TIP3    H243680   4.416   3.906   2.388 -0.1001  0.7871 -0.5547
 7397TIP3   OH243681   5.730   5.699   3.450 -0.4184  0.0855 -0.5896
 7397TIP3    H143682   5.700   5.789   3.432  0.4860  0.4616 -0.2538
 7397TIP3    H243683   5.761   5.702   3.540 -1.2822 -0.8231 -0.2459
 7398TIP3   OH243684   1.234   1.737  14.433  0.1691  0.0976  0.4289
 7398TIP3    H143685   1.313   1.772  14.475  0.9607 -0.8739 -0.1796
 7398TIP3    H243686   1.162   1.771  14.485  0.8566  2.5600 -0.0665
 7399TIP3   OH243687   3.938   1.311   2.955  0.1820 -0.9266  0.2735
 7399TIP3    H143688   3.854   1.268   2.968 -0.0014 -0.7473 -0.2725
 7399TIP3    H243689   3.954   1.303   2.861  0.1765  0.1353  0.1743
 7400TIP3   OH243690   2.473   6.406   2.977 -0.1552 -0.0156  0.1357
 7400TIP3    H143691   2.554   6.439   3.016 -0.3652 -1.0355  1.5231
 7400TIP3    H243692   2.488   6.409   2.883  1.0210  0.9651  0.3247
 7401TIP3   OH243693   1.461   2.783   0.280  0.3008  0.2950  0.2721
 7401TIP3    H143694   1.396   2.774   0.350 -0.4777  2.0918 -0.1519
 7401TIP3    H243695   1.425   2.731   0.208  0.4960 -0.5684  0.7844
 7402TIP3   OH243696   5.544   3.786  12.105 -0.1111  0.0504  0.0604
 7402TIP3    H143697   5.597   3.843  12.049  0.5151 -0.4931  0.0799
 7402TIP3    H243698   5.477   3.843  12.142  0.1143  0.6338 -0.4202
 7403TIP3   OH243699   6.768   4.938   3.757 -0.0082 -0.0623 -0.4864
 7403TIP3    H143700   6.852   4.892   3.757  0.5582  0.3025  4.9775
 7403TIP3    H243701   6.791   5.031   3.758 -0.3757  0.0403  1.0687
 7404TIP3   OH243702   3.088   5.665   4.989  0.3988 -0.0099 -0.2364
 7404TIP3    H143703   3.021   5.698   5.049 -0.7561 -0.9679 -0.9665
 7404TIP3    H243704   3.171   5.685   5.033 -0.3980 -0.2076  1.4326
 7405TIP3   OH243705   4.404   3.249   0.768 -0.3349 -0.2289  0.6247
 7405TIP3    H143706   4.482   3.225   0.818 -0.3850  0.5593  1.0904
 7405TIP3    H243707   4.351   3.300   0.828 -1.3877 -1.0378  0.4147
 7406TIP3   OH243708   6.670   5.894  15.814 -0.2950  0.3932  0.1648
 7406TIP3    H143709   6.646   5.975  15.768 -1.0684  0.0156 -0.1133
 7406TIP3    H243710   6.632   5.825  15.760 -0.4031 -0.1086  0.8856
 7407TIP3   OH243711   1.158   6.291   4.149 -0.5872  0.2210 -0.2188
 7407TIP3    H143712   1.082   6.314   4.096 -0.3163  0.5708 -0.4637
 7407TIP3    H243713   1.129   6.304   4.239 -1.1441 -0.6712 -0.2633
 7408TIP3   OH243714   3.208   5.259  14.893 -0.5891 -0.2079 -0.1751
 7408TIP3    H143715   3.230   5.207  14.971  0.4317  0.4932  0.0347
 7408TIP3    H243716   3.292   5.272  14.849 -1.0828 -0.1496 -1.1209
 7409TIP3   OH243717   4.701   6.797   5.391 -0.0984 -0.7363  0.4849
 7409TIP3    H143718   4.725   6.751   5.311  1.2076  1.1182 -0.2538
 7409TIP3    H243719   4.782   6.803   5.441 -0.1798  0.8255  0.4847
 7410TIP3   OH243720   3.751   6.712  17.023  0.1917  0.0131 -0.0731
 7410TIP3    H143721   3.704   6.767  17.085  0.1277  0.0069 -0.1150
 7410TIP3    H243722   3.726   6.622  17.046 -0.2968  0.0414 -0.4844
 7411TIP3   OH243723   6.298   2.563   2.808  0.6914  0.1879 -0.5696
 7411TIP3    H143724   6.383   2.581   2.766  0.8369  0.9965  0.0450
 7411TIP3    H243725   6.318   2.564   2.902 -0.1498  1.2402 -0.3894
 7412TIP3   OH243726   6.767   6.704  16.409 -0.3596 -0.6750  0.3501
 7412TIP3    H143727   6.834   6.673  16.348 -2.1115 -1.5069 -1.2535
 7412TIP3    H243728   6.817   6.739  16.483  1.8273 -1.2715 -0.7414
 7413TIP3   OH243729   4.050   2.179  12.943 -0.3755 -0.4843  0.1506
 7413TIP3    H143730   3.983   2.246  12.931 -0.8614 -0.6270  1.7353
 7413TIP3    H243731   4.107   2.187  12.868  0.0748  2.2948  0.7047
 7414TIP3   OH243732   3.050   5.700  13.112 -0.3178 -1.1770  0.1858
 7414TIP3    H143733   3.103   5.620  13.111 -0.4535 -1.2869  0.9689
 7414TIP3    H243734   2.985   5.684  13.181 -0.7723 -0.6619 -0.1199
 7415TIP3   OH243735   0.654   0.908  13.313  0.0598 -0.3699  0.4733
 7415TIP3    H143736   0.694   0.829  13.277 -0.1957 -0.4099  0.2734
 7415TIP3    H243737   0.578   0.877  13.362 -0.0180 -0.2528  0.4297
 7416TIP3   OH243738   0.621   5.883  11.369  0.1946 -0.5693  0.2977
 7416TIP3    H143739   0.627   5.962  11.423 -0.3844 -0.2643 -0.0752
 7416TIP3    H243740   0.655   5.813  11.425  0.0541 -0.1741  0.8800
 7417TIP3   OH243741   1.366   5.434  14.158 -0.4406  0.2049 -0.7411
 7417TIP3    H143742   1.293   5.488  14.188 -1.2733 -1.7034  0.8815
 7417TIP3    H243743   1.442   5.492  14.165 -1.5916  1.8765 -1.3549
 7418TIP3   OH243744   3.309   6.681   2.864  0.2697  0.4836 -0.7176
 7418TIP3    H143745   3.374   6.623   2.823 -0.9289 -0.9033 -0.7589
 7418TIP3    H243746   3.227   6.633   2.855 -0.3666  1.0663  1.5250
 7419TIP3   OH243747   5.079   3.058  12.726 -0.5914 -0.3365 -0.5197
 7419TIP3    H143748   5.073   3.138  12.673  0.1415 -0.2026 -0.4099
 7419TIP3    H243749   5.020   3.073  12.799  2.1115  1.6578  1.4798
 7420TIP3   OH243750   0.964   2.923  14.426 -0.2394  0.0270  0.5405
 7420TIP3    H143751   1.046   2.906  14.379  0.4486  0.5832  1.5162
 7420TIP3    H243752   0.900   2.939  14.356  0.9968  1.9328 -0.2512
 7421TIP3   OH243753   2.403   1.348   3.135 -0.3894  0.2027 -0.7438
 7421TIP3    H143754   2.408   1.420   3.198 -0.2931 -0.1587 -0.3339
 7421TIP3    H243755   2.380   1.272   3.188 -0.8891  0.0069 -1.2348
 7422TIP3   OH243756   2.772   1.319  12.421  0.4802  0.2167 -1.0163
 7422TIP3    H143757   2.768   1.335  12.326  0.6840  0.2295 -1.0231
 7422TIP3    H243758   2.711   1.382  12.458 -0.8073 -0.8326 -1.2604
 7423TIP3   OH243759   6.400   0.835  13.049 -0.8477 -0.3456  0.7510
 7423TIP3    H143760   6.321   0.788  13.076 -0.2238 -1.3578  0.8326
 7423TIP3    H243761   6.427   0.792  12.968 -1.0150  0.7461  0.0896
 7424TIP3   OH243762   6.383   5.437   3.974 -0.4181  0.7941 -0.3837
 7424TIP3    H143763   6.447   5.473   3.912  1.0322  0.3703  0.8157
 7424TIP3    H243764   6.428   5.436   4.058 -1.4000 -1.1655  0.1780
 7425TIP3   OH243765   4.165   3.120  14.675  0.2448  0.2529 -0.6741
 7425TIP3    H143766   4.216   3.196  14.647  2.1976 -0.5554  0.4788
 7425TIP3    H243767   4.227   3.067  14.726 -0.6149 -2.8418 -2.5886
 7426TIP3   OH243768   4.269   5.619  12.660 -0.2767  0.0092 -0.3802
 7426TIP3    H143769   4.215   5.540  12.663 -1.7672  0.9556 -1.3091
 7426TIP3    H243770   4.207   5.691  12.658  1.0434  1.2956  1.3276
 7427TIP3   OH243771   6.702   4.943  14.749  0.0818  0.1938 -0.2038
 7427TIP3    H143772   6.626   5.000  14.734 -0.6428 -0.6115  0.3252
 7427TIP3    H243773   6.673   4.882  14.817  1.2167 -0.1177  0.0200
 7428TIP3   OH243774   1.993   5.741   0.689 -0.0023 -0.4526 -0.1285
 7428TIP3    H143775   1.907   5.782   0.680  0.1020 -0.6085 -2.0894
 7428TIP3    H243776   1.975   5.647   0.694  0.0076 -0.4264  0.5613
 7429TIP3   OH243777   3.294   0.824   2.351  0.2879  0.0729  0.0986
 7429TIP3    H143778   3.321   0.889   2.415  0.7071 -0.1135  0.1155
 7429TIP3    H243779   3.338   0.743   2.379 -2.8379 -1.1443  2.1012
 7430TIP3   OH243780   5.159   5.312  16.680  0.1197 -0.2347 -0.8045
 7430TIP3    H143781   5.208   5.376  16.732 -0.6530 -0.4741  0.2336
 7430TIP3    H243782   5.100   5.270  16.742  0.7434 -2.1164 -1.4178
 7431TIP3   OH243783   3.188   5.360  15.268 -0.3576  0.7441  0.3414
 7431TIP3    H143784   3.180   5.272  15.231 -0.9463  0.6016  0.7916
 7431TIP3    H243785   3.281   5.380  15.264 -0.0737 -0.3419  1.2565
 7432TIP3   OH243786   5.934   5.370  13.857 -0.5150 -0.2465 -0.0500
 7432TIP3    H143787   5.922   5.276  13.840  1.0451 -0.4561 -0.1773
 7432TIP3    H243788   6.009   5.394  13.802 -0.2832  0.8576  0.7314
 7433TIP3   OH243789   5.469   3.502  15.574  0.3140  0.2630  0.2981
 7433TIP3    H143790   5.472   3.594  15.600  1.0828 -0.0667  1.4862
 7433TIP3    H243791   5.540   3.492  15.511  0.8513  0.2899  0.8882
 7434TIP3   OH243792   2.820   4.342   5.941  0.6614  1.3390  0.1731
 7434TIP3    H143793   2.751   4.408   5.948  0.1927  1.0303 -1.2332
 7434TIP3    H243794   2.777   4.260   5.964  0.3447  1.0416 -1.3788
 7435TIP3   OH243795   3.550   4.254   5.114 -0.0474  0.2959 -0.1266
 7435TIP3    H143796   3.497   4.174   5.126 -0.7282  0.4107 -1.9998
 7435TIP3    H243797   3.633   4.222   5.079 -0.5021  0.4150 -1.3565
 7436TIP3   OH243798   5.595   6.778   3.991  0.2674  0.2220 -0.3699
 7436TIP3    H143799   5.516   6.739   3.954 -0.0363  0.6775 -0.2122
 7436TIP3    H243800   5.592   6.755   4.084  1.0351 -0.9291 -0.6153
 7437TIP3   OH243801   3.236   6.416  14.653  0.1625 -0.1902 -0.1066
 7437TIP3    H143802   3.205   6.352  14.717 -0.5623 -0.1060 -0.3640
 7437TIP3    H243803   3.226   6.501  14.698  1.6745 -0.2800  0.4542
 7438TIP3   OH243804   5.375   0.147  15.066  0.1504  0.0820  0.1646
 7438TIP3    H143805   5.427   0.152  15.147  1.1950  1.7556 -0.5426
 7438TIP3    H243806   5.438   0.117  15.000 -0.4714 -0.3999 -0.2135
 7439TIP3   OH243807   4.050   6.833   4.495  0.7233 -0.6039  0.4517
 7439TIP3    H143808   3.969   6.882   4.513  1.3843  0.0553  1.8163
 7439TIP3    H243809   4.071   6.791   4.578  2.2806 -0.0023  0.3847
 7440TIP3   OH243810   2.593   6.233  16.464 -0.2077 -0.4926  0.2745
 7440TIP3    H143811   2.639   6.157  16.500  0.3619 -0.0325  0.5347
 7440TIP3    H243812   2.549   6.199  16.386  1.7767 -0.6309 -0.8401
 7441TIP3   OH243813   4.663   1.965  13.776 -0.1814 -0.1407  0.1610
 7441TIP3    H143814   4.597   2.025  13.741 -1.8355 -2.5232 -1.1311
 7441TIP3    H243815   4.744   1.990  13.731 -0.9449  0.7535 -0.7754
 7442TIP3   OH243816   5.747   0.061  14.218 -0.7441 -0.0147  0.1705
 7442TIP3    H143817   5.841   0.060  14.206 -0.8637 -0.3055 -0.7960
 7442TIP3    H243818   5.735   0.056  14.313  0.1921 -1.8784  0.2396
 7443TIP3   OH243819   4.198   4.695   2.690  0.0032  0.4490 -0.4519
 7443TIP3    H143820   4.277   4.682   2.636  0.8414 -0.8769  1.0187
 7443TIP3    H243821   4.179   4.609   2.725 -0.8237  1.1753  0.9587
 7444TIP3   OH243822   1.297   0.474  12.841  0.2040 -0.4207 -0.3604
 7444TIP3    H143823   1.211   0.514  12.825 -0.4157 -1.9073 -1.0073
 7444TIP3    H243824   1.306   0.409  12.771  1.9919 -0.1181 -0.4537
 7445TIP3   OH243825   0.227   6.223   6.309 -0.2482 -0.0307  0.0070
 7445TIP3    H143826   0.181   6.280   6.371  0.2822 -0.5669  0.9169
 7445TIP3    H243827   0.285   6.169   6.364  0.3094 -0.4528 -0.9663
 7446TIP3   OH243828   2.994   6.696   4.233 -0.5890 -0.4562 -0.5526
 7446TIP3    H143829   3.024   6.607   4.254 -0.6388 -1.0753 -2.7929
 7446TIP3    H243830   3.008   6.704   4.139  2.2758  3.0452 -0.0240
 7447TIP3   OH243831   3.771   1.383   1.079 -0.4727  0.2636 -0.3546
 7447TIP3    H143832   3.839   1.330   1.121 -3.9315 -1.7605  3.3772
 7447TIP3    H243833   3.769   1.352   0.989 -0.3305 -4.0818  0.9198
 7448TIP3   OH243834   3.532   5.612   0.367  0.1213  0.4192  0.0614
 7448TIP3    H143835   3.596   5.559   0.320 -0.6901 -1.2716  0.7944
 7448TIP3    H243836   3.552   5.598   0.459 -0.3662  1.1001  0.2802
 7449TIP3   OH243837   0.287   6.250   1.783 -0.1455 -0.1931 -0.2848
 7449TIP3    H143838   0.362   6.306   1.803 -1.2136  0.4589  2.3020
 7449TIP3    H243839   0.224   6.269   1.852 -1.6961 -2.5513 -0.9282
 7450TIP3   OH243840   1.284   2.989   4.498  0.4483 -0.1813 -0.1203
 7450TIP3    H143841   1.230   2.956   4.570  0.5002  1.8966  0.9383
 7450TIP3    H243842   1.221   3.033   4.440  0.5451 -0.9871 -0.8590
 7451TIP3   OH243843   4.705   6.380   4.163 -0.2621 -0.3745 -0.4003
 7451TIP3    H143844   4.670   6.464   4.132  1.6112  2.0990  3.3549
 7451TIP3    H243845   4.644   6.354   4.233  0.4982 -0.7942  0.1164
 7452TIP3   OH243846   2.015   3.546   0.502 -0.6486 -0.5410 -0.1561
 7452TIP3    H143847   2.082   3.486   0.535 -0.0238 -0.2673 -0.8857
 7452TIP3    H243848   1.932   3.504   0.522 -0.3611  0.0207  2.6106
 7453TIP3   OH243849   2.236   6.335   2.593  0.0953  0.1197 -0.0315
 7453TIP3    H143850   2.275   6.370   2.513  1.4623 -1.5677 -0.1599
 7453TIP3    H243851   2.311   6.316   2.650 -0.8028  0.6021  1.3773
 7454TIP3   OH243852   2.240   1.219   3.948 -0.1995  0.1951  0.2760
 7454TIP3    H143853   2.200   1.135   3.925 -0.2928  0.2051  0.4005
 7454TIP3    H243854   2.335   1.202   3.945 -0.1642  0.4653 -1.1433
 7455TIP3   OH243855   3.278   6.731   3.479  0.3613  0.8092  0.2799
 7455TIP3    H143856   3.215   6.773   3.421 -0.4082  0.3753  0.7802
 7455TIP3    H243857   3.301   6.798   3.543 -1.8114  0.1752  1.8320
 7456TIP3   OH243858   4.607   3.819   4.060  0.4647 -0.6575  0.2816
 7456TIP3    H143859   4.677   3.883   4.072  0.2667 -0.6699  1.6158
 7456TIP3    H243860   4.583   3.826   3.967  2.2624 -0.6966 -0.2209
 7457TIP3   OH243861   2.714   4.665  13.836  0.6035 -0.0945 -0.5788
 7457TIP3    H143862   2.783   4.730  13.848  0.0875  0.3754 -0.1041
 7457TIP3    H243863   2.640   4.715  13.800  0.9898 -0.8557 -2.6043
 7458TIP3   OH243864   4.659   2.784   1.553  0.0762 -0.3499 -0.0017
 7458TIP3    H143865   4.612   2.866   1.545 -0.0689 -0.0658  2.6861
 7458TIP3    H243866   4.636   2.751   1.640  3.9555 -0.6922  1.1235
 7459TIP3   OH243867   6.551   1.538  13.690 -0.5552  0.1411  0.3553
 7459TIP3    H143868   6.559   1.626  13.726  0.5103  0.0093  0.4789
 7459TIP3    H243869   6.568   1.548  13.597  2.0922 -0.2305  0.7135
 7460TIP3   OH243870   4.604   4.528  14.343 -0.4145  0.0888  0.2284
 7460TIP3    H143871   4.532   4.589  14.326 -0.0010  0.5667  0.1666
 7460TIP3    H243872   4.665   4.578  14.397  1.1168  0.5866 -1.8413
 7461TIP3   OH243873   4.516   1.131   3.404 -0.6691  0.4346  0.0963
 7461TIP3    H143874   4.569   1.052   3.418 -1.5004 -0.3952 -1.2719
 7461TIP3    H243875   4.567   1.201   3.445  0.1173 -0.7886  1.2993
 7462TIP3   OH243876   2.871   3.753  15.292 -0.0159  0.1784 -0.0733
 7462TIP3    H143877   2.913   3.738  15.207  0.1550  0.6712 -0.0792
 7462TIP3    H243878   2.777   3.742  15.274 -0.0153  0.6971 -0.4260
 7463TIP3   OH243879   1.812   3.676   3.671  0.4730 -0.1969 -0.2336
 7463TIP3    H143880   1.862   3.743   3.624  0.2440  0.7747  0.8662
 7463TIP3    H243881   1.753   3.725   3.728 -0.8413 -1.3371 -0.5585
 7464TIP3   OH243882   1.653   5.849  16.788 -0.5103 -0.0636 -0.1595
 7464TIP3    H143883   1.630   5.808  16.704  1.3327 -0.3906 -0.5329
 7464TIP3    H243884   1.748   5.848  16.791 -0.5188  0.1400  1.8652
 7465TIP3   OH243885   3.676   2.735   4.863  0.2250 -0.1994  0.1673
 7465TIP3    H143886   3.616   2.804   4.891 -0.3040 -0.2787 -0.7036
 7465TIP3    H243887   3.697   2.757   4.772  0.1748 -1.0894 -0.0729
 7466TIP3   OH243888   1.610   4.796   0.983 -0.3290  0.0549  0.1754
 7466TIP3    H143889   1.686   4.749   0.948 -0.3434 -0.4342  0.7806
 7466TIP3    H243890   1.633   4.889   0.976  0.0277 -0.0677 -0.2996
 7467TIP3   OH243891   5.337   3.978   3.807 -0.2153 -0.1636  0.4307
 7467TIP3    H143892   5.404   3.915   3.781  0.1085  0.0932  0.6378
 7467TIP3    H243893   5.350   4.053   3.748 -1.2536 -0.6844 -0.5042
 7468TIP3   OH243894   0.566   6.099   4.045 -0.3399  0.3228  0.2581
 7468TIP3    H143895   0.635   6.051   4.091 -0.7107 -1.6173 -1.1123
 7468TIP3    H243896   0.498   6.113   4.111  0.3601  0.2026  1.0265
 7469TIP3   OH243897   6.169   6.174   5.928 -0.5233 -0.0317  0.7575
 7469TIP3    H143898   6.203   6.185   6.017  1.4055 -1.6646  0.2801
 7469TIP3    H243899   6.185   6.082   5.907  0.8361  0.7129 -1.9412
 7470TIP3   OH243900   4.288   6.067   1.984  0.2197  0.3222 -0.5182
 7470TIP3    H143901   4.326   6.115   1.910  0.9962 -0.6183 -0.7606
 7470TIP3    H243902   4.243   6.133   2.036  2.1756  1.5255 -0.2544
 7471TIP3   OH243903   6.632   2.772   2.250  0.7113 -0.7183  0.0290
 7471TIP3    H143904   6.707   2.734   2.295  0.4837 -1.8693 -0.5349
 7471TIP3    H243905   6.558   2.716   2.273  0.7182 -1.8359 -2.3525
 7472TIP3   OH243906   5.135   5.065  12.752  0.4567 -0.4872 -0.0459
 7472TIP3    H143907   5.176   5.151  12.763  0.3210 -0.5668  1.1670
 7472TIP3    H243908   5.055   5.083  12.702  1.2760 -0.1551 -1.2891
 7473TIP3   OH243909   0.613   2.998  13.663 -0.5832  0.3858 -0.0481
 7473TIP3    H143910   0.681   2.947  13.706 -0.2861  0.5402 -0.3261
 7473TIP3    H243911   0.531   2.956  13.689 -0.3750  0.1164  0.1818
 7474TIP3   OH243912   0.805   6.553   4.301  0.0946 -0.5904  0.5748
 7474TIP3    H143913   0.800   6.647   4.317 -1.5224 -0.2833 -1.3540
 7474TIP3    H243914   0.894   6.540   4.266 -0.6236  0.8098 -2.0374
 7475TIP3   OH243915   0.280   0.602  13.058 -0.0453  0.0020 -0.4090
 7475TIP3    H143916   0.287   0.529  12.997 -0.5068 -1.4280  1.1557
 7475TIP3    H243917   0.201   0.583  13.108  0.1232  1.3099  0.3785
 7476TIP3   OH243918   4.926   1.093  14.283 -0.2110 -0.3879  0.1225
 7476TIP3    H143919   4.844   1.112  14.328 -0.0035  0.8803 -0.0031
 7476TIP3    H243920   4.978   1.044  14.347 -1.7079 -2.8263 -0.3922
 7477TIP3   OH243921   6.664   2.231   4.459 -0.0088  0.1239 -0.0610
 7477TIP3    H143922   6.575   2.198   4.472  0.1873 -0.1738  0.5594
 7477TIP3    H243923   6.703   2.231   4.547  0.8528 -0.4740 -0.4368
 7478TIP3   OH243924   1.292   3.441  12.172  0.1377 -0.6100 -0.4114
 7478TIP3    H143925   1.382   3.472  12.181 -0.0870 -0.3402  1.1186
 7478TIP3    H243926   1.268   3.463  12.082  1.3185  0.0671 -0.5804
 7479TIP3   OH243927   1.702   4.654   4.737 -0.5018 -0.0345  0.0063
 7479TIP3    H143928   1.666   4.670   4.824 -0.3447 -0.4256  0.1425
 7479TIP3    H243929   1.631   4.678   4.677 -0.7505 -0.1500  0.2523
 7480TIP3   OH243930   6.514   3.575  10.368  0.0042  0.4932  0.1732
 7480TIP3    H143931   6.557   3.520  10.433 -1.0906 -1.3815 -0.6069
 7480TIP3    H243932   6.576   3.579  10.295 -0.1632 -0.2654 -0.0206
 7481TIP3   OH243933   3.153   2.520   2.713 -0.3748  0.1012 -0.8059
 7481TIP3    H143934   3.066   2.495   2.745  0.1113 -1.3860 -0.5375
 7481TIP3    H243935   3.136   2.573   2.636 -1.5354  1.2565  0.2062
 7482TIP3   OH243936   2.797   5.058  12.420 -0.3214 -0.9507  0.4632
 7482TIP3    H143937   2.733   5.112  12.373 -1.7889 -3.2045 -0.2443
 7482TIP3    H243938   2.874   5.115  12.429 -0.7174  0.3051 -2.8177
 7483TIP3   OH243939   4.588   2.352   0.445  0.2061 -0.2480 -0.6532
 7483TIP3    H143940   4.671   2.332   0.488  0.3629 -0.2571 -0.9582
 7483TIP3    H243941   4.526   2.367   0.517  0.6312  0.4399 -0.4263
 7484TIP3   OH243942   2.938   3.898  10.546 -0.2155  0.2298  0.0787
 7484TIP3    H143943   2.943   3.984  10.588  0.3072 -0.0754  0.6589
 7484TIP3    H243944   2.845   3.882  10.536 -0.3134  1.1699 -0.6873
 7485TIP3   OH243945   6.342   0.653  11.004  0.1112 -0.0950  0.3675
 7485TIP3    H143946   6.414   0.609  11.049  0.2898  1.0286  1.2236
 7485TIP3    H243947   6.332   0.736  11.050 -0.1801  0.7958 -1.2179
 7486TIP3   OH243948   5.682   2.999   2.156 -0.2211  0.2933  0.5915
 7486TIP3    H143949   5.702   2.936   2.225  3.3604 -0.3834 -0.8653
 7486TIP3    H243950   5.736   3.075   2.177  0.2790  0.3954 -0.9528
 7487TIP3   OH243951   0.322   1.423   0.410 -0.4684  0.3263  0.5419
 7487TIP3    H143952   0.305   1.428   0.316  0.8394 -0.7972  0.2224
 7487TIP3    H243953   0.274   1.346   0.439 -1.6204  1.1817  1.0053
 7488TIP3   OH243954   1.012   6.083   5.770 -0.8661 -0.1188  0.4383
 7488TIP3    H143955   0.997   6.122   5.856 -1.6998 -1.8904  1.1629
 7488TIP3    H243956   1.058   6.001   5.789 -1.4365 -0.7475 -0.7512
 7489TIP3   OH243957   1.036   5.040   6.034  0.0718 -0.4172 -0.6199
 7489TIP3    H143958   1.119   5.052   6.080 -1.3117 -2.1586  2.7861
 7489TIP3    H243959   0.971   5.033   6.105 -2.3752 -3.0966 -2.8683
 7490TIP3   OH243960   4.570   6.103   2.937  0.0733  0.1091  0.4844
 7490TIP3    H143961   4.559   6.013   2.969  4.9722 -1.7381 -1.9828
 7490TIP3    H243962   4.635   6.141   2.995  0.3284  0.9324 -0.3178
 7491TIP3   OH243963   6.371   0.282   2.051  0.0447 -0.7392  0.2181
 7491TIP3    H143964   6.444   0.229   2.082  1.7821  1.6775  0.6294
 7491TIP3    H243965   6.337   0.323   2.131 -0.5731 -0.4585 -0.1856
 7492TIP3   OH243966   3.616   4.616  15.517 -0.6888 -0.4991  0.2274
 7492TIP3    H143967   3.673   4.692  15.508  0.8144 -1.6677 -0.5973
 7492TIP3    H243968   3.673   4.547  15.552 -2.2362 -1.0237  1.8996
 7493TIP3   OH243969   0.706   4.265  16.994  0.4083 -0.3903  0.0273
 7493TIP3    H143970   0.656   4.196  16.950  1.9382 -0.9711 -0.8841
 7493TIP3    H243971   0.763   4.301  16.926  2.6062 -1.0635  1.4080
 7494TIP3   OH243972   4.461   0.860  15.457 -0.7737  0.0140 -0.4118
 7494TIP3    H143973   4.554   0.849  15.436 -1.3019 -1.3807 -2.3524
 7494TIP3    H243974   4.437   0.943  15.416 -0.3591  0.5187  0.3303
 7495TIP3   OH243975   2.880   5.578   2.020 -0.2536 -0.0556 -0.0598
 7495TIP3    H143976   2.850   5.593   2.109 -0.1321  0.8656 -0.1677
 7495TIP3    H243977   2.821   5.511   1.986 -0.3068 -0.4116  0.6992
 7496TIP3   OH243978   2.003   6.135  11.513  0.4426  0.0559 -0.2926
 7496TIP3    H143979   2.043   6.118  11.598 -0.6151  2.0890  0.7005
 7496TIP3    H243980   1.911   6.111  11.525  0.7922 -2.4453 -1.8502
 7497TIP3   OH243981   5.658   5.683   1.571  0.7437  0.1620 -0.3695
 7497TIP3    H143982   5.625   5.593   1.567 -2.5497  1.1354  1.4540
 7497TIP3    H243983   5.707   5.694   1.489  0.5710 -2.9996 -1.0210
 7498TIP3   OH243984   2.852   1.808   4.376 -0.2763  0.3179  0.0718
 7498TIP3    H143985   2.791   1.797   4.448 -0.4877 -1.3273 -0.3305
 7498TIP3    H243986   2.927   1.753   4.399 -0.6461 -0.7783 -1.2772
 7499TIP3   OH243987   6.577   5.607  14.856 -0.7102  0.2667  0.1923
 7499TIP3    H143988   6.601   5.544  14.789  1.6700  1.6568 -0.3805
 7499TIP3    H243989   6.559   5.688  14.808 -0.8676  0.7942  1.1136
 7500TIP3   OH243990   5.852   6.185  15.931  0.0134  0.3707  1.0432
 7500TIP3    H143991   5.917   6.211  15.997  0.6505 -1.3162  1.1255
 7500TIP3    H243992   5.795   6.124  15.977  0.6171 -1.0267 -0.0119
 7501TIP3   OH243993   4.306   3.078   5.119 -0.2481 -0.7720  0.6741
 7501TIP3    H143994   4.250   3.148   5.154  1.5168  0.5106  1.0614
 7501TIP3    H243995   4.323   3.104   5.028  3.1072  1.2411  1.6985
 7502TIP3   OH243996   3.055   0.578  10.905 -0.7934 -0.4255  0.1379
 7502TIP3    H143997   2.968   0.547  10.928 -0.9190  0.3861  0.7990
 7502TIP3    H243998   3.071   0.651  10.965 -0.5586  0.8472 -1.4173
 7503TIP3   OH243999   5.225   1.081   1.323 -0.1161  0.8176 -0.6872
 7503TIP3    H144000   5.242   1.144   1.393  0.4946 -1.2266  1.1326
 7503TIP3    H244001   5.306   1.081   1.271 -0.0322  1.3605 -0.5652
 7504TIP3   OH244002   4.686   0.198   5.134 -0.2822 -0.6172  0.3256
 7504TIP3    H144003   4.640   0.117   5.113 -0.8191 -0.1320 -0.4338
 7504TIP3    H244004   4.776   0.182   5.106 -0.2495 -1.1596  0.7355
 7505TIP3   OH244005   3.656   0.299  13.311  0.2355  0.1533 -0.6400
 7505TIP3    H144006   3.592   0.248  13.262 -0.2022  0.3287 -0.2575
 7505TIP3    H244007   3.665   0.253  13.394 -1.2486  1.4421  0.3036
 7506TIP3   OH244008   5.689   1.655  13.806  0.2997 -0.2374  0.3780
 7506TIP3    H144009   5.754   1.725  13.795  0.1933 -0.1557  0.2676
 7506TIP3    H244010   5.741   1.578  13.829  0.2709  0.2908  2.3729
 7507TIP3   OH244011   4.131   3.495  17.003 -0.2186  0.4559  0.5209
 7507TIP3    H144012   4.089   3.502  17.089 -1.2303 -0.5576  0.1370
 7507TIP3    H244013   4.172   3.408  17.003 -2.3722 -0.6359 -0.8963
 7508TIP3   OH244014   4.025   5.273   1.381 -0.0640  0.7220 -0.3683
 7508TIP3    H144015   3.961   5.322   1.432 -0.3429  1.6745 -1.5775
 7508TIP3    H244016   4.103   5.330   1.379  1.6035 -1.1745  2.6186
 7509TIP3   OH244017   0.796   0.717  11.517  0.3335 -0.0025 -0.3481
 7509TIP3    H144018   0.853   0.640  11.522  2.1008  1.2155 -0.6577
 7509TIP3    H244019   0.853   0.786  11.484 -1.2118  1.4415 -0.1021
 7510TIP3   OH244020   1.571   2.684  15.823  0.0353 -0.3161  0.1534
 7510TIP3    H144021   1.490   2.720  15.861  1.1746  1.3326  1.1440
 7510TIP3    H244022   1.594   2.746  15.754  0.5541 -0.6562  0.0212
 7511TIP3   OH244023   3.059   5.489  14.842  0.3003  0.0182 -0.6305
 7511TIP3    H144024   3.105   5.406  14.855 -0.2895 -0.7118 -2.8387
 7511TIP3    H244025   3.074   5.537  14.923  4.2574 -0.4928 -0.8600
 7512TIP3   OH244026   5.383   0.459  15.654 -0.1802 -0.2966  0.1728
 7512TIP3    H144027   5.306   0.409  15.626  0.4531 -1.4936  0.4858
 7512TIP3    H244028   5.357   0.498  15.738 -0.4499 -0.6872  0.2724
 7513TIP3   OH244029   6.686   1.471   4.565  0.0459 -0.1307  0.1609
 7513TIP3    H144030   6.591   1.463   4.559  0.2496 -2.6058 -2.5687
 7513TIP3    H244031   6.706   1.555   4.524 -0.9242 -0.0058 -0.0736
 7514TIP3   OH244032   1.402   0.403  15.861 -0.1236  0.4847  0.5686
 7514TIP3    H144033   1.352   0.451  15.794  0.7600 -0.0511 -0.5193
 7514TIP3    H244034   1.374   0.312  15.851  1.0773  0.1663 -0.1008
 7515TIP3   OH244035   3.564   3.312   5.798 -0.7361  0.2264 -0.5011
 7515TIP3    H144036   3.600   3.332   5.712 -0.4859  1.9779 -0.0355
 7515TIP3    H244037   3.616   3.366   5.859 -1.0384 -0.8113  0.7259
 7516TIP3   OH244038   4.338   2.367   0.898  0.1839  0.0817 -0.1355
 7516TIP3    H144039   4.394   2.443   0.906 -0.4102  0.5254 -0.0965
 7516TIP3    H244040   4.383   2.299   0.948 -0.0446  0.8580  1.1969
 7517TIP3   OH244041   2.566   0.996  14.914  0.3577 -0.1695 -0.0096
 7517TIP3    H144042   2.623   0.978  14.989  0.8754  0.5369 -0.2222
 7517TIP3    H244043   2.580   0.922  14.855 -0.3293 -0.9176  0.7373
 7518TIP3   OH244044   0.734   1.569   3.367 -0.7152  0.0954  0.1778
 7518TIP3    H144045   0.676   1.594   3.439 -1.2908  0.7477 -0.4945
 7518TIP3    H244046   0.806   1.522   3.409 -0.7965  0.8821  1.2231
 7519TIP3   OH244047   0.424   2.861   3.082 -0.2757  0.0224  0.2222
 7519TIP3    H144048   0.484   2.802   3.128 -0.7832 -0.8133 -0.1631
 7519TIP3    H244049   0.444   2.848   2.990 -0.1639  0.7156  0.1422
 7520TIP3   OH244050   6.159   4.293  16.776 -1.2840 -0.0576  0.0925
 7520TIP3    H144051   6.121   4.209  16.801 -1.9142 -0.0229 -0.7370
 7520TIP3    H244052   6.098   4.331  16.714 -0.0537  0.1332 -1.0581
 7521TIP3   OH244053   6.782   1.030  12.665  0.0574 -0.5715  0.0536
 7521TIP3    H144054   6.783   1.099  12.731 -1.8795  0.5520 -0.9917
 7521TIP3    H244055   6.734   1.068  12.592  0.1327 -2.5772 -1.1015
 7522TIP3   OH244056   0.104   2.052   3.976  0.2102 -0.2959  0.6819
 7522TIP3    H144057   0.138   2.010   4.055 -0.3275 -1.8898  0.0988
 7522TIP3    H244058   0.009   2.051   3.987  0.1537  3.7839  2.1267
 7523TIP3   OH244059   1.720   1.679   6.640 -0.0086 -0.4671  0.1097
 7523TIP3    H144060   1.782   1.605   6.638 -1.4593 -1.8389  1.8982
 7523TIP3    H244061   1.774   1.756   6.623  2.1621 -1.6142  1.3174
 7524TIP3   OH244062   3.819   6.655   4.817  0.0165  0.0268 -0.2074
 7524TIP3    H144063   3.800   6.625   4.728  0.8975 -1.0486 -0.0531
 7524TIP3    H244064   3.776   6.591   4.874 -2.2839  1.8330  0.1941
 7525TIP3   OH244065   2.364   2.933  12.258 -0.3783  0.6432  0.0545
 7525TIP3    H144066   2.402   2.868  12.317 -1.7098  1.4781  1.9466
 7525TIP3    H244067   2.428   3.004  12.254  0.4470 -0.1138 -0.8913
 7526TIP3   OH244068   2.593   4.181  13.697  0.1263 -0.3107  0.0191
 7526TIP3    H144069   2.552   4.261  13.663  1.4396  0.3538 -0.1116
 7526TIP3    H244070   2.536   4.153  13.768  1.1191  2.4672  2.1043
 7527TIP3   OH244071   0.997   1.812   1.929  0.0134 -0.3728  0.5895
 7527TIP3    H144072   0.999   1.906   1.914  0.2202 -0.2368  1.4603
 7527TIP3    H244073   1.081   1.780   1.897  0.0330 -0.2369  0.5065
 7528TIP3   OH244074   6.375   5.207  16.756  0.0184 -0.6896  0.6677
 7528TIP3    H144075   6.464   5.172  16.766  0.0407 -0.6516  0.6062
 7528TIP3    H244076   6.345   5.221  16.846  0.3404 -0.0382  0.6752
 7529TIP3   OH244077   2.966   1.870   2.635 -0.2000  0.4507  0.0668
 7529TIP3    H144078   3.034   1.909   2.690  0.5336  0.3623 -0.7556
 7529TIP3    H244079   2.996   1.884   2.545 -1.4931  0.7950 -0.3357
 7530TIP3   OH244080   2.947   6.583   3.616 -0.7331  0.5245  0.1913
 7530TIP3    H144081   2.941   6.649   3.547  1.3990  2.1502  1.4191
 7530TIP3    H244082   2.877   6.606   3.677 -0.6420  1.0500  0.1090
 7531TIP3   OH244083   4.651   0.688  12.523 -0.6098 -0.0294  0.4681
 7531TIP3    H144084   4.694   0.603  12.522 -0.8889 -0.1646  0.1481
 7531TIP3    H244085   4.561   0.671  12.495 -0.7315  0.3343  0.6232
 7532TIP3   OH244086   2.406   0.737  17.106  0.2844 -0.4123  0.1600
 7532TIP3    H144087   2.377   0.771  17.021 -0.2387  0.3925  0.6503
 7532TIP3    H244088   2.487   0.690  17.086  1.2460  1.4316 -0.5221
 7533TIP3   OH244089   1.970   2.964   6.214  0.1668  0.1556 -0.6668
 7533TIP3    H144090   1.884   2.944   6.251 -0.2430 -0.4484 -1.8941
 7533TIP3    H244091   2.023   2.987   6.290 -0.5662 -1.2818  0.3417
 7534TIP3   OH244092   4.226   2.585   0.005 -0.3043  0.0796 -0.0970
 7534TIP3    H144093   4.208   2.493  -0.014  1.5939 -0.2849 -0.3305
 7534TIP3    H244094   4.251   2.586   0.097  0.7979  0.1633 -0.3868
 7535TIP3   OH244095   6.159   1.635   2.630  0.1751  0.4812  0.0988
 7535TIP3    H144096   6.229   1.577   2.661  0.2390  1.2529  1.4657
 7535TIP3    H244097   6.089   1.575   2.604  1.3494 -0.3026 -1.3649
 7536TIP3   OH244098   6.632   2.932   4.899  0.3705  0.3206  0.7587
 7536TIP3    H144099   6.672   3.000   4.847  2.1365 -2.9193 -2.6024
 7536TIP3    H244100   6.557   2.902   4.847  1.4311 -2.2139  0.5523
 7537TIP3   OH244101   1.066   1.682  12.645 -0.2121 -0.0466 -0.5088
 7537TIP3    H144102   1.051   1.588  12.638  2.7189 -0.6701  0.1170
 7537TIP3    H244103   1.046   1.703  12.736  1.6666 -0.7124  0.1212
 7538TIP3   OH244104   4.366   5.714   0.099 -0.0481  0.7062 -0.4309
 7538TIP3    H144105   4.328   5.765   0.170 -0.9515 -0.4328 -0.0476
 7538TIP3    H244106   4.386   5.629   0.139 -0.8577 -0.0564 -1.5911
 7539TIP3   OH244107   1.902   3.797   0.671  0.4597  0.0006  0.2706
 7539TIP3    H144108   1.942   3.848   0.601  0.6815 -2.0460 -1.1883
 7539TIP3    H244109   1.813   3.831   0.677  1.2687  2.1754  1.0790
 7540TIP3   OH244110   5.033   1.392   5.805  0.0915 -0.6046  0.6430
 7540TIP3    H144111   5.066   1.377   5.716  0.1391 -1.4774  0.7935
 7540TIP3    H244112   4.986   1.311   5.826  0.7550 -0.7298  1.7070
 7541TIP3   OH244113   5.797   0.676  14.484 -0.5297  0.1403  0.1385
 7541TIP3    H144114   5.816   0.704  14.573  2.2631  3.1199 -1.1600
 7541TIP3    H244115   5.704   0.695  14.472 -0.8443  0.1470  2.2291
 7542TIP3   OH244116   1.331   0.187  13.786  0.0985 -0.0078  0.7341
 7542TIP3    H144117   1.354   0.191  13.879  1.0498  3.2264  0.4944
 7542TIP3    H244118   1.412   0.158  13.743  0.0388 -0.3003  0.8181
 7543TIP3   OH244119   5.326   2.826  13.704  0.2725 -0.5388  0.5927
 7543TIP3    H144120   5.248   2.782  13.670  0.7076 -1.0123  0.2007
 7543TIP3    H244121   5.291   2.901  13.753 -0.3590  0.7397 -1.6561
 7544TIP3   OH244122   1.937   0.585  16.287  0.2267 -0.0317  0.2306
 7544TIP3    H144123   1.938   0.490  16.275 -0.4737  0.0706 -0.7792
 7544TIP3    H244124   1.874   0.617  16.222  0.4205  1.1220  0.5818
 7545TIP3   OH244125   6.372   5.324   3.080 -0.4160  0.2167  0.2876
 7545TIP3    H144126   6.422   5.267   3.138 -1.1345 -0.6084  0.1278
 7545TIP3    H244127   6.281   5.303   3.098 -0.6732  0.5491 -0.5424
 7546TIP3   OH244128   0.286   2.452  13.172  0.2313 -0.0454  0.1793
 7546TIP3    H144129   0.370   2.462  13.128 -0.1314  1.9116 -0.1447
 7546TIP3    H244130   0.293   2.505  13.251 -0.7237  0.2286  0.0964
 7547TIP3   OH244131   5.810   6.169  14.532 -0.2414 -0.4291 -0.1762
 7547TIP3    H144132   5.857   6.237  14.582 -3.0862  1.6125 -0.0371
 7547TIP3    H244133   5.861   6.160  14.452  0.3529  1.8428 -0.1436
 7548TIP3   OH244134   3.808   5.833  11.483  0.0750  0.5324  0.0702
 7548TIP3    H144135   3.809   5.924  11.454 -0.4400  0.1373 -1.2658
 7548TIP3    H244136   3.815   5.782  11.403  2.5023 -0.6287  0.9079
 7549TIP3   OH244137   4.962   5.863   6.071  0.1221  0.2915 -0.3124
 7549TIP3    H144138   4.990   5.954   6.060  0.5839  0.2790  0.6096
 7549TIP3    H244139   4.867   5.866   6.059 -0.0390  1.1250  0.9247
 7550TIP3   OH244140   6.140   3.751  16.456  0.3741 -0.2841 -0.3456
 7550TIP3    H144141   6.125   3.818  16.523  1.1347 -0.4695  0.0172
 7550TIP3    H244142   6.058   3.749  16.406  0.0077  0.2637  0.2139
 7551TIP3   OH244143   3.934   6.035   6.367  0.0562 -0.1442 -0.3990
 7551TIP3    H144144   3.853   6.034   6.417  0.3963 -0.2688  0.1524
 7551TIP3    H244145   3.985   5.961   6.401  0.2676 -0.2724 -0.9670
 7552TIP3   OH244146   0.516   0.536   4.861  0.2222  0.0216 -0.1509
 7552TIP3    H144147   0.429   0.569   4.840  0.8736  0.4606 -2.3966
 7552TIP3    H244148   0.500   0.463   4.922 -1.7563 -0.3429 -1.0269
 7553TIP3   OH244149   2.434   3.601   3.473  0.1934 -0.3291 -0.2780
 7553TIP3    H144150   2.493   3.635   3.540 -2.5877  2.2016  1.0966
 7553TIP3    H244151   2.436   3.667   3.403 -1.0796 -0.0904 -0.1184
 7554TIP3   OH244152   3.307   3.917  10.760 -0.5290  0.5128 -0.1654
 7554TIP3    H144153   3.264   3.906  10.845  0.8552 -1.4346  0.3685
 7554TIP3    H244154   3.400   3.905  10.780 -0.1304  0.6302 -1.8690
 7555TIP3   OH244155   5.429   1.966  12.121 -0.4506  0.4505 -0.3238
 7555TIP3    H144156   5.385   1.983  12.038 -1.9975 -1.4315  0.0371
 7555TIP3    H244157   5.454   1.874  12.116  0.8134  0.7060  0.7145
 7556TIP3   OH244158   3.343   4.300   4.563 -0.1350 -0.0120 -0.5061
 7556TIP3    H144159   3.348   4.395   4.566 -1.7260  0.1082 -0.8859
 7556TIP3    H244160   3.402   4.274   4.492 -1.2781  0.8622 -1.8194
 7557TIP3   OH244161   3.888   3.766   1.800 -0.1800 -0.6491 -0.2389
 7557TIP3    H144162   3.858   3.769   1.709  1.1830 -0.9472 -0.7202
 7557TIP3    H244163   3.877   3.674   1.826 -0.5116 -0.5767 -0.1254
 7558TIP3   OH244164   2.495   5.841   6.362  0.2202 -0.3911 -0.4330
 7558TIP3    H144165   2.563   5.859   6.297 -0.3624  4.4952 -0.0482
 7558TIP3    H244166   2.422   5.806   6.310  1.0235 -0.1775 -1.7762
 7559TIP3   OH244167   6.401   1.934  15.345 -0.5304  0.1525 -0.3511
 7559TIP3    H144168   6.324   1.932  15.403  0.1306  1.4761  0.6402
 7559TIP3    H244169   6.472   1.899  15.399  0.0300  1.1072 -0.4519
 7560TIP3   OH244170   3.538   2.079  17.021  0.4457  0.1560 -0.2104
 7560TIP3    H144171   3.495   2.068  16.936  0.4774  3.1672 -0.7530
 7560TIP3    H244172   3.609   2.015  17.020 -0.3246 -0.7429 -1.9199
 7561TIP3   OH244173   0.370   5.776   6.490 -0.8222 -0.2204 -0.5564
 7561TIP3    H144174   0.325   5.730   6.420 -1.2570  0.5421 -0.7939
 7561TIP3    H244175   0.419   5.708   6.537 -2.2597 -1.0915 -0.2547
 7562TIP3   OH244176   3.078   0.753   6.243  0.7041  0.1888 -0.3858
 7562TIP3    H144177   3.099   0.699   6.319 -0.1297  0.6473  0.1928
 7562TIP3    H244178   3.114   0.839   6.264 -0.9665  0.7693  0.2646
 7563TIP3   OH244179   6.826   6.483  14.449 -0.1523  0.6447 -0.3248
 7563TIP3    H144180   6.804   6.520  14.363 -0.3280 -1.6942 -1.3714
 7563TIP3    H244181   6.748   6.498  14.502 -0.9018  0.2189 -1.2692
 7564TIP3   OH244182   6.844   4.081   4.113  0.3125 -0.3175  0.0618
 7564TIP3    H144183   6.763   4.131   4.130  0.5969  0.1044  0.2014
 7564TIP3    H244184   6.880   4.064   4.200  0.6001 -0.1255 -0.0212
 7565TIP3   OH244185   0.879   4.664  10.989  0.1560  0.5002  0.3508
 7565TIP3    H144186   0.815   4.711  10.935  0.1065 -0.2052 -0.2225
 7565TIP3    H244187   0.833   4.585  11.018  0.0387  1.0727  1.8040
 7566TIP3   OH244188   5.383   3.653  16.070 -0.6143  0.0299  0.0968
 7566TIP3    H144189   5.344   3.644  15.983 -0.7149 -1.1411  0.2425
 7566TIP3    H244190   5.327   3.716  16.115 -0.5483  0.6571 -0.6910
 7567TIP3   OH244191   2.127   2.926  13.464  0.6426 -0.2468 -1.0510
 7567TIP3    H144192   2.197   2.920  13.399  0.7004  1.2629 -1.1651
 7567TIP3    H244193   2.056   2.971  13.418  0.7646  1.0337 -0.0393
 7568TIP3   OH244194   1.044   3.264  13.279 -0.9964 -0.0059  0.2036
 7568TIP3    H144195   1.043   3.342  13.335  0.8613  1.0309 -1.1179
 7568TIP3    H244196   1.127   3.222  13.299 -0.7824 -0.1857 -1.0324
 7569TIP3   OH244197   5.512   0.543   2.660  0.1721 -1.0122 -0.6685
 7569TIP3    H144198   5.523   0.490   2.739 -1.0480 -0.5361 -0.1606
 7569TIP3    H244199   5.546   0.487   2.590 -2.8681 -3.4014 -0.4717
 7570TIP3   OH244200   4.914   1.151  12.327 -0.2089 -0.8767 -0.3739
 7570TIP3    H144201   4.850   1.090  12.289 -2.1528  1.2471 -0.7188
 7570TIP3    H244202   4.895   1.150  12.421 -0.9064 -0.1213 -0.4960
 7571TIP3   OH244203   3.479   3.486   3.864  0.4166  0.4633  0.0101
 7571TIP3    H144204   3.518   3.422   3.924 -1.6988  0.1215  1.1401
 7571TIP3    H244205   3.428   3.433   3.802 -0.8574  0.9662  0.5840
 7572TIP3   OH244206   2.368   0.493   6.038 -0.6574  0.3686  1.3992
 7572TIP3    H144207   2.315   0.482   6.117 -2.1449 -0.3153  0.3634
 7572TIP3    H244208   2.307   0.529   5.973 -0.4165 -2.1392 -0.3710
 7573TIP3   OH244209   5.488   3.164   0.502  0.0998  0.1416 -0.3482
 7573TIP3    H144210   5.415   3.158   0.564 -0.6788 -1.2720 -1.3374
 7573TIP3    H244211   5.531   3.247   0.523 -2.2492  1.4080 -0.2217
 7574TIP3   OH244212   2.641   2.711   3.870  0.5847 -0.7058  0.1058
 7574TIP3    H144213   2.576   2.769   3.831  3.3555  2.5445 -0.2289
 7574TIP3    H244214   2.650   2.639   3.807 -0.2820  0.5654 -1.5733
 7575TIP3   OH244215   5.638   2.466  16.547 -0.4604  0.3849  0.4742
 7575TIP3    H144216   5.725   2.461  16.507 -0.6599 -1.1353  0.1744
 7575TIP3    H244217   5.600   2.546  16.511  1.1918  1.6670  1.4317
 7576TIP3   OH244218   1.136   5.452  14.010  0.6840  0.6279 -0.1853
 7576TIP3    H144219   1.208   5.406  14.054  1.3361  0.6966 -1.1554
 7576TIP3    H244220   1.073   5.469  14.080  1.7433  0.8498  0.7496
 7577TIP3   OH244221   6.641   3.819  13.120 -0.1804 -0.1367 -0.1913
 7577TIP3    H144222   6.653   3.873  13.198 -0.5350  0.1055 -0.3005
 7577TIP3    H244223   6.700   3.745  13.132  0.6484  0.4977 -0.2394
 7578TIP3   OH244224   2.852   1.212  14.848  0.3139 -0.0390 -0.2497
 7578TIP3    H144225   2.836   1.263  14.927  2.1014  0.0550  0.0942
 7578TIP3    H244226   2.768   1.213  14.801 -0.3081  1.3047  0.8254
 7579TIP3   OH244227   1.221   5.425  14.463 -0.3352 -0.5329 -0.4733
 7579TIP3    H144228   1.245   5.501  14.410 -0.3901 -0.3365 -0.2181
 7579TIP3    H244229   1.294   5.364  14.452  0.0851 -0.1150 -0.0366
 7580TIP3   OH244230   1.158   3.463   1.854 -0.4729 -0.3740 -0.1219
 7580TIP3    H144231   1.145   3.490   1.763 -1.3316  0.8229  0.3236
 7580TIP3    H244232   1.232   3.516   1.884 -0.5069 -0.4070  0.0203
 7581TIP3   OH244233   1.358   1.803   0.882  0.1001 -0.4902  0.9034
 7581TIP3    H144234   1.349   1.710   0.903 -1.6285 -0.0536  2.3717
 7581TIP3    H244235   1.384   1.843   0.965 -0.6023  0.5239  0.6427
 7582TIP3   OH244236   6.387   4.357  15.246 -0.3628 -0.1522 -0.2313
 7582TIP3    H144237   6.436   4.320  15.173 -1.7237  1.7750 -2.2636
 7582TIP3    H244238   6.352   4.281  15.293  0.6955 -1.4576 -1.4720
 7583TIP3   OH244239   6.647   4.855   1.288  0.4324 -0.2352 -0.6948
 7583TIP3    H144240   6.685   4.913   1.223 -0.3641 -0.1704 -1.1233
 7583TIP3    H244241   6.553   4.875   1.286  0.2587 -0.9451 -0.2543
 7584TIP3   OH244242   3.380   0.882   0.552  0.0972 -0.0707  0.3149
 7584TIP3    H144243   3.416   0.936   0.482  0.8651 -0.5399  0.3367
 7584TIP3    H244244   3.382   0.938   0.630  0.8357 -0.1063  0.3262
 7585TIP3   OH244245   0.571   4.962  16.459 -0.1582 -0.1778 -0.3017
 7585TIP3    H144246   0.631   5.029  16.427  2.9904 -2.5616  0.0703
 7585TIP3    H244247   0.560   4.981  16.552  0.3897  0.0450 -0.2819
 7586TIP3   OH244248   1.868   5.413  14.885  0.3240  0.2440  0.8020
 7586TIP3    H144249   1.838   5.360  14.959  1.4342  0.1778  1.2184
 7586TIP3    H244250   1.936   5.361  14.843  1.6982  1.4625  1.4378
 7587TIP3   OH244251   0.452   5.196  13.942  0.3701 -0.1748 -0.6531
 7587TIP3    H144252   0.488   5.163  14.024  1.0815 -0.4203 -1.0628
 7587TIP3    H244253   0.525   5.239  13.899 -0.5016  1.9267 -0.1706
 7588TIP3   OH244254   4.523   5.251  16.913 -0.3492  0.6384  0.2625
 7588TIP3    H144255   4.548   5.332  16.870  1.3290 -0.0413 -0.1164
 7588TIP3    H244256   4.429   5.260  16.928 -0.1599  2.7592  0.5007
 7589TIP3   OH244257   3.169   6.587  11.161  0.1942  0.5310  0.0683
 7589TIP3    H144258   3.181   6.648  11.088  2.9874  0.0395  0.0353
 7589TIP3    H244259   3.126   6.640  11.229 -1.0200  1.4191 -1.3426
 7590TIP3   OH244260   1.863   2.754   0.463 -0.2200  0.3584 -0.5810
 7590TIP3    H144261   1.824   2.820   0.520  0.6521 -0.4159  0.9881
 7590TIP3    H244262   1.793   2.730   0.402 -0.8779  1.9215 -0.4792
 7591TIP3   OH244263   1.743   0.106  14.443 -0.1701  0.1623  0.0127
 7591TIP3    H144264   1.701   0.182  14.403 -0.3634  0.8913  1.5555
 7591TIP3    H244265   1.671   0.046  14.462 -0.4130  0.8807  1.5050
 7592TIP3   OH244266   5.764   5.254  13.052 -0.5992 -0.1210 -0.0704
 7592TIP3    H144267   5.764   5.158  13.044  1.5474 -0.0560 -1.6295
 7592TIP3    H244268   5.702   5.283  12.986  0.0505 -0.3946 -0.8121
 7593TIP3   OH244269   4.080   6.557  15.674  0.0099  0.2425  0.6374
 7593TIP3    H144270   4.023   6.628  15.644  0.8173 -0.2409 -2.3609
 7593TIP3    H244271   4.054   6.482  15.622  0.4731 -1.1956  2.3882
 7594TIP3   OH244272   5.918   4.279  13.868 -0.2287  0.7945  0.7153
 7594TIP3    H144273   5.885   4.364  13.895 -0.8988  0.2087  1.8241
 7594TIP3    H244274   5.957   4.241  13.947 -0.2004 -0.0524  0.3154
 7595TIP3   OH244275   3.877   2.197   4.838  0.0642 -0.1360  0.0181
 7595TIP3    H144276   3.928   2.246   4.902  1.2547 -0.2301 -0.8267
 7595TIP3    H244277   3.899   2.106   4.853 -0.1415 -0.2082 -0.1085
 7596TIP3   OH244278   4.001   3.967  10.848  0.0343  0.4604  0.4876
 7596TIP3    H144279   3.907   3.969  10.831  0.0831 -2.1136 -0.5896
 7596TIP3    H244280   4.008   3.939  10.940 -0.2551  0.1426  0.4141
 7597TIP3   OH244281   6.708   1.010   4.652  0.0352 -0.3938  0.8731
 7597TIP3    H144282   6.779   1.043   4.597 -0.4598 -1.2354 -0.3137
 7597TIP3    H244283   6.698   1.076   4.720  0.0165  1.1921 -0.5888
 7598TIP3   OH244284   2.997   1.326  15.266 -0.0089 -0.2897 -0.7312
 7598TIP3    H144285   3.092   1.318  15.272 -0.0613 -1.4006 -1.0686
 7598TIP3    H244286   2.971   1.256  15.206 -0.8357  1.4761 -2.5372
 7599TIP3   OH244287   1.697   2.605   6.404  0.2646  0.2143  0.0608
 7599TIP3    H144288   1.785   2.629   6.377  1.1232 -1.4177  1.2224
 7599TIP3    H244289   1.694   2.510   6.391 -1.0914  0.1581  0.6920
 7600TIP3   OH244290   1.653   0.187   1.700 -0.0331 -0.3334 -0.7570
 7600TIP3    H144291   1.670   0.094   1.718 -0.7160 -0.0104  1.9138
 7600TIP3    H244292   1.585   0.212   1.762  2.1736  2.6888  0.7217
 7601TIP3   OH244293   6.121   3.930   2.555  0.2756  0.0188  0.2009
 7601TIP3    H144294   6.107   3.892   2.641 -0.3474  0.7882  0.4545
 7601TIP3    H244295   6.203   3.892   2.524 -0.7425 -2.1644  0.0639
 7602TIP3   OH244296   6.203   4.104  16.482 -0.3513 -0.6738 -0.2227
 7602TIP3    H144297   6.275   4.120  16.544 -1.0473  0.8139  0.2711
 7602TIP3    H244298   6.228   4.025  16.435  0.9822 -0.9234  0.8417
 7603TIP3   OH244299   0.648   2.994   4.856  0.1328  0.6389 -0.1521
 7603TIP3    H144300   0.593   2.918   4.878 -1.4782  0.8788 -2.8861
 7603TIP3    H244301   0.719   2.958   4.803  0.2259  0.8454 -0.1686
 7604TIP3   OH244302   2.305   2.777   2.838 -0.5312  0.1568 -0.3631
 7604TIP3    H144303   2.248   2.757   2.764 -1.2292  1.9362 -0.3649
 7604TIP3    H244304   2.352   2.856   2.811 -0.3123  0.4571  0.8371
 7605TIP3   OH244305   0.192   2.630  12.070 -0.0515 -0.2435  1.0849
 7605TIP3    H144306   0.180   2.545  12.027 -0.5117  0.0777  0.5479
 7605TIP3    H244307   0.285   2.649  12.061 -0.4161  0.7964 -1.7707
 7606TIP3   OH244308   1.901   5.916  15.519  0.3294  0.6442  0.2961
 7606TIP3    H144309   1.926   5.840  15.572  0.5762  1.3922  1.2763
 7606TIP3    H244310   1.807   5.924  15.533 -0.1393 -0.7681 -1.5559
 7607TIP3   OH244311   1.298   2.019  12.336  0.2059 -0.1257  0.3350
 7607TIP3    H144312   1.281   1.956  12.407  0.4765  0.0869  0.5945
 7607TIP3    H244313   1.390   2.042  12.347 -0.0273  0.7477  0.5974
 7608TIP3   OH244314   2.316   4.989   0.420 -0.9960 -0.5059  0.6708
 7608TIP3    H144315   2.236   4.941   0.444 -2.4093 -0.0367 -2.5603
 7608TIP3    H244316   2.285   5.073   0.388  0.7299 -0.4224 -0.9631
 7609TIP3   OH244317   5.473   2.605   4.161  0.2288  0.5556  0.0936
 7609TIP3    H144318   5.532   2.560   4.101 -0.3609  0.1076 -0.1571
 7609TIP3    H244319   5.386   2.570   4.141  0.0624  0.1330  1.4438
 7610TIP3   OH244320   2.075   0.972   2.606  0.1605  0.1143  0.2814
 7610TIP3    H144321   2.165   1.004   2.595 -0.5436  1.8728 -1.0495
 7610TIP3    H244322   2.025   1.050   2.629 -1.2754 -0.4806 -0.6502
 7611TIP3   OH244323   4.087   5.868  12.361  0.3108  0.1919 -0.2498
 7611TIP3    H144324   4.042   5.838  12.439  0.8571  0.0353  0.0062
 7611TIP3    H244325   4.179   5.848  12.376  0.1759 -2.1588 -1.9790
 7612TIP3   OH244326   0.808   3.173  10.777 -0.4092 -0.0003  0.2229
 7612TIP3    H144327   0.817   3.217  10.862  3.7306  0.1750 -0.1127
 7612TIP3    H244328   0.771   3.239  10.719  0.5050  1.2330  1.0006
 7613TIP3   OH244329   3.282   3.457   5.197  0.1463  0.6172  0.4050
 7613TIP3    H144330   3.319   3.413   5.120 -1.3784  0.8858 -0.5178
 7613TIP3    H244331   3.334   3.536   5.207 -0.0196  0.8885 -0.7472
 7614TIP3   OH244332   6.498   0.831   3.627  0.2626 -0.2001 -0.7831
 7614TIP3    H144333   6.425   0.770   3.628  0.2730 -0.2736 -2.4202
 7614TIP3    H244334   6.567   0.786   3.578  1.3274 -0.0192  0.4952
 7615TIP3   OH244335   2.160   3.725  10.915  0.0099 -0.8835  0.3741
 7615TIP3    H144336   2.150   3.784  10.990  0.3064  1.0855 -1.0632
 7615TIP3    H244337   2.169   3.783  10.839 -1.3527 -2.7820 -1.3602
 7616TIP3   OH244338   6.127   3.958   5.305  0.2314  0.3829  0.1431
 7616TIP3    H144339   6.220   3.943   5.318  0.1684  0.6536  0.9658
 7616TIP3    H244340   6.119   3.988   5.214  1.0950  1.5372  0.4314
 7617TIP3   OH244341   2.225   4.791   5.254  0.2541 -0.4718 -0.4131
 7617TIP3    H144342   2.320   4.778   5.251  0.4913  0.9511  0.2547
 7617TIP3    H244343   2.192   4.735   5.184  1.4799 -1.7524 -0.0220
 7618TIP3   OH244344   4.039   0.609   3.811 -0.5463  0.5940 -0.4104
 7618TIP3    H144345   4.071   0.533   3.763 -0.3008 -0.5809  1.5245
 7618TIP3    H244346   3.957   0.633   3.767 -1.3294 -1.6179 -0.2673
 7619TIP3   OH244347   6.705   1.238   4.289 -0.1720  0.0064  0.4163
 7619TIP3    H144348   6.649   1.306   4.327 -0.7970  0.5149 -1.3568
 7619TIP3    H244349   6.646   1.185   4.235  0.5766 -1.1059  0.6525
 7620TIP3   OH244350   5.432   3.622   4.020  0.1706 -0.7306 -0.3448
 7620TIP3    H144351   5.458   3.530   4.011 -1.6696 -1.3928  0.7135
 7620TIP3    H244352   5.439   3.639   4.114 -0.6676 -0.1531 -0.3834
 7621TIP3   OH244353   1.807   0.090  15.190 -0.8279  0.0782 -0.1259
 7621TIP3    H144354   1.801   0.178  15.153  1.0491  0.2360 -0.1261
 7621TIP3    H244355   1.868   0.044  15.133  0.5871 -0.2787  1.6059
 7622TIP3   OH244356   1.375   6.595   1.868  0.2248  0.4709  0.4664
 7622TIP3    H144357   1.436   6.521   1.877 -0.0095  0.2715  0.4263
 7622TIP3    H244358   1.368   6.608   1.774  0.2225  0.5077  0.4719
 7623TIP3   OH244359   3.468   2.464   4.344  0.0795  0.0648 -0.1525
 7623TIP3    H144360   3.485   2.430   4.432  0.7806 -1.9734 -1.0014
 7623TIP3    H244361   3.375   2.446   4.329  0.2426 -0.7240 -0.2651
 7624TIP3   OH244362   5.803   2.382   1.500 -0.3119  0.0483  0.5761
 7624TIP3    H144363   5.822   2.354   1.590 -0.0516 -0.8019  0.2661
 7624TIP3    H244364   5.889   2.397   1.461 -0.3677 -0.8348  0.0873
 7625TIP3   OH244365   2.497   0.479   5.193 -0.1926  0.3134  0.2614
 7625TIP3    H144366   2.507   0.573   5.209 -0.5318 -0.0771  3.2997
 7625TIP3    H244367   2.567   0.457   5.131  0.6456  2.3539  0.4219
 7626TIP3   OH244368   0.767   4.616   2.703  0.2337  0.8127 -0.1307
 7626TIP3    H144369   0.695   4.560   2.732  0.6040  0.4764  0.1517
 7626TIP3    H244370   0.724   4.694   2.669 -0.2515  0.9063  0.6572
 7627TIP3   OH244371   4.937   0.120   3.699 -0.0654 -0.2271 -0.4391
 7627TIP3    H144372   5.012   0.113   3.758  1.9963  0.1176 -2.8788
 7627TIP3    H244373   4.955   0.197   3.646  0.3146 -2.6501 -4.2011
 7628TIP3   OH244374   2.203   6.197  14.281  0.2681  0.6058  0.0486
 7628TIP3    H144375   2.112   6.210  14.254  0.6343  1.4192 -0.8331
 7628TIP3    H244376   2.219   6.104  14.266 -0.7356  0.1914  1.2726
 7629TIP3   OH244377   0.770   3.700   0.142 -0.0885  0.1280  0.4943
 7629TIP3    H144378   0.753   3.782   0.095 -0.9056 -0.8488 -0.9543
 7629TIP3    H244379   0.687   3.679   0.184 -0.1434 -0.4624  0.0844
 7630TIP3   OH244380   4.751   1.464  15.183 -0.0138 -0.3239  0.1426
 7630TIP3    H144381   4.746   1.417  15.267  0.4067 -0.5602  0.0392
 7630TIP3    H244382   4.674   1.434  15.135 -0.5098  0.1643  0.6228
 7631TIP3   OH244383   2.044   2.157   5.477  0.0092 -0.9421  0.4919
 7631TIP3    H144384   2.064   2.212   5.552  1.7247 -1.3764  0.3826
 7631TIP3    H244385   1.981   2.208   5.426  1.2026  0.7260  0.6259
 7632TIP3   OH244386   0.787   1.532   1.169 -0.3052 -0.0272  0.6221
 7632TIP3    H144387   0.865   1.551   1.221  0.6961 -0.2252 -0.7464
 7632TIP3    H244388   0.790   1.595   1.097 -0.8194 -0.7498 -0.0525
 7633TIP3   OH244389   4.706   2.796  11.381  0.1421  0.2168 -0.0001
 7633TIP3    H144390   4.665   2.882  11.380  1.3766  0.8410 -0.9125
 7633TIP3    H244391   4.720   2.777  11.474 -1.2329  0.4448  0.2651
 7634TIP3   OH244392   4.089   0.504   2.110 -0.4070  0.0332 -0.6417
 7634TIP3    H144393   4.001   0.541   2.110 -0.1866  0.7080 -2.8268
 7634TIP3    H244394   4.076   0.410   2.114 -1.1083  0.1797  1.4151
 7635TIP3   OH244395   2.188   3.583   3.567  0.2276 -0.2499 -0.2031
 7635TIP3    H144396   2.169   3.665   3.613  0.9585  0.2609 -0.7824
 7635TIP3    H244397   2.277   3.595   3.533  0.1757 -1.1138 -0.6737
 7636TIP3   OH244398   0.330   3.141   0.252 -0.2074 -0.5113  0.1142
 7636TIP3    H144399   0.283   3.200   0.193  1.2903 -0.5345 -1.1576
 7636TIP3    H244400   0.327   3.056   0.209  1.0636 -0.4921 -0.0570
 7637TIP3   OH244401   4.300   3.308  13.046 -0.3883  0.0367  0.0165
 7637TIP3    H144402   4.363   3.236  13.059  0.3069  0.3394 -1.5491
 7637TIP3    H244403   4.215   3.264  13.039 -0.2280 -0.4639  1.0178
 7638TIP3   OH244404   5.199   0.473   4.901 -0.4205 -0.0301 -0.2359
 7638TIP3    H144405   5.106   0.466   4.924 -0.2870 -0.0371  0.3071
 7638TIP3    H244406   5.214   0.567   4.890 -0.4164 -0.0036 -0.0067
 7639TIP3   OH244407   0.578   4.057  14.053 -0.0351  0.0581  0.4071
 7639TIP3    H144408   0.551   4.005  13.978  1.0689 -0.2895  0.2292
 7639TIP3    H244409   0.673   4.044  14.058  0.2381  1.8916  0.4951
 7640TIP3   OH244410   2.772   4.050   0.270  0.0348 -0.3255 -0.4817
 7640TIP3    H144411   2.807   3.970   0.230  0.2359 -1.4180  1.7426
 7640TIP3    H244412   2.721   4.019   0.345 -0.5201  1.6017 -0.0103
 7641TIP3   OH244413   2.425   3.732  13.343 -0.3391 -0.5438 -0.2402
 7641TIP3    H144414   2.500   3.723  13.402  0.4637 -0.1539 -1.1904
 7641TIP3    H244415   2.440   3.668  13.274 -0.6122 -0.0947 -0.7233
 7642TIP3   OH244416   1.930   3.950  10.573 -0.3282  0.2016 -0.2499
 7642TIP3    H144417   1.845   3.963  10.615 -0.2750  0.6927 -0.2971
 7642TIP3    H244418   1.994   3.968  10.642 -0.2596 -0.5131 -0.1146
 7643TIP3   OH244419   6.519   0.872  11.324 -0.2436  0.0774  0.2107
 7643TIP3    H144420   6.441   0.911  11.284 -0.6172 -0.0548  0.8064
 7643TIP3    H244421   6.515   0.779  11.301 -0.4648 -0.0009  0.5615
 7644TIP3   OH244422   1.284   0.419  14.011 -0.0431  0.3389 -0.2953
 7644TIP3    H144423   1.207   0.366  13.992 -0.4322  0.7040  0.2133
 7644TIP3    H244424   1.275   0.496  13.955 -1.2245  1.4462  1.3313
 7645TIP3   OH244425   1.761   0.264   5.918  0.3532 -0.2536 -0.2067
 7645TIP3    H144426   1.733   0.265   6.009  0.6275  0.2554 -0.1231
 7645TIP3    H244427   1.754   0.355   5.889 -1.3047 -0.6583 -1.1904
 7646TIP3   OH244428   4.082   2.805  11.083  0.0665 -0.2090  0.2254
 7646TIP3    H144429   4.035   2.823  11.001 -1.8049  0.4787  1.3807
 7646TIP3    H244430   4.175   2.812  11.059 -0.4014 -0.7222 -1.9659
 7647TIP3   OH244431   2.304   5.239  13.207 -0.2680  0.1233 -0.4014
 7647TIP3    H144432   2.371   5.219  13.273  0.7761  2.4870 -0.6513
 7647TIP3    H244433   2.302   5.162  13.151 -0.7061 -1.7069  1.9352
 7648TIP3   OH244434   1.067   2.181  11.536  0.2345 -0.0921 -0.3518
 7648TIP3    H144435   0.991   2.210  11.485 -0.9029  0.0053  1.3465
 7648TIP3    H244436   1.041   2.096  11.571  0.1616  0.7363  1.7164
 7649TIP3   OH244437   5.431   4.970  12.804 -0.3229 -0.0562 -0.7720
 7649TIP3    H144438   5.429   5.004  12.893 -1.9016  0.5044 -0.9986
 7649TIP3    H244439   5.432   5.047  12.748 -4.6827 -0.1596 -1.3084
 7650TIP3   OH244440   2.371   0.727  14.036  0.2509 -0.1815  0.4717
 7650TIP3    H144441   2.388   0.758  13.947  1.8064 -0.2560  0.7095
 7650TIP3    H244442   2.373   0.806  14.089  1.7948 -0.3860  0.7526
 7651TIP3   OH244443   1.544   0.459  12.050 -0.0572  0.3699 -0.1383
 7651TIP3    H144444   1.599   0.533  12.075  0.7930 -0.6043  0.9715
 7651TIP3    H244445   1.603   0.401  12.002  0.3278 -1.3420  2.2311
 7652TIP3   OH244446   4.557   3.445   1.207 -0.4293  0.0667  0.0670
 7652TIP3    H144447   4.635   3.496   1.229 -0.1303  0.0230 -0.8561
 7652TIP3    H244448   4.554   3.377   1.274  1.1022 -0.7528 -0.6444
 7653TIP3   OH244449   2.102   3.474   1.786  0.1015 -0.0288 -0.3535
 7653TIP3    H144450   2.138   3.469   1.698 -0.6887 -1.3145 -0.6357
 7653TIP3    H244451   2.007   3.472   1.774 -0.0346 -1.6366  0.5390
 7654TIP3   OH244452   4.094   2.862  11.383 -0.2473 -0.2838  0.2480
 7654TIP3    H144453   4.187   2.867  11.404 -0.1630 -1.5693  0.2605
 7654TIP3    H244454   4.092   2.841  11.290 -0.5430  0.3200  0.1140
 7655TIP3   OH244455   2.325   1.370   1.243 -0.2481 -0.7228  0.0197
 7655TIP3    H144456   2.247   1.372   1.187 -0.7557  0.4083  0.7437
 7655TIP3    H244457   2.292   1.357   1.331  0.3488  0.1478  0.3845
 7656TIP3   OH244458   4.110   2.168  14.612  0.5460 -0.3618  0.0707
 7656TIP3    H144459   4.127   2.127  14.527 -0.9623  2.2229 -1.6266
 7656TIP3    H244460   4.185   2.225  14.627 -1.0030  2.3889 -1.7657
 7657TIP3   OH244461   6.225   3.661  16.085 -0.0946  0.0896  0.3304
 7657TIP3    H144462   6.264   3.613  16.157  0.0998  0.1512  0.2677
 7657TIP3    H244463   6.193   3.742  16.124 -0.2341  0.0018  0.3975
 7658TIP3   OH244464   1.221   5.590  11.717 -0.2942  0.3088  0.0974
 7658TIP3    H144465   1.162   5.598  11.643 -0.8195 -4.4049 -0.2774
 7658TIP3    H244466   1.164   5.593  11.794 -1.0465 -2.8430 -0.2061
 7659TIP3   OH244467   5.147   0.331  12.262 -0.0101 -0.2393 -0.5772
 7659TIP3    H144468   5.086   0.388  12.216  0.7911 -0.4309 -1.9179
 7659TIP3    H244469   5.232   0.347  12.221  0.9681  0.3002  1.5086
 7660TIP3   OH244470   2.378   2.315   3.867 -0.6308 -0.2268  0.7787
 7660TIP3    H144471   2.424   2.379   3.921  0.8353 -0.6226  0.0449
 7660TIP3    H244472   2.361   2.360   3.784  1.1545 -0.9957 -0.0522
 7661TIP3   OH244473   1.042   4.754  15.218  0.1451 -0.6473 -0.0361
 7661TIP3    H144474   1.028   4.846  15.241 -1.2970 -0.6282 -0.8785
 7661TIP3    H244475   1.029   4.751  15.123  0.3245 -1.7065 -0.0334
 7662TIP3   OH244476   2.191   0.315   0.265  0.0017  0.8472 -0.0692
 7662TIP3    H144477   2.192   0.249   0.195  0.4253  0.6372  0.1273
 7662TIP3    H244478   2.100   0.322   0.291 -0.0847  0.5448 -0.2852
 7663TIP3   OH244479   4.718   4.852  11.505  0.0747 -0.0195 -0.8924
 7663TIP3    H144480   4.690   4.898  11.584 -0.7391  0.1395 -1.2586
 7663TIP3    H244481   4.813   4.854  11.508  0.0652 -0.9187  0.6045
 7664TIP3   OH244482   5.679   0.098  14.983  0.0320 -0.1088 -0.1618
 7664TIP3    H144483   5.684   0.149  15.064  0.5952  0.1906 -0.3800
 7664TIP3    H244484   5.735   0.022  14.998  0.6714  0.2861 -0.5050
 7665TIP3   OH244485   1.134   1.519  13.637 -0.0231  0.0419  0.0016
 7665TIP3    H144486   1.080   1.475  13.703  1.8855 -1.1783  0.8475
 7665TIP3    H244487   1.175   1.448  13.588  1.0748  0.8898 -0.3582
 7666TIP3   OH244488   6.468   0.689  12.364  0.0811 -0.7030  0.4971
 7666TIP3    H144489   6.505   0.732  12.286 -1.3075 -1.7357 -0.8026
 7666TIP3    H244490   6.538   0.692  12.429  0.6127  2.0019 -0.0719
 7667TIP3   OH244491   4.080   4.631  15.346 -0.1259 -0.2661 -0.2020
 7667TIP3    H144492   4.164   4.586  15.350  0.9614  1.4147 -2.1770
 7667TIP3    H244493   4.029   4.581  15.283  0.1691 -0.1580 -0.5317
 7668TIP3   OH244494   6.241   5.720   2.618  0.0583  0.3909  0.1497
 7668TIP3    H144495   6.245   5.653   2.686  1.9555 -0.0243 -0.3198
 7668TIP3    H244496   6.287   5.682   2.544  1.8694  2.4662  0.1171
 7669TIP3   OH244497   3.239   6.486  15.512  0.0140 -0.4150 -0.1414
 7669TIP3    H144498   3.190   6.409  15.483  0.5686 -1.4637  1.5648
 7669TIP3    H244499   3.309   6.494  15.447  0.1246 -1.5461 -0.1886
 7670TIP3   OH244500   3.610   4.952   4.381  0.6162  0.1561  0.3154
 7670TIP3    H144501   3.703   4.941   4.362 -0.0229 -3.5536 -1.5206
 7670TIP3    H244502   3.570   4.974   4.297 -0.4755 -1.4317  0.3634
 7671TIP3   OH244503   6.113   2.056  11.520  0.4402  0.4675  0.2261
 7671TIP3    H144504   6.095   1.986  11.457 -1.8710  0.6221  0.6139
 7671TIP3    H244505   6.148   2.011  11.597 -0.7222 -0.2735  0.3533
 7672TIP3   OH244506   3.593   6.794   0.761  0.4573  0.0125  0.0371
 7672TIP3    H144507   3.597   6.704   0.730  0.0175 -0.2918  0.8474
 7672TIP3    H244508   3.508   6.826   0.729  0.2688 -0.1081  0.4218
 7673TIP3   OH244509   5.017   1.608   5.258  0.0152 -0.5736 -0.1307
 7673TIP3    H144510   4.973   1.621   5.342 -0.1976 -0.1271 -0.3093
 7673TIP3    H244511   4.970   1.534   5.218 -0.3986 -0.2746 -0.2030
 7674TIP3   OH244512   2.486   2.657   4.922  0.5863 -0.6498  0.1848
 7674TIP3    H144513   2.478   2.647   4.827  0.4862 -2.2498  0.3384
 7674TIP3    H244514   2.580   2.660   4.938  0.6022 -0.1563  0.0324
 7675TIP3   OH244515   4.586   3.013  17.127  0.3271  0.3711 -0.2268
 7675TIP3    H144516   4.543   3.023  17.042 -0.4826 -1.8123 -0.1433
 7675TIP3    H244517   4.660   2.955  17.110  0.1361 -0.1130  0.5445
 7676TIP3   OH244518   2.457   5.719  16.928 -0.0712  0.1518  0.3067
 7676TIP3    H144519   2.442   5.680  17.014  0.9650 -1.9454 -0.3993
 7676TIP3    H244520   2.385   5.685  16.874 -0.0904  0.5662  0.0683
 7677TIP3   OH244521   4.743   3.649   0.959  0.2589  0.3609 -0.5121
 7677TIP3    H144522   4.806   3.666   0.889  1.0276 -0.5421 -0.0785
 7677TIP3    H244523   4.704   3.564   0.937  1.4436 -0.5723  0.7507
 7678TIP3   OH244524   1.278   4.590  13.871  0.3639 -0.2094 -0.1931
 7678TIP3    H144525   1.185   4.600  13.852  0.4290  2.4031  0.4779
 7678TIP3    H244526   1.283   4.582  13.966  0.7975 -1.0222 -0.2770
 7679TIP3   OH244527   4.176   5.798   4.167 -0.1495 -0.2940  0.1295
 7679TIP3    H144528   4.116   5.744   4.219 -2.6398  1.6453 -0.5247
 7679TIP3    H244529   4.145   5.788   4.077  1.2834 -0.1281 -0.4082
 7680TIP3   OH244530   1.848   1.917   2.864 -0.3690 -0.1010 -0.6605
 7680TIP3    H144531   1.862   1.848   2.798 -0.4886  1.1209 -2.0146
 7680TIP3    H244532   1.928   1.970   2.860 -1.1287  1.0274 -1.1319
 7681TIP3   OH244533   3.201   3.355   4.942 -0.0855 -0.6821 -0.0113
 7681TIP3    H144534   3.270   3.351   4.876 -0.9679 -1.3968 -0.8957
 7681TIP3    H244535   3.141   3.422   4.910  0.8870  1.0111  1.4798
 7682TIP3   OH244536   0.384   0.237   5.176  0.4186  0.3262  0.3337
 7682TIP3    H144537   0.407   0.224   5.268  0.8326 -0.6600  0.1085
 7682TIP3    H244538   0.464   0.273   5.137  1.4566 -2.3689 -0.2869
 7683TIP3   OH244539   1.415   5.561   5.487  0.3752  0.0558  0.4819
 7683TIP3    H144540   1.423   5.608   5.404  3.8533 -2.6721 -0.9609
 7683TIP3    H244541   1.338   5.505   5.476  1.3295 -0.9623 -1.3847
 7684TIP3   OH244542   6.649   3.939  11.082 -0.2047  0.3963  0.0738
 7684TIP3    H144543   6.711   3.936  11.010 -0.0643  0.0154  0.2090
 7684TIP3    H244544   6.595   4.016  11.064  0.6544  1.0585  0.2417
 7685TIP3   OH244545   6.490   3.489  14.190 -0.4798 -0.0929  0.0951
 7685TIP3    H144546   6.569   3.453  14.229 -1.5868 -2.0205  0.7039
 7685TIP3    H244547   6.425   3.419  14.199 -2.1138  1.2333 -0.8348
 7686TIP3   OH244548   3.690   5.037   3.507 -0.2429 -0.3445 -0.6501
 7686TIP3    H144549   3.705   4.958   3.455  0.0272  0.2447 -1.5042
 7686TIP3    H244550   3.596   5.036   3.526 -0.2219 -0.9224 -0.5648
 7687TIP3   OH244551   1.401   3.779  15.776  0.6235  0.1821 -0.0964
 7687TIP3    H144552   1.427   3.690  15.799  0.3366  0.5555  1.8168
 7687TIP3    H244553   1.308   3.771  15.755  0.1822  0.2651  1.6942
 7688TIP3   OH244554   2.427   3.915   1.728 -0.7721  0.1671  0.7437
 7688TIP3    H144555   2.516   3.947   1.746 -0.9413  0.5593  0.8921
 7688TIP3    H244556   2.431   3.821   1.747 -0.3519  0.1542  0.6118
 7689TIP3   OH244557   3.810   2.301  12.573  0.0417 -0.2126  0.4542
 7689TIP3    H144558   3.789   2.346  12.491  1.7461  0.5730  0.4001
 7689TIP3    H244559   3.900   2.326  12.591  0.2349 -1.6937  1.7266
 7690TIP3   OH244560   3.039   2.626   2.168 -0.2630  0.3161 -0.2422
 7690TIP3    H144561   3.019   2.554   2.228 -2.0855  0.9412 -0.0449
 7690TIP3    H244562   3.082   2.585   2.094  0.1766 -0.7457  0.5811
 7691TIP3   OH244563   5.289   2.625  16.067  0.6095  0.3094  0.4618
 7691TIP3    H144564   5.256   2.673  15.992 -1.7116 -0.8193  0.6934
 7691TIP3    H244565   5.374   2.592  16.038 -0.5906 -0.8541 -2.0447
 7692TIP3   OH244566   1.028   0.138  14.418 -0.1113  0.2661  0.2081
 7692TIP3    H144567   1.108   0.154  14.469  0.7660  1.8102 -1.5417
 7692TIP3    H244568   1.053   0.072  14.355 -0.3824  0.3482  0.0130
 7693TIP3   OH244569   3.935   3.645  14.026  0.2468  0.2279  0.0015
 7693TIP3    H144570   3.957   3.698  13.950  1.3557 -1.3729 -0.8602
 7693TIP3    H244571   4.016   3.644  14.078 -0.5682  1.5032  1.3545
 7694TIP3   OH244572   2.466   1.165   1.101  0.5727 -0.2331  0.2184
 7694TIP3    H144573   2.387   1.126   1.064  1.3301  0.5690 -2.4416
 7694TIP3    H244574   2.435   1.239   1.153 -0.4646 -0.5922  0.1279
 7695TIP3   OH244575   1.563   6.060  12.019  0.8650  0.5432 -0.0200
 7695TIP3    H144576   1.509   6.020  11.952 -0.4534  1.7194  0.2984
 7695TIP3    H244577   1.610   5.987  12.059 -1.0668 -0.6378  0.2022
 7696TIP3   OH244578   4.829   2.035  15.892 -0.0158 -0.2801  0.3114
 7696TIP3    H144579   4.867   2.044  15.979 -2.1179 -1.6479  1.4606
 7696TIP3    H244580   4.850   1.945  15.866 -0.5533 -0.3164 -0.0056
 7697TIP3   OH244581   2.049   4.308  13.586  0.3322  0.1829 -0.7152
 7697TIP3    H144582   2.135   4.267  13.583 -0.5521 -1.9018  0.1330
 7697TIP3    H244583   1.988   4.235  13.576 -1.3391  1.5663 -0.9937
 7698TIP3   OH244584   2.160   0.377   2.563 -0.1313 -0.8661 -0.0218
 7698TIP3    H144585   2.231   0.313   2.560 -1.6314 -2.6002 -0.6325
 7698TIP3    H244586   2.110   0.354   2.642  0.5758  1.0440  1.0304
 7699TIP3   OH244587   5.708   5.658  12.837  0.2284 -0.0541  0.2617
 7699TIP3    H144588   5.646   5.619  12.775 -1.3837  1.3993  0.8741
 7699TIP3    H244589   5.739   5.737  12.792 -1.9195  1.7173  1.6759
 7700TIP3   OH244590   4.330   5.380   2.246  0.2153 -0.0085 -0.4585
 7700TIP3    H144591   4.299   5.390   2.337  0.3141  1.4220 -0.5601
 7700TIP3    H244592   4.416   5.339   2.254 -0.6232 -1.7869 -0.0375
 7701TIP3   OH244593   0.318   5.355  14.987  0.3171  0.4894  0.5607
 7701TIP3    H144594   0.279   5.269  15.002 -0.9859  1.1172  0.9831
 7701TIP3    H244595   0.264   5.415  15.039 -2.0336  2.3136 -3.4903
 7702TIP3   OH244596   0.011   6.237   0.075 -0.3853  0.0674 -0.5129
 7702TIP3    H144597   0.096   6.238   0.032  0.8063 -1.3609  1.5926
 7702TIP3    H244598   0.006   6.321   0.121  0.5029 -0.3415  0.3716
 7703TIP3   OH244599   6.380   4.234   3.517 -0.1883  0.2567 -0.2068
 7703TIP3    H144600   6.472   4.235   3.491 -0.5504 -1.0638 -1.6692
 7703TIP3    H244601   6.366   4.320   3.557  1.7014  0.4300  0.2083
 7704TIP3   OH244602   1.454   1.107   1.180 -0.3751 -0.7938  0.3627
 7704TIP3    H144603   1.382   1.044   1.172 -0.2151 -0.9340  0.0042
 7704TIP3    H244604   1.531   1.053   1.197 -0.2450 -0.6958  0.0957
 7705TIP3   OH244605   5.651   3.246   3.965 -0.7029  0.1044 -0.0077
 7705TIP3    H144606   5.677   3.225   3.875  0.8114  2.0505 -0.1072
 7705TIP3    H244607   5.718   3.204   4.019  1.2564  2.7790 -0.1224
 7706TIP3   OH244608   6.758   0.171   0.651  0.4796 -0.0560 -0.2495
 7706TIP3    H144609   6.848   0.202   0.641  0.1144  0.8116 -1.0388
 7706TIP3    H244610   6.738   0.186   0.744 -0.1773  3.7028 -0.8282
 7707TIP3   OH244611   0.143   4.232   5.300  0.0502  0.4149 -0.6937
 7707TIP3    H144612   0.101   4.163   5.249 -1.5447  2.1485 -1.8762
 7707TIP3    H244613   0.170   4.297   5.234 -0.1758  1.7614  0.4983
 7708TIP3   OH244614   2.796   6.749  12.076  0.0818 -0.3087  0.3577
 7708TIP3    H144615   2.742   6.696  12.018  1.1233 -0.0495 -0.8942
 7708TIP3    H244616   2.885   6.716  12.063  0.1057 -1.7577  3.5080
 7709TIP3   OH244617   3.789   4.960   4.783 -0.1521 -0.2999 -0.2434
 7709TIP3    H144618   3.803   5.033   4.843  1.9084 -1.4138  0.7265
 7709TIP3    H244619   3.819   4.993   4.698  0.9903 -0.0580  0.2341
 7710TIP3   OH244620   0.317   5.207  15.983 -0.0374  0.5652  0.2294
 7710TIP3    H144621   0.383   5.143  16.010  1.4880  1.1740 -1.7404
 7710TIP3    H244622   0.234   5.172  16.015  1.0916 -0.8740  1.7366
 7711TIP3   OH244623   4.604   4.160   0.296  0.5064  0.4027  0.1643
 7711TIP3    H144624   4.607   4.075   0.252 -0.6621  0.8769 -0.8958
 7711TIP3    H244625   4.696   4.184   0.307  0.8567 -0.0537 -1.4284
 7712TIP3   OH244626   3.033   0.924  15.366 -0.0227 -0.0758 -0.3104
 7712TIP3    H144627   3.064   0.975  15.442  1.9156 -1.9693  0.2610
 7712TIP3    H244628   3.102   0.935  15.300 -0.9724  0.3321 -1.2517
 7713TIP3   OH244629   0.826   3.083   0.500  0.8964  0.1783 -0.2596
 7713TIP3    H144630   0.822   3.014   0.434  0.7861 -0.6093  0.5496
 7713TIP3    H244631   0.741   3.080   0.543 -0.4872  3.1091 -2.4158
 7714TIP3   OH244632   0.095   4.969   5.086 -0.1267 -0.1798  0.8537
 7714TIP3    H144633   0.077   5.034   5.154 -0.8660  1.1865 -0.5659
 7714TIP3    H244634   0.190   4.961   5.085  0.3537  3.3285 -0.9492
 7715TIP3   OH244635   0.352   4.248   5.824 -0.3553 -0.3216  0.3369
 7715TIP3    H144636   0.327   4.158   5.802 -0.1323 -0.0512 -1.0993
 7715TIP3    H244637   0.356   4.249   5.920  1.0192 -2.2249  0.3559
 7716TIP3   OH244638   4.568   4.463   4.930 -0.0939  0.5540 -0.0722
 7716TIP3    H144639   4.606   4.550   4.920  0.2954  0.4514  0.4878
 7716TIP3    H244640   4.512   4.469   5.007 -1.8262  0.9010 -1.2928
 7717TIP3   OH244641   0.969   5.789  10.617  0.1949  0.0061 -0.4420
 7717TIP3    H144642   1.037   5.815  10.679 -0.3376 -0.3784  0.3222
 7717TIP3    H244643   0.904   5.744  10.671 -0.9195  0.8186 -1.0647
 7718TIP3   OH244644   2.652   0.832   6.624 -0.4095 -0.0907 -0.1994
 7718TIP3    H144645   2.713   0.811   6.554 -0.3484  1.0129 -0.4956
 7718TIP3    H244646   2.686   0.786   6.701 -0.0136 -0.6304 -0.6887
 7719TIP3   OH244647   3.356   2.424   5.106 -0.5116 -0.2978 -0.3767
 7719TIP3    H144648   3.273   2.385   5.080 -1.6134  1.6197  0.0446
 7719TIP3    H244649   3.337   2.467   5.189  0.4169  1.6229 -1.1065
 7720TIP3   OH244650   6.067   5.027   3.293 -0.4711 -0.5624 -0.1977
 7720TIP3    H144651   6.126   4.958   3.321  0.4533 -0.2583 -1.3193
 7720TIP3    H244652   6.121   5.107   3.296 -1.1490 -0.0969 -0.1722
 7721TIP3   OH244653   4.628   5.655   0.317  0.1759 -0.3423 -0.4126
 7721TIP3    H144654   4.700   5.714   0.338  1.4064 -1.4580 -1.3660
 7721TIP3    H244655   4.591   5.632   0.403  1.1220  0.0458  0.1195
 7722TIP3   OH244656   5.364   1.513   5.242  0.9292  0.5044  0.1331
 7722TIP3    H144657   5.289   1.546   5.191 -0.4765 -2.6753 -0.0893
 7722TIP3    H244658   5.363   1.566   5.322 -0.9902  1.1771 -0.2716
 7723TIP3   OH244659   6.772   0.401   1.947 -0.2026 -0.3329  0.5807
 7723TIP3    H144660   6.716   0.430   2.019 -1.3803 -0.8208 -0.1016
 7723TIP3    H244661   6.789   0.309   1.966 -1.8751 -0.9390 -0.5293
 7724TIP3   OH244662   2.025   1.351   5.096 -0.1372 -0.0151  0.2345
 7724TIP3    H144663   1.934   1.325   5.109 -0.4469  0.8660 -0.0780
 7724TIP3    H244664   2.037   1.427   5.154  0.4332 -0.1874  0.3545
 7725TIP3   OH244665   5.029   6.471   5.046  0.1040 -0.0482 -0.0406
 7725TIP3    H144666   5.073   6.555   5.040  1.9350 -0.8323  1.4452
 7725TIP3    H244667   5.089   6.409   5.005 -0.9528 -0.7517 -0.5884
 7726TIP3   OH244668   2.645   4.703   4.000  0.3792 -0.0926 -0.0317
 7726TIP3    H144669   2.666   4.647   3.925  2.4689  1.4798 -0.7059
 7726TIP3    H244670   2.566   4.750   3.973 -0.1453 -1.0886 -0.3247
 7727TIP3   OH244671   1.139   1.033  17.116  0.8522  0.8562  0.1913
 7727TIP3    H144672   1.213   0.972  17.114  0.7631  0.7639 -0.8091
 7727TIP3    H244673   1.111   1.034  17.207 -0.6438 -2.4502 -0.1024
 7728TIP3   OH244674   5.537   3.333   5.581 -0.0555  0.7103  1.1225
 7728TIP3    H144675   5.615   3.383   5.606  0.9786 -0.8247  1.0796
 7728TIP3    H244676   5.485   3.326   5.661  0.2602  1.0137  1.3554
 7729TIP3   OH244677   4.205   0.270  16.082 -0.1347  0.2157 -0.1360
 7729TIP3    H144678   4.226   0.343  16.141  0.7440  0.3008 -0.5243
 7729TIP3    H244679   4.147   0.214  16.133 -0.9510  1.2556  0.1204
 7730TIP3   OH244680   1.488   2.447   0.760 -0.4280 -0.6116  0.1883
 7730TIP3    H144681   1.500   2.398   0.679 -0.0482 -0.0565 -0.1014
 7730TIP3    H244682   1.453   2.532   0.733 -1.0120 -0.6877  0.6748
 7731TIP3   OH244683   6.074   3.070   2.425  0.0782 -0.2476 -0.0096
 7731TIP3    H144684   6.162   3.106   2.426  0.3966 -0.9123  2.2852
 7731TIP3    H244685   6.083   2.985   2.381  0.6764 -0.5021  0.5959
 7732TIP3   OH244686   3.290   1.186  13.663  0.0011 -0.1952  0.1321
 7732TIP3    H144687   3.227   1.179  13.592 -1.0186  0.4886  0.9481
 7732TIP3    H244688   3.342   1.264  13.642 -1.8890  1.4938  1.3004
 7733TIP3   OH244689   5.683   2.516   2.775 -0.3333 -0.5326  0.9392
 7733TIP3    H144690   5.624   2.444   2.753 -1.1125  0.7088 -1.3829
 7733TIP3    H244691   5.626   2.586   2.807  0.0389  0.1255  0.2038
 7734TIP3   OH244692   3.659   5.488  12.488 -0.0710 -0.4417 -0.4224
 7734TIP3    H144693   3.595   5.426  12.524 -0.7603  0.5342  0.0694
 7734TIP3    H244694   3.744   5.452  12.512 -0.3599 -2.2557 -1.8510
 7735TIP3   OH244695   5.881   3.018   3.091 -0.1575 -0.3129  0.0515
 7735TIP3    H144696   5.896   2.935   3.046  1.2346  0.2611 -0.5864
 7735TIP3    H244697   5.954   3.074   3.065 -1.2423  1.2485  0.1753
 7736TIP3   OH244698   4.355   6.411  11.652 -0.2851 -0.1805 -0.2505
 7736TIP3    H144699   4.309   6.358  11.587 -0.2665 -0.1507 -0.2878
 7736TIP3    H244700   4.388   6.347  11.716 -0.7430 -0.1629  0.0039
 7737TIP3   OH244701   5.625   6.735   2.875 -0.1824  0.7053 -0.1636
 7737TIP3    H144702   5.561   6.782   2.929  0.4602  1.9464 -0.4394
 7737TIP3    H244703   5.631   6.648   2.915  1.2328  1.9440  2.6570
 7738TIP3   OH244704   5.811   5.365   1.369 -0.1658  0.2608 -0.2198
 7738TIP3    H144705   5.898   5.386   1.335  0.3485 -1.5203 -0.0820
 7738TIP3    H244706   5.761   5.446   1.356  1.2865  1.0946 -0.9675
 7739TIP3   OH244707   0.514   3.096   3.540  0.0577  0.2008  0.4696
 7739TIP3    H144708   0.548   3.009   3.521  0.1309  0.3563 -0.1419
 7739TIP3    H244709   0.510   3.139   3.454 -1.3065  0.3273  0.5732
 7740TIP3   OH244710   2.272   6.217  13.726  0.2890 -0.3671 -0.1129
 7740TIP3    H144711   2.254   6.126  13.751 -0.6037 -0.1832 -0.0335
 7740TIP3    H244712   2.245   6.268  13.802  0.2613  0.0025 -0.3684
 7741TIP3   OH244713   4.505   1.855   5.020  0.3798 -0.4302 -0.1194
 7741TIP3    H144714   4.453   1.775   5.012 -0.3509  0.1335 -1.1861
 7741TIP3    H244715   4.509   1.890   4.931  3.3177 -0.8734 -0.2699
 7742TIP3   OH244716   3.978   3.720  12.576 -0.2557  0.2820 -0.1475
 7742TIP3    H144717   3.883   3.734  12.571 -0.2709 -0.1052 -1.5636
 7742TIP3    H244718   3.987   3.639  12.626 -0.5569  1.1858  1.4374
 7743TIP3   OH244719   3.620   0.361   2.265 -0.1167 -0.2395  0.2329
 7743TIP3    H144720   3.581   0.306   2.196  2.2127 -1.4031 -0.2283
 7743TIP3    H244721   3.608   0.311   2.345 -0.2190 -0.2555  0.2082
 7744TIP3   OH244722   3.085   6.691  14.969 -0.0154  0.5576  0.0167
 7744TIP3    H144723   3.045   6.606  14.988  1.7771  0.1566  2.5519
 7744TIP3    H244724   3.019   6.755  14.994  0.1548 -0.0922  2.3951
 7745TIP3   OH244725   4.730   4.521  16.736  0.0099  0.1503 -0.5197
 7745TIP3    H144726   4.781   4.441  16.729 -0.4321 -0.3546  1.5566
 7745TIP3    H244727   4.653   4.497  16.788 -1.0615  1.5160 -1.3716
 7746TIP3   OH244728   6.165   4.865   1.965  0.0013  0.6731 -0.3579
 7746TIP3    H144729   6.246   4.887   1.918 -0.5116  0.6439 -1.2890
 7746TIP3    H244730   6.118   4.948   1.972 -0.4130  0.4927 -0.8810
 7747TIP3   OH244731   2.039   3.614   5.487 -0.1594 -0.0015  0.2831
 7747TIP3    H144732   2.034   3.666   5.407 -0.9305  0.7507  0.8079
 7747TIP3    H244733   1.948   3.597   5.511  0.0631 -1.7116  0.0663
 7748TIP3   OH244734   2.150   0.717  15.184 -0.4035  0.1717  0.1206
 7748TIP3    H144735   2.178   0.787  15.242  1.9989 -0.2854 -0.3794
 7748TIP3    H244736   2.129   0.762  15.101  0.4813  0.4035  0.0070
 7749TIP3   OH244737   1.768   4.335  16.278  0.4852 -0.3434  0.1387
 7749TIP3    H144738   1.704   4.398  16.247 -0.0923 -0.8721  0.2196
 7749TIP3    H244739   1.853   4.370  16.250 -0.0078 -0.9483 -2.3412
 7750TIP3   OH244740   5.089   1.647   0.156  0.5309 -0.1507  0.1846
 7750TIP3    H144741   4.998   1.670   0.137  1.1309  1.2330 -1.1960
 7750TIP3    H244742   5.096   1.555   0.131 -0.6490 -0.4765  0.9764
 7751TIP3   OH244743   5.585   3.270  11.167 -0.0578 -0.2787  0.3127
 7751TIP3    H144744   5.582   3.337  11.099 -1.0766  0.3855  0.9949
 7751TIP3    H244745   5.678   3.257  11.184  0.2951 -1.2347 -1.9402
 7752TIP3   OH244746   1.644   4.220   4.419  0.7233 -0.4805  0.6752
 7752TIP3    H144747   1.685   4.305   4.434  0.6079 -0.1494 -0.6981
 7752TIP3    H244748   1.563   4.223   4.470  1.7288 -0.6118  2.3227
 7753TIP3   OH244749   3.764   5.884   3.048 -0.2062  0.2879  0.1692
 7753TIP3    H144750   3.703   5.877   2.974 -2.0563 -0.8220  1.6969
 7753TIP3    H244751   3.820   5.959   3.026 -0.6581 -0.0346 -2.3347
 7754TIP3   OH244752   1.962   5.254  13.470 -0.1824 -0.1659  0.1913
 7754TIP3    H144753   1.873   5.288  13.476  0.7026  2.0937  3.0031
 7754TIP3    H244754   1.992   5.278  13.383 -2.1091 -0.5301 -0.6191
 7755TIP3   OH244755   3.105   1.763   4.208  0.0872 -0.5945  0.0754
 7755TIP3    H144756   3.013   1.736   4.202 -0.3959  0.4409  2.0303
 7755TIP3    H244757   3.141   1.743   4.121 -2.0556 -0.7289 -0.8529
 7756TIP3   OH244758   3.439   1.309  12.738  0.1258  0.5440 -0.6559
 7756TIP3    H144759   3.485   1.367  12.678  1.9264  0.5275  0.6102
 7756TIP3    H244760   3.467   1.338  12.825 -1.0562 -0.5125  0.1115
 7757TIP3   OH244761   6.632   5.436  11.327 -0.2052 -0.0830 -0.1600
 7757TIP3    H144762   6.554   5.463  11.376  0.1059 -0.5522  0.6179
 7757TIP3    H244763   6.598   5.403  11.244 -0.8441 -0.3346  0.1982
 7758TIP3   OH244764   2.323   1.092   2.005  0.6221 -0.0455 -0.1356
 7758TIP3    H144765   2.391   1.151   1.971  0.3417 -0.1448 -0.9005
 7758TIP3    H244766   2.370   1.034   2.065  0.9579  0.7509  0.3808
 7759TIP3   OH244767   6.299   2.543   4.056 -0.1115 -0.1209  0.4480
 7759TIP3    H144768   6.337   2.463   4.020 -0.0700 -0.7633  1.8508
 7759TIP3    H244769   6.367   2.609   4.044  0.2901 -0.5554  0.2889
 7760TIP3   OH244770   0.663   4.253   1.862  0.0870 -0.2532  0.4450
 7760TIP3    H144771   0.617   4.333   1.837  0.1807 -0.2528  0.2662
 7760TIP3    H244772   0.610   4.182   1.826  0.9092 -0.2069 -0.9406
 7761TIP3   OH244773   6.296   6.190  14.363 -0.3198 -0.0682  0.1564
 7761TIP3    H144774   6.280   6.110  14.413 -0.0543  0.7866  1.6500
 7761TIP3    H244775   6.379   6.223  14.396  0.2882  0.0993 -1.4503
 7762TIP3   OH244776   6.800   6.481   0.183  0.2434  0.1382 -0.8941
 7762TIP3    H144777   6.853   6.550   0.222  1.9141 -0.8985 -1.1993
 7762TIP3    H244778   6.754   6.523   0.110  0.5643  1.1025 -0.5498
 7763TIP3   OH244779   6.089   6.135   1.020  0.4423  0.0743  0.3866
 7763TIP3    H144780   6.122   6.178   1.099 -1.3804 -1.7371  2.2583
 7763TIP3    H244781   6.154   6.068   1.001  0.6760  0.2262  0.6325
 7764TIP3   OH244782   5.849   6.203  11.340 -0.0009 -0.0282 -0.3797
 7764TIP3    H144783   5.884   6.257  11.270 -1.3593  1.9408  0.3575
 7764TIP3    H244784   5.849   6.260  11.417 -0.2907 -1.5133  0.7893
 7765TIP3   OH244785   1.528   3.520   1.260  0.0162  0.1809  0.0722
 7765TIP3    H144786   1.538   3.511   1.165 -1.3957 -2.6003  0.0900
 7765TIP3    H244787   1.520   3.615   1.274 -0.8457  0.6165 -2.7077
 7766TIP3   OH244788   3.338   4.573  13.134  0.2087 -0.1235 -0.0712
 7766TIP3    H144789   3.256   4.618  13.150 -0.1443 -1.1361  1.0534
 7766TIP3    H244790   3.355   4.586  13.040 -0.9403  0.5551 -0.1925
 7767TIP3   OH244791   2.235   0.896   3.613  0.3456  0.0791 -0.0604
 7767TIP3    H144792   2.145   0.923   3.632 -0.4576 -1.5963 -1.3058
 7767TIP3    H244793   2.287   0.937   3.683 -1.1938  2.0471  0.0046
 7768TIP3   OH244794   5.889   6.044  12.070  0.5731  0.0576  0.2809
 7768TIP3    H144795   5.964   5.985  12.064 -0.9165 -2.0291  0.8351
 7768TIP3    H244796   5.900   6.089  12.154  1.6386  0.4581 -0.0620
 7769TIP3   OH244797   6.461   5.599   4.557 -0.2122  0.1423 -0.2337
 7769TIP3    H144798   6.461   5.509   4.525 -0.8234 -0.7148  2.0061
 7769TIP3    H244799   6.387   5.604   4.617 -1.7712  2.9080 -2.1087
 7770TIP3   OH244800   5.322   2.282   3.778 -0.5368 -0.1483  0.2992
 7770TIP3    H144801   5.290   2.191   3.780 -0.4138 -0.2026 -0.1186
 7770TIP3    H244802   5.401   2.278   3.724 -1.0202  0.3602 -0.4668
 7771TIP3   OH244803   6.804   5.199   5.870  0.2570  0.0776 -0.1542
 7771TIP3    H144804   6.838   5.288   5.881  1.1341 -0.2749 -0.0060
 7771TIP3    H244805   6.730   5.194   5.932 -0.1885  0.8985 -0.6066
 7772TIP3   OH244806   2.910   3.324   5.786 -0.6227 -0.2469 -0.2140
 7772TIP3    H144807   2.948   3.236   5.793  1.3301  0.5548 -0.3147
 7772TIP3    H244808   2.821   3.314   5.821 -0.0079 -1.9908  0.9809
 7773TIP3   OH244809   4.066   4.675   3.376  0.2000  0.2103  0.1337
 7773TIP3    H144810   4.065   4.609   3.306 -1.3796  0.6828 -0.3371
 7773TIP3    H244811   4.044   4.627   3.455  2.8119 -0.4853  0.5252
 7774TIP3   OH244812   6.556   2.412   1.047  0.2405  0.0847 -0.7567
 7774TIP3    H144813   6.491   2.466   1.001  0.2498 -1.3800 -2.6112
 7774TIP3    H244814   6.505   2.340   1.084  0.2638  1.1385  1.4893
 7775TIP3   OH244815   5.934   4.830   6.018  0.3260  0.3850 -0.0836
 7775TIP3    H144816   5.962   4.741   5.998 -0.1298  0.5341 -1.4727
 7775TIP3    H244817   5.884   4.821   6.099 -0.4776 -0.7829 -0.6773
 7776TIP3   OH244818   2.604   3.279   1.990 -0.3902  0.2680  0.8627
 7776TIP3    H144819   2.510   3.282   1.970 -0.8522 -2.4143  2.1312
 7776TIP3    H244820   2.644   3.244   1.910 -0.5036  0.9177  0.5082
 7777TIP3   OH244821   6.477   0.319   3.242  0.1341  0.0827  0.9353
 7777TIP3    H144822   6.467   0.393   3.182  0.6331  0.8351  1.7623
 7777TIP3    H244823   6.509   0.248   3.186 -0.5148  0.4253  0.1014
 7778TIP3   OH244824   1.943   6.132  12.328  0.6253  0.4298 -0.2715
 7778TIP3    H144825   2.024   6.080  12.321  0.2330 -0.3375  0.6550
 7778TIP3    H244826   1.876   6.068  12.350 -0.5473  0.8354 -2.4731
 7779TIP3   OH244827   4.646   0.509  15.932  0.1393 -0.2790  0.3094
 7779TIP3    H144828   4.570   0.469  15.890 -0.8416  0.1752  1.5820
 7779TIP3    H244829   4.680   0.571  15.867 -2.9490  2.3956  0.9827
 7780TIP3   OH244830   4.564   2.180  11.022  0.4040  0.3078 -0.0127
 7780TIP3    H144831   4.637   2.132  10.984  1.0238  2.8045 -2.2661
 7780TIP3    H244832   4.486   2.144  10.979  0.7184  0.2636 -0.5530
 7781TIP3   OH244833   4.206   1.803  16.677  0.5367 -0.2796 -0.0824
 7781TIP3    H144834   4.286   1.822  16.628  0.2624 -1.7554 -1.1824
 7781TIP3    H244835   4.135   1.839  16.624  0.2183 -2.0906 -0.9925
 7782TIP3   OH244836   4.411   4.141  12.844 -0.1193  0.4613 -0.0222
 7782TIP3    H144837   4.411   4.110  12.754 -0.2119 -0.4434  0.2742
 7782TIP3    H244838   4.378   4.230  12.839  1.7182  1.1324 -1.0922
 7783TIP3   OH244839   5.875   6.144   4.311 -1.0313  0.0459 -0.9125
 7783TIP3    H144840   5.957   6.193   4.299  0.2142 -1.9614 -1.0448
 7783TIP3    H244841   5.903   6.061   4.348 -3.0145 -0.7994 -1.2393
 7784TIP3   OH244842   1.126   4.802  16.029 -0.3656  0.4041 -0.4588
 7784TIP3    H144843   1.204   4.747  16.022  1.2841  2.4366  0.6407
 7784TIP3    H244844   1.143   4.874  15.968 -1.7246  0.5326 -0.7061
 7785TIP3   OH244845   1.850   6.368  12.253  0.6870  0.1135 -0.1829
 7785TIP3    H144846   1.815   6.338  12.169  0.3548 -3.2614  1.0239
 7785TIP3    H244847   1.893   6.291  12.290  2.2340  1.9250  2.0877
 7786TIP3   OH244848   4.575   0.939  11.979 -0.2271  0.0727 -0.0757
 7786TIP3    H144849   4.595   0.847  11.965 -2.5553 -0.4891 -0.1476
 7786TIP3    H244850   4.620   0.962  12.060  1.0523 -0.8702 -0.4891
 7787TIP3   OH244851   6.599   6.536   2.019 -0.0238  0.0098 -0.7194
 7787TIP3    H144852   6.535   6.488   2.073  1.8718 -0.1363  1.5462
 7787TIP3    H244853   6.676   6.543   2.074  0.6033  3.7412 -1.8285
 7788TIP3   OH244854   3.052   0.684   4.185 -0.5088 -0.2097 -0.2894
 7788TIP3    H144855   3.053   0.729   4.101 -1.7064 -2.4964 -1.6492
 7788TIP3    H244856   3.139   0.697   4.222  0.2301  0.3675 -2.1617
 7789TIP3   OH244857   6.346   3.087   4.122  0.6966  0.7699  0.2199
 7789TIP3    H144858   6.329   3.145   4.047  0.8619  0.8075  0.2109
 7789TIP3    H244859   6.440   3.094   4.136  0.9096 -0.3634 -0.5032
 7790TIP3   OH244860   2.448   4.059  16.055  0.4631  0.3723 -0.1486
 7790TIP3    H144861   2.459   4.154  16.049  0.5863  0.3159 -0.9453
 7790TIP3    H244862   2.355   4.045  16.038  0.4475  0.3454 -0.0460
 7791TIP3   OH244863   6.520   4.189  14.778  0.4225  0.0198 -0.5841
 7791TIP3    H144864   6.443   4.137  14.801  1.4261 -2.0383 -1.5809
 7791TIP3    H244865   6.484   4.272  14.747 -1.2275  0.2318  1.6762
 7792TIP3   OH244866   1.834   6.083   1.190  0.0122 -0.0678  0.1786
 7792TIP3    H144867   1.800   6.016   1.131 -1.8238  1.0581 -0.1069
 7792TIP3    H244868   1.915   6.113   1.147  0.5073 -1.5787 -0.0187
 7793TIP3   OH244869   0.634   3.133  15.987 -0.6194 -0.2630  0.7764
 7793TIP3    H144870   0.651   3.042  16.012 -2.4668 -0.5806  0.9945
 7793TIP3    H244871   0.672   3.141  15.899  0.4069 -0.9453  1.1376
 7794TIP3   OH244872   6.301   1.566  13.409  0.8689 -0.2333 -0.6231
 7794TIP3    H144873   6.396   1.555  13.413  0.9779  0.7478 -0.4143
 7794TIP3    H244874   6.267   1.476  13.410  1.8171 -0.6259 -1.6608
 7795TIP3   OH244875   4.431   0.666   5.635  0.2160 -0.1757 -0.2717
 7795TIP3    H144876   4.391   0.656   5.721 -2.3389  1.1323 -1.2168
 7795TIP3    H244877   4.457   0.577   5.610 -0.6798 -0.8506  1.0964
 7796TIP3   OH244878   4.882   1.732  16.252 -0.3388  0.1132 -0.0946
 7796TIP3    H144879   4.918   1.698  16.170  1.8955 -0.3436  1.0035
 7796TIP3    H244880   4.792   1.697  16.254 -1.0864  1.4900 -3.0532
 7797TIP3   OH244881   3.595   3.787   0.825 -0.5126 -0.4213 -0.0124
 7797TIP3    H144882   3.556   3.807   0.740 -1.1887 -0.3866  0.2984
 7797TIP3    H244883   3.688   3.803   0.813 -0.5112 -1.0489 -0.9404
 7798TIP3   OH244884   5.175   0.336  15.519 -0.8501  0.0350 -0.2247
 7798TIP3    H144885   5.244   0.275  15.493 -1.6504 -0.2405 -1.7602
 7798TIP3    H244886   5.094   0.286  15.512 -1.3158  0.6200  0.7165
 7799TIP3   OH244887   1.607   2.156   3.683  0.4758 -0.6775 -0.1468
 7799TIP3    H144888   1.607   2.135   3.589  0.0128 -1.2951 -0.0182
 7799TIP3    H244889   1.515   2.174   3.703  0.6502 -0.0299  0.0855
 7800TIP3   OH244890   3.478   0.931  12.623  0.2451  0.3517 -0.1826
 7800TIP3    H144891   3.532   0.858  12.652 -0.3397 -0.8806 -2.0466
 7800TIP3    H244892   3.539   1.002  12.606  0.8313  0.3210  1.5558
 7801TIP3   OH244893   3.873   6.176   1.768  0.2442  0.1017  0.2150
 7801TIP3    H144894   3.959   6.143   1.744  0.2941 -0.1121  0.6817
 7801TIP3    H244895   3.862   6.150   1.859  0.5884  1.9880  0.8297
 7802TIP3   OH244896   1.218   5.166  10.302  0.4087  0.2836  0.2748
 7802TIP3    H144897   1.154   5.237  10.301  0.8880  0.7652 -1.9681
 7802TIP3    H244898   1.186   5.105  10.235  0.5941 -1.0981  1.3996
 7803TIP3   OH244899   6.606   1.830  12.806  0.2959 -0.1150  0.2040
 7803TIP3    H144900   6.536   1.791  12.755  1.6029 -1.8267 -0.3605
 7803TIP3    H244901   6.670   1.859  12.740  0.9535 -0.2446  0.7809
 7804TIP3   OH244902   2.744   2.446   5.878  0.1291  0.5889 -0.2292
 7804TIP3    H144903   2.756   2.371   5.818 -0.9173  1.0363 -1.0307
 7804TIP3    H244904   2.681   2.502   5.833  0.4868  1.6933  0.6192
 7805TIP3   OH244905   5.809   2.468  16.789  0.7558 -0.1216 -0.0047
 7805TIP3    H144906   5.806   2.399  16.723 -1.8607  1.2476 -1.4826
 7805TIP3    H244907   5.776   2.546  16.744  3.2448  2.0781  1.6774
 7806TIP3   OH244908   0.190   5.328   2.389  0.3796 -1.0232  0.0177
 7806TIP3    H144909   0.201   5.255   2.328  1.0561 -0.6040 -0.3620
 7806TIP3    H244910   0.109   5.371   2.361  1.5872  0.2292 -1.7151
 7807TIP3   OH244911   0.900   3.750  15.982  0.0173  0.1181 -0.0487
 7807TIP3    H144912   0.831   3.706  16.032  0.5239 -0.8123 -0.1629
 7807TIP3    H244913   0.883   3.725  15.891 -2.0411  3.2703 -0.7193
 7808TIP3   OH244914   2.771   2.234   3.747 -0.3761  0.5848  0.0925
 7808TIP3    H144915   2.831   2.214   3.818  0.2253  0.5397 -0.4168
 7808TIP3    H244916   2.755   2.150   3.704 -0.0092  0.7464 -0.3768
 7809TIP3   OH244917   0.372   1.674   0.119 -0.7579 -0.0413  0.0650
 7809TIP3    H144918   0.370   1.765   0.149  1.9143  0.1320 -0.0038
 7809TIP3    H244919   0.440   1.633   0.172  0.2160 -1.1888 -1.9512
 7810TIP3   OH244920   5.099   4.490  13.691  0.3799  0.0819  0.1983
 7810TIP3    H144921   5.150   4.572  13.692 -0.6808  0.7568  0.9508
 7810TIP3    H244922   5.017   4.513  13.735 -0.0424 -1.3281  0.1688
 7811TIP3   OH244923   5.361   4.586  12.352 -0.4308 -0.3853  0.2400
 7811TIP3    H144924   5.295   4.646  12.387  0.6602  0.6641  0.5710
 7811TIP3    H244925   5.363   4.513  12.414 -1.3681 -0.4915  0.1532
 7812TIP3   OH244926   3.898   4.616   5.419  0.2347 -0.1203  0.1503
 7812TIP3    H144927   3.853   4.536   5.392 -1.3702  0.5668  0.6290
 7812TIP3    H244928   3.847   4.687   5.378  0.8052  0.7020  0.8264
 7813TIP3   OH244929   2.140   6.004  14.064  0.1382  0.6194 -0.0030
 7813TIP3    H144930   2.154   5.924  14.115  1.4505  0.9048  0.1083
 7813TIP3    H244931   2.045   6.017  14.067 -0.8456 -3.4266 -3.8712
 7814TIP3   OH244932   2.785   0.922  15.059  0.4584  0.7840 -0.1457
 7814TIP3    H144933   2.800   0.881  15.145  1.7639  1.2776 -0.1165
 7814TIP3    H244934   2.828   0.864  14.997 -2.1948 -0.6578 -0.7597
 7815TIP3   OH244935   4.103   4.358   6.403  0.4821 -0.1887  0.3390
 7815TIP3    H144936   4.049   4.316   6.337 -0.3795 -1.0579  1.5617
 7815TIP3    H244937   4.065   4.332   6.486  0.7988  1.8467  1.1926
 7816TIP3   OH244938   5.958   5.614  11.815 -0.8098 -0.0121 -0.0010
 7816TIP3    H144939   5.957   5.520  11.798 -0.3278 -0.0013 -0.1200
 7816TIP3    H244940   6.042   5.644  11.780 -0.3132  0.2090  1.3108
 7817TIP3   OH244941   0.623   0.342   1.878  0.0863  0.0630 -0.6177
 7817TIP3    H144942   0.598   0.252   1.899  1.3443  0.3220  2.4400
 7817TIP3    H244943   0.570   0.396   1.936  0.3793  1.2225 -1.3943
 7818TIP3   OH244944   4.636   4.049   1.054  0.0185  0.3394  0.0474
 7818TIP3    H144945   4.591   4.129   1.084 -0.5362 -0.4456  1.4070
 7818TIP3    H244946   4.565   3.993   1.024  0.4222  0.3990 -1.0412
 7819TIP3   OH244947   0.329   1.073  15.429  0.7136  0.4476  0.2420
 7819TIP3    H144948   0.424   1.065  15.420  0.8634  2.5835 -0.8026
 7819TIP3    H244949   0.294   0.999  15.380  1.8323 -0.2827  0.5094
 7820TIP3   OH244950   4.033   4.286  13.261  0.0835 -0.1458 -0.4787
 7820TIP3    H144951   4.100   4.236  13.215  0.3614  3.1001 -4.1286
 7820TIP3    H244952   3.951   4.243  13.238  0.5223 -0.9415 -0.5802
 7821TIP3   OH244953   5.266   1.652  16.631  0.3375  0.2267  0.0075
 7821TIP3    H144954   5.329   1.710  16.589  0.0586 -0.7001 -1.7915
 7821TIP3    H244955   5.181   1.693  16.614  0.1338 -0.6995 -1.3355
 7822TIP3   OH244956   2.471   1.428  14.968 -0.2627 -0.1642 -0.3098
 7822TIP3    H144957   2.408   1.481  14.920  0.8799  1.9960  0.4500
 7822TIP3    H244958   2.552   1.479  14.965  0.3190 -0.7961  2.3677
 7823TIP3   OH244959   5.225   3.581  10.252 -0.5203 -0.4768  0.3282
 7823TIP3    H144960   5.164   3.630  10.196  0.6931 -0.0571 -0.6854
 7823TIP3    H244961   5.169   3.542  10.319 -2.0241 -0.7979 -1.0233
 7824TIP3   OH244962   1.505   6.307   5.565 -0.0729  0.1468 -0.2430
 7824TIP3    H144963   1.450   6.349   5.499 -0.5013  0.6752  0.4355
 7824TIP3    H244964   1.469   6.218   5.573  0.4767 -0.1777 -1.2744
 7825TIP3   OH244965   0.214   4.853  13.413 -0.1100  0.0550  0.3673
 7825TIP3    H144966   0.122   4.829  13.399 -0.0055  0.4607 -1.2014
 7825TIP3    H244967   0.234   4.823  13.501 -1.7426 -0.0770  0.7148
 7826TIP3   OH244968   1.015   5.027   1.347 -0.3877 -0.3093 -0.1488
 7826TIP3    H144969   0.997   5.070   1.263  3.6400  1.8450 -0.1512
 7826TIP3    H244970   1.020   4.934   1.326 -4.1599 -0.4250 -1.2163
 7827TIP3   OH244971   4.130   2.155  10.995  0.4829  0.4597 -0.5161
 7827TIP3    H144972   4.165   2.069  11.019 -1.1300 -0.5440 -1.4946
 7827TIP3    H244973   4.175   2.178  10.914 -0.1607 -0.2320 -1.0923
 7828TIP3   OH244974   6.767   3.831  16.658 -0.2242 -0.0795 -0.0590
 7828TIP3    H144975   6.706   3.765  16.625  0.7994 -1.3304  0.4662
 7828TIP3    H244976   6.740   3.844  16.749  0.2292 -0.5985  0.1595
 7829TIP3   OH244977   1.484   1.864  11.765  0.1218  0.2923  0.5500
 7829TIP3    H144978   1.575   1.858  11.737  0.7570  0.0834  2.4924
 7829TIP3    H244979   1.452   1.945  11.727  0.4421 -0.6397 -1.8827
 7830TIP3   OH244980   0.762   1.407  12.236 -0.0944 -0.1854 -0.1886
 7830TIP3    H144981   0.720   1.375  12.316 -0.2240  1.5260  0.4690
 7830TIP3    H244982   0.707   1.374  12.165  0.0031 -1.7048  0.3958
 7831TIP3   OH244983   5.968   3.441  16.466 -0.0013  0.0949 -0.5974
 7831TIP3    H144984   5.975   3.471  16.375 -0.4560 -0.2306 -0.7413
 7831TIP3    H244985   6.056   3.409  16.487  0.4029  1.2053 -0.5523
 7832TIP3   OH244986   1.349   2.716   6.000  0.3661  0.1130  0.0543
 7832TIP3    H144987   1.305   2.731   6.084  0.1003  0.5669 -0.1573
 7832TIP3    H244988   1.339   2.623   5.983  0.7649 -0.0608  0.7134
 7833TIP3   OH244989   4.803   0.635   3.765 -0.6143  0.3312 -0.3935
 7833TIP3    H144990   4.713   0.623   3.796 -0.6100 -2.8323 -1.2182
 7833TIP3    H244991   4.834   0.712   3.811 -3.0688  0.2972  1.5435
 7834TIP3   OH244992   0.813   0.562  12.475  0.8549 -0.0031  0.4817
 7834TIP3    H144993   0.779   0.590  12.560  0.1129 -1.9861  0.8769
 7834TIP3    H244994   0.766   0.618  12.412  2.3361  2.3861  1.3497
 7835TIP3   OH244995   6.084   2.363   3.716  0.0596  0.4930 -0.5080
 7835TIP3    H144996   6.110   2.399   3.801  0.0598 -0.8059  0.0611
 7835TIP3    H244997   6.103   2.270   3.723 -2.4415 -0.1095 -0.9608
 7836TIP3   OH244998   5.352   5.073  11.499 -0.1711 -0.1896  0.2587
 7836TIP3    H144999   5.311   5.074  11.412  0.6355  0.2914 -0.1340
 7836TIP3    H245000   5.442   5.045  11.482  0.3072  0.9715  0.7968
 7837TIP3   OH245001   2.838   2.051   4.215  0.6502 -0.6315  0.0467
 7837TIP3    H145002   2.855   1.987   4.284  0.7540  0.1443  0.7528
 7837TIP3    H245003   2.754   2.090   4.238  0.4185 -0.7521 -0.5702
 7838TIP3   OH245004   2.351   4.160  14.446 -0.0749  0.1660  0.7438
 7838TIP3    H145005   2.336   4.090  14.382 -3.0829  0.1084  1.3495
 7838TIP3    H245006   2.300   4.234  14.414  0.9694  1.2311  1.4586
 7839TIP3   OH245007   5.824   2.788   0.341 -0.4260  0.4160  0.6210
 7839TIP3    H145008   5.795   2.697   0.335 -0.3406  0.2077  2.6334
 7839TIP3    H245009   5.880   2.801   0.264  0.3856 -1.5568  0.8220
 7840TIP3   OH245010   6.775   4.795  11.007 -0.4117 -0.2595 -0.4609
 7840TIP3    H145011   6.788   4.775  11.100  1.4115 -1.7033 -0.9429
 7840TIP3    H245012   6.792   4.889  11.000 -1.9345  0.1602  0.8367
 7841TIP3   OH245013   1.889   5.326   1.859  0.5169  0.1320 -0.2809
 7841TIP3    H145014   1.966   5.334   1.803  0.4238  2.0688 -0.1944
 7841TIP3    H245015   1.823   5.383   1.819  0.3016  1.2336  1.5113
 7842TIP3   OH245016   3.630   5.999  14.990 -0.2042  0.1369 -0.1543
 7842TIP3    H145017   3.586   6.064  15.045 -0.9684 -1.4801  1.2299
 7842TIP3    H245018   3.602   6.021  14.901 -1.5456  0.8688  0.4168
 7843TIP3   OH245019   0.815   2.567  10.728 -0.3521  0.0865  0.1475
 7843TIP3    H145020   0.768   2.568  10.644  0.1849  0.4059 -0.1530
 7843TIP3    H245021   0.904   2.539  10.706 -0.6661 -1.6095  0.8658
 7844TIP3   OH245022   5.732   5.996  12.436  0.1981  0.3441  0.1253
 7844TIP3    H145023   5.801   6.044  12.390  0.2108  0.0904 -0.1267
 7844TIP3    H245024   5.706   5.927  12.374 -0.6212  0.7457  0.0147
 7845TIP3   OH245025   0.055   3.827  15.503 -0.5582 -0.1851  0.4269
 7845TIP3    H145026  -0.018   3.765  15.491 -1.4196  0.6995  0.9416
 7845TIP3    H245027   0.021   3.893  15.563  0.4144  0.6725  0.0692
 7846TIP3   OH245028   6.785   4.934   4.073 -0.0752 -0.5444 -0.1919
 7846TIP3    H145029   6.791   4.931   3.978  0.1860 -0.0391 -0.1959
 7846TIP3    H245030   6.695   4.907   4.092 -0.3601  0.0606 -0.6278
 7847TIP3   OH245031   4.432   0.509  12.702  0.1573 -0.2454 -0.2052
 7847TIP3    H145032   4.407   0.540  12.615 -1.0765 -0.6088  0.0036
 7847TIP3    H245033   4.483   0.430  12.686  1.4757  0.6643 -0.6502
 7848TIP3   OH245034   1.386   0.567   1.937  0.3192  0.0467 -0.2941
 7848TIP3    H145035   1.364   0.660   1.935 -0.1901 -0.0129  1.4607
 7848TIP3    H245036   1.469   0.563   1.983 -0.6541 -0.4908  1.5273
 7849TIP3   OH245037   4.538   5.550  15.350  0.1649 -0.1945 -0.6682
 7849TIP3    H145038   4.613   5.553  15.410  1.2443 -1.2934 -1.9003
 7849TIP3    H245039   4.574   5.578  15.265 -1.0497  0.1759 -1.0844
 7850TIP3   OH245040   2.580   1.084  12.730  0.1503 -0.4424 -0.1012
 7850TIP3    H145041   2.504   1.026  12.727 -0.2073  0.0402 -3.0485
 7850TIP3    H245042   2.633   1.050  12.803 -1.8870 -2.0229  0.7455
 7851TIP3   OH245043   2.148   4.379   0.338 -0.2167 -0.2927 -0.4921
 7851TIP3    H145044   2.184   4.331   0.263 -1.2010 -3.1894  0.7497
 7851TIP3    H245045   2.222   4.386   0.399 -0.0790 -0.2434 -0.6611
 7852TIP3   OH245046   3.407   2.240   5.838 -0.1038  0.5016  0.3769
 7852TIP3    H145047   3.491   2.229   5.793 -0.3006  0.1403  0.0950
 7852TIP3    H245048   3.426   2.301   5.910  0.4306  0.3178  0.3967
 7853TIP3   OH245049   3.386   1.910   0.863 -0.1971 -0.0042  0.6968
 7853TIP3    H145050   3.422   1.933   0.777 -2.4789  1.1301 -0.0738
 7853TIP3    H245051   3.409   1.984   0.919  1.4600 -0.8332  1.1785
 7854TIP3   OH245052   3.880   0.439   5.683  0.3551 -0.1018 -0.3428
 7854TIP3    H145053   3.881   0.449   5.779 -1.8752 -0.1538 -0.2629
 7854TIP3    H245054   3.826   0.362   5.668 -0.3668  0.6413 -1.6801
 7855TIP3   OH245055   5.036   2.573  12.556  0.0015  0.0201  0.0967
 7855TIP3    H145056   5.115   2.545  12.511 -0.0963 -0.8253  0.4275
 7855TIP3    H245057   5.026   2.665  12.532  0.3722 -0.2023 -0.9835
 7856TIP3   OH245058   3.635   0.847   3.695 -0.0959  0.4904  0.1815
 7856TIP3    H145059   3.564   0.875   3.753 -0.1434  0.9298 -0.0822
 7856TIP3    H245060   3.715   0.863   3.745 -0.1647  0.3253  0.3456
 7857TIP3   OH245061   4.718   5.358   0.720  0.1507 -0.6883  0.1401
 7857TIP3    H145062   4.796   5.348   0.665 -0.7284  2.3427 -1.9288
 7857TIP3    H245063   4.742   5.424   0.784 -1.0833  1.7091 -1.6791
 7858TIP3   OH245064   5.962   3.591  15.587 -0.4519  0.5550 -0.2233
 7858TIP3    H145065   6.051   3.578  15.553 -2.1566 -1.9048 -4.4806
 7858TIP3    H245066   5.961   3.544  15.670  1.8233 -0.7142 -0.8263
 7859TIP3   OH245067   3.083   5.815   0.251  0.2008  0.0066  0.5079
 7859TIP3    H145068   3.160   5.757   0.256  0.1051 -0.4533 -1.9474
 7859TIP3    H245069   3.119   5.900   0.226 -0.0584 -0.2562 -0.8365
 7860TIP3   OH245070   5.031   6.540   3.049 -0.1056 -0.1135  0.3093
 7860TIP3    H145071   5.022   6.470   2.984 -1.4394  0.4184 -0.1092
 7860TIP3    H245072   5.007   6.498   3.132 -0.3582 -0.2955  0.1473
 7861TIP3   OH245073   4.337   5.272   6.765 -0.4115 -0.1822  0.4933
 7861TIP3    H145074   4.358   5.363   6.788 -1.3262 -0.3052  1.9835
 7861TIP3    H245075   4.406   5.246   6.704 -1.3202  2.1790 -1.6889
 7862TIP3   OH245076   4.147   1.344  13.652 -0.0905  0.2030 -0.3986
 7862TIP3    H145077   4.208   1.377  13.586  0.6173  0.1730  0.2169
 7862TIP3    H245078   4.137   1.251  13.632  0.7624  0.0119 -0.0004
 7863TIP3   OH245079   5.144   2.355   3.461  0.3744  0.1231 -0.1230
 7863TIP3    H145080   5.177   2.265   3.459 -1.1833 -0.5578  1.6083
 7863TIP3    H245081   5.203   2.400   3.522  0.3033 -0.1131  0.1228
 7864TIP3   OH245082   3.811   5.243  15.327 -0.1353  0.5838 -0.3279
 7864TIP3    H145083   3.746   5.251  15.256 -0.3294  0.6261 -0.1454
 7864TIP3    H245084   3.759   5.246  15.407 -0.0046 -0.4070 -0.1997
 7865TIP3   OH245085   3.369   1.989   5.327  0.4917 -0.1139  0.0492
 7865TIP3    H145086   3.304   2.053   5.298  0.5008 -0.0230  0.2255
 7865TIP3    H245087   3.371   1.923   5.258 -1.2726 -1.2052  0.9593
 7866TIP3   OH245088   2.993   4.083   5.407 -0.2227 -0.1419  0.3079
 7866TIP3    H145089   2.911   4.078   5.358 -1.3620 -1.4806  2.2256
 7866TIP3    H245090   2.986   4.015   5.474  2.2884 -0.0170  0.8140
 7867TIP3   OH245091   0.594   3.850  13.110  0.2161 -0.3196  0.2622
 7867TIP3    H145092   0.678   3.861  13.154 -0.3352  1.2333  0.9991
 7867TIP3    H245093   0.536   3.913  13.153 -1.2862 -1.2252 -0.3492
 7868TIP3   OH245094   2.559   6.044  14.762 -1.1247 -0.3775 -0.0148
 7868TIP3    H145095   2.540   6.034  14.668  0.7732 -0.9144 -0.3857
 7868TIP3    H245096   2.481   6.009  14.806 -2.7185  1.3055 -1.3570
 7869TIP3   OH245097   0.554   5.595   3.027  0.0711  0.2048  0.4522
 7869TIP3    H145098   0.576   5.552   3.109  0.4912 -0.7711 -0.1566
 7869TIP3    H245099   0.477   5.548   2.995 -0.8650  1.3935  0.8853
 7870TIP3   OH245100   1.133   1.428   3.746  0.0688 -0.3362  0.3197
 7870TIP3    H145101   1.155   1.509   3.699 -1.5295 -0.6654 -1.1136
 7870TIP3    H245102   1.169   1.440   3.834  1.5137  1.1199 -0.4185
 7871TIP3   OH245103   4.692   3.383  11.726  0.3047  0.1768  0.2520
 7871TIP3    H145104   4.772   3.343  11.761  1.3637 -0.1327 -2.3364
 7871TIP3    H245105   4.722   3.469  11.694 -0.5901  0.3858 -0.0298
 7872TIP3   OH245106   1.430   2.369  12.973  0.1201  0.1008 -0.4096
 7872TIP3    H145107   1.478   2.393  13.053 -0.0728  1.0485 -0.5655
 7872TIP3    H245108   1.487   2.398  12.902 -0.6911  1.3066 -0.5995
 7873TIP3   OH245109   6.290   5.628   0.116  0.2448 -0.2494 -0.3569
 7873TIP3    H145110   6.343   5.660   0.189 -0.7440 -0.9350  0.7011
 7873TIP3    H245111   6.346   5.640   0.039  1.2409  0.6804  0.4713
 7874TIP3   OH245112   4.015   3.811  13.812 -0.2406 -0.2098 -1.0931
 7874TIP3    H145113   3.941   3.772  13.764 -1.5729  0.0873  0.6291
 7874TIP3    H245114   4.073   3.844  13.743 -1.9139 -0.0614 -2.5050
 7875TIP3   OH245115   1.315   2.325  15.969  0.0847 -0.2415  0.1613
 7875TIP3    H145116   1.331   2.244  15.920 -0.5870 -0.9988  1.1430
 7875TIP3    H245117   1.352   2.308  16.056 -1.4403 -0.0991  0.8618
 7876TIP3   OH245118   0.964   5.783  11.634  0.1269  0.3089 -0.2057
 7876TIP3    H145119   0.884   5.827  11.663 -1.3514 -0.8932 -2.2285
 7876TIP3    H245120   1.026   5.797  11.705 -2.2075  0.3643  1.9552
 7877TIP3   OH245121   1.181   6.301  10.738  0.1025 -0.4158 -0.1707
 7877TIP3    H145122   1.270   6.288  10.770  0.0506  1.6091  0.9757
 7877TIP3    H245123   1.191   6.360  10.663 -0.0922 -2.4440 -1.9102
 7878TIP3   OH245124   0.998   1.103   1.041 -0.2798  0.1987 -0.1578
 7878TIP3    H145125   1.060   1.171   1.069  0.6682 -0.5067 -0.4669
 7878TIP3    H245126   0.917   1.123   1.088  0.3721  0.7828  0.7577
 7879TIP3   OH245127   3.394   6.728   0.557  0.4971  0.5567  0.0212
 7879TIP3    H145128   3.342   6.796   0.515 -0.3616 -0.5894 -0.8395
 7879TIP3    H245129   3.462   6.707   0.493  1.2961  1.1776  0.6365
 7880TIP3   OH245130   0.225   2.133  14.363 -0.1878  0.4378  0.1150
 7880TIP3    H145131   0.148   2.093  14.405 -0.1447  1.7884  1.5639
 7880TIP3    H245132   0.196   2.221  14.339 -0.2783 -0.3048 -3.0002
 7881TIP3   OH245133   6.816   4.012   1.295  0.2311  0.4765  0.2673
 7881TIP3    H145134   6.743   4.023   1.355 -0.5137 -1.3312 -0.2243
 7881TIP3    H245135   6.782   4.038   1.209  0.7973  1.5199  0.3403
 7882TIP3   OH245136   6.693   1.037   5.253 -0.5264 -0.0220 -0.5434
 7882TIP3    H145137   6.641   1.048   5.333  1.1609 -2.5593  1.0164
 7882TIP3    H245138   6.631   0.999   5.190 -1.0103 -1.5186  0.7743
 7883TIP3   OH245139   1.132   3.678   0.633  0.6210 -0.3271  0.0567
 7883TIP3    H145140   1.058   3.697   0.575  2.3020  1.5976 -1.6533
 7883TIP3    H245141   1.145   3.584   0.626 -0.7337 -0.4831 -0.7629
 7884TIP3   OH245142   1.738   2.044   1.067 -0.5897  0.7429  0.0129
 7884TIP3    H145143   1.749   2.139   1.068  1.7070  0.5541  1.3702
 7884TIP3    H245144   1.821   2.011   1.032  0.2155 -0.7997  2.9985
 7885TIP3   OH245145   0.587   1.454   0.760  0.0581 -0.0469 -0.3113
 7885TIP3    H145146   0.574   1.362   0.781  0.6358 -0.4626 -1.6551
 7885TIP3    H245147   0.518   1.500   0.808 -0.2421 -1.1678  0.3702
 7886TIP3   OH245148   0.338   0.437   4.559  0.3929  0.3132  0.4532
 7886TIP3    H145149   0.308   0.493   4.488 -1.8886 -0.1338  0.9497
 7886TIP3    H245150   0.310   0.483   4.639  3.2794  1.0304  1.1696
 7887TIP3   OH245151   5.442   3.635  10.505 -0.8116 -0.0690 -0.3474
 7887TIP3    H145152   5.476   3.587  10.429 -0.7320 -0.7947  0.1290
 7887TIP3    H245153   5.366   3.583  10.533 -0.3647 -0.2525  0.5442
 7888TIP3   OH245154   6.188   6.515   0.301 -0.2426 -0.6179  0.6075
 7888TIP3    H145155   6.107   6.469   0.277 -0.0612 -0.4307 -0.4096
 7888TIP3    H245156   6.208   6.484   0.389 -1.0501 -1.1921  0.5986
 7889TIP3   OH245157   5.898   0.733   3.332 -0.2544  0.2651 -0.8161
 7889TIP3    H145158   5.925   0.822   3.354 -1.4573  0.8533 -1.6001
 7889TIP3    H245159   5.915   0.725   3.239 -0.4221 -0.2203 -0.8089
 7890TIP3   OH245160   1.376   6.481   4.637  0.0723 -0.1556  0.1111
 7890TIP3    H145161   1.444   6.495   4.703  0.1520  2.3103 -0.3818
 7890TIP3    H245162   1.311   6.549   4.654 -1.6561 -1.6214 -0.2648
 7891TIP3   OH245163   6.246   0.082  11.926  0.0212  0.1510 -0.4000
 7891TIP3    H145164   6.257   0.165  11.972  0.0503  0.7334 -1.4242
 7891TIP3    H245165   6.243   0.016  11.995  0.2364  0.9796  0.4145
 7892TIP3   OH245166   2.258   2.527   3.019  0.1597  0.1338  0.9519
 7892TIP3    H145167   2.228   2.512   3.108 -1.3886  2.4303  0.9181
 7892TIP3    H245168   2.275   2.621   3.015  0.1978  0.0879 -1.1490
 7893TIP3   OH245169   3.314   0.886  15.273  0.5824 -0.1982 -0.1646
 7893TIP3    H145170   3.378   0.922  15.212 -0.0844 -1.2007 -1.5131
 7893TIP3    H245171   3.300   0.796  15.242 -0.5556 -0.3944  0.8521
 7894TIP3   OH245172   0.115   2.245   2.858  0.4008  0.6156  0.2613
 7894TIP3    H145173   0.129   2.175   2.921  0.0340  0.9849  0.7584
 7894TIP3    H245174   0.023   2.239   2.835 -0.0004  1.8122  1.3997
 7895TIP3   OH245175   2.804   0.624  14.259 -0.4259 -0.1868 -0.3141
 7895TIP3    H145176   2.891   0.585  14.270 -1.0038 -1.3981  0.2043
 7895TIP3    H245177   2.755   0.595  14.336 -1.8886 -1.2432 -1.5762
 7896TIP3   OH245178   6.558   0.180  16.491 -0.0372  0.1442 -0.1211
 7896TIP3    H145179   6.571   0.247  16.558 -1.1524  1.3703 -1.0499
 7896TIP3    H245180   6.501   0.116  16.532  0.3589  0.1966  0.5201
 7897TIP3   OH245181   6.667   0.788   1.758  0.1862 -0.1118  0.4655
 7897TIP3    H145182   6.724   0.854   1.718  0.4183  0.7091  2.0696
 7897TIP3    H245183   6.715   0.757   1.834 -1.2262  0.1660  1.5166
 7898TIP3   OH245184   4.863   1.763  17.100 -0.7709  0.2395  0.2296
 7898TIP3    H145185   4.929   1.710  17.055 -1.1451 -0.8433  0.9276
 7898TIP3    H245186   4.858   1.844  17.048  2.0155  0.9430  0.8815
 7899TIP3   OH245187   3.925   6.580  13.211 -0.0174  0.0210  0.5622
 7899TIP3    H145188   3.908   6.641  13.140  1.8165 -0.5920 -0.4734
 7899TIP3    H245189   3.906   6.494  13.174 -1.5709 -0.1572  1.6769
 7900TIP3   OH245190   2.824   5.649  13.282 -0.1695 -0.3682 -0.6691
 7900TIP3    H145191   2.737   5.689  13.287 -0.1009 -0.0387 -1.8248
 7900TIP3    H245192   2.857   5.653  13.372 -1.0892  0.0806 -0.3342
 7901TIP3   OH245193   2.177   1.206  10.596  0.3329 -0.4290  0.3483
 7901TIP3    H145194   2.095   1.233  10.554  1.5760 -0.0976 -2.0622
 7901TIP3    H245195   2.210   1.286  10.637  0.6184  0.0677 -0.8077
 7902TIP3   OH245196   0.505   6.456   2.633  0.5864  0.0726  0.4555
 7902TIP3    H145197   0.433   6.506   2.669  1.7086  2.4918 -0.4417
 7902TIP3    H245198   0.555   6.427   2.710 -0.4889 -0.3602  1.0148
 7903TIP3   OH245199   5.598   0.040   5.097  0.4177 -0.1036 -0.3632
 7903TIP3    H145200   5.646   0.092   5.162 -1.9114  0.3651  1.1030
 7903TIP3    H245201   5.622  -0.051   5.116  1.1898  0.1463 -0.1027
 7904TIP3   OH245202   4.306   2.865   1.608 -1.0125  0.0371 -0.1128
 7904TIP3    H145203   4.308   2.786   1.554 -1.0330 -0.3747  0.4738
 7904TIP3    H245204   4.216   2.897   1.602 -0.3953  1.6051 -2.5604
 7905TIP3   OH245205   3.390   2.050  12.195  0.4388  0.3100 -0.4530
 7905TIP3    H145206   3.408   1.969  12.148  0.2297  0.7246 -1.2661
 7905TIP3    H245207   3.473   2.098  12.194  1.0295 -0.5865  1.4689
 7906TIP3   OH245208   2.385   4.734   3.533  0.1248  0.3687  0.2451
 7906TIP3    H145209   2.293   4.760   3.537 -0.7118 -2.4376  1.7841
 7906TIP3    H245210   2.394   4.693   3.447 -0.9459 -2.0059  1.1950
 7907TIP3   OH245211   6.208   4.014   5.015  0.1918 -0.4535 -0.0556
 7907TIP3    H145212   6.280   3.975   5.063  2.0232  1.0414 -1.4519
 7907TIP3    H245213   6.249   4.061   4.943 -1.8452  3.0280  0.7868
 7908TIP3   OH245214   2.819   4.613   4.420  0.6174  0.3217 -0.6995
 7908TIP3    H145215   2.883   4.658   4.365  0.3496  1.8875  0.2443
 7908TIP3    H245216   2.742   4.602   4.363  1.3930 -0.8744 -1.5849
 7909TIP3   OH245217   0.632   1.665   4.343  0.5980 -0.2059  0.3355
 7909TIP3    H145218   0.712   1.698   4.384  1.2162 -0.2044 -0.8235
 7909TIP3    H245219   0.584   1.744   4.319  0.6838 -0.1902  0.2127
 7910TIP3   OH245220   2.662   0.380  15.864  0.7468  0.4560  0.7832
 7910TIP3    H145221   2.575   0.361  15.829  0.0415 -0.0295  2.6321
 7910TIP3    H245222   2.673   0.475  15.853 -1.0941  0.9600  2.6628
 7911TIP3   OH245223   4.566   3.870  12.145  0.7764 -0.3461  0.3024
 7911TIP3    H145224   4.567   3.804  12.076 -0.2114 -1.1226  1.0008
 7911TIP3    H245225   4.518   3.829  12.216 -0.6613  1.4617  0.4340
 7912TIP3   OH245226   5.967   1.633   4.101 -0.1622 -0.8979 -0.2065
 7912TIP3    H145227   6.058   1.624   4.075  0.4575 -1.5470  2.0444
 7912TIP3    H245228   5.928   1.687   4.032  1.6818 -1.3294 -1.6625
 7913TIP3   OH245229   2.711   0.371  10.708  0.2041 -0.4593 -0.0297
 7913TIP3    H145230   2.654   0.417  10.770  0.1059 -1.2291  0.4629
 7913TIP3    H245231   2.760   0.441  10.664 -1.1377  0.2329 -0.4959
 7914TIP3   OH245232   6.303   1.597   0.036  0.1938 -0.7780  0.4087
 7914TIP3    H145233   6.318   1.525  -0.025 -0.3330 -1.9878  1.6433
 7914TIP3    H245234   6.232   1.647  -0.002  0.6595 -0.8216 -0.5423
 7915TIP3   OH245235   5.208   1.849  13.905  0.1582 -0.4570  0.1290
 7915TIP3    H145236   5.239   1.921  13.850 -1.4115 -0.2755 -0.5628
 7915TIP3    H245237   5.278   1.783  13.899  1.3999  0.7814  0.3919
 7916TIP3   OH245238   4.375   5.499   2.797  0.6605  0.2016  0.4793
 7916TIP3    H145239   4.417   5.426   2.750  3.0829  0.7284  1.6281
 7916TIP3    H245240   4.282   5.481   2.791  1.1423 -2.9017  0.5187
 7917TIP3   OH245241   6.724   3.900   5.119  0.1056  0.3728  0.2399
 7917TIP3    H145242   6.713   3.921   5.212  0.4059  1.5525  0.0314
 7917TIP3    H245243   6.819   3.903   5.105  0.2416 -1.9783  0.3448
 7918TIP3   OH245244   3.472   3.936  11.345  0.0283 -0.8671  0.4017
 7918TIP3    H145245   3.385   3.975  11.339  1.1732  2.1585  1.7507
 7918TIP3    H245246   3.475   3.897  11.433  0.9324  1.6749  1.5821
 7919TIP3   OH245247   3.837   5.905   6.124  0.0330 -0.0883  0.4968
 7919TIP3    H145248   3.869   5.965   6.191 -0.2458  0.6208  0.0112
 7919TIP3    H245249   3.742   5.905   6.135 -0.2054  1.5393 -1.0921
 7920TIP3   OH245250   4.679   1.825   5.507  0.4787 -0.1170 -0.3260
 7920TIP3    H145251   4.742   1.840   5.437 -0.3953  1.8476 -0.7796
 7920TIP3    H245252   4.595   1.818   5.461  0.1432 -0.9433  0.3912
 7921TIP3   OH245253   0.683   3.594  11.583 -0.1534  0.2609  0.1987
 7921TIP3    H145254   0.767   3.623  11.621 -0.6699  1.0438  0.7783
 7921TIP3    H245255   0.627   3.577  11.659 -1.1871  1.7890 -0.1682
 7922TIP3   OH245256   0.426   6.130  15.289  0.5139  0.5934  0.3381
 7922TIP3    H145257   0.452   6.051  15.240 -0.3647 -0.2385  1.1617
 7922TIP3    H245258   0.433   6.201  15.225  1.6616 -0.0845 -0.3313
 7923TIP3   OH245259   6.257   1.955   4.910  0.2260  0.3777 -0.3811
 7923TIP3    H145260   6.236   1.928   4.999 -0.6468 -0.4336 -0.8127
 7923TIP3    H245261   6.249   2.050   4.912  1.6877  0.5044  0.7539
 7924TIP3   OH245262   5.072   3.694   3.185 -0.2504  0.6045 -0.7707
 7924TIP3    H145263   5.067   3.790   3.183 -1.2881  0.5805  0.0291
 7924TIP3    H245264   5.118   3.674   3.266  1.2558  0.4446 -1.6382
 7925TIP3   OH245265   3.887   3.178   1.489 -0.2269  0.0304  0.5793
 7925TIP3    H145266   3.923   3.250   1.437 -0.5676 -0.6356 -0.6243
 7925TIP3    H245267   3.797   3.168   1.458  0.0490 -1.4053  0.1485
 7926TIP3   OH245268   2.470   1.933   0.880  0.5645  0.2006 -0.7459
 7926TIP3    H145269   2.465   1.994   0.953  1.1672 -0.8024  0.1651
 7926TIP3    H245270   2.536   1.971   0.822  0.8855  0.4586 -0.2272
 7927TIP3   OH245271   5.029   6.062  12.236  0.0834 -0.0183  0.0866
 7927TIP3    H145272   5.011   5.972  12.210 -2.9020  0.3148  0.6519
 7927TIP3    H245273   4.960   6.113  12.195  0.7525  1.7957  1.1123
 7928TIP3   OH245274   6.220   3.407  14.166 -0.6055 -0.9052  0.3090
 7928TIP3    H145275   6.232   3.448  14.080  0.6457 -0.9281  0.4425
 7928TIP3    H245276   6.172   3.472  14.217 -0.7115 -0.5843 -0.1923
 7929TIP3   OH245277   5.473   1.046   4.903 -0.1234  0.3159 -0.1072
 7929TIP3    H145278   5.395   1.000   4.932  0.3984 -1.8637 -1.8379
 7929TIP3    H245279   5.495   1.105   4.975 -2.0029 -0.7101  1.4005
 7930TIP3   OH245280   4.986   2.673   5.024  0.5534 -0.2395 -0.5599
 7930TIP3    H145281   5.080   2.665   5.011  0.5879 -0.1155 -0.3960
 7930TIP3    H245282   4.949   2.598   4.978  0.9092 -1.7656  1.4893
 7931TIP3   OH245283   3.705   5.076   2.346 -0.1029 -0.0084  0.0479
 7931TIP3    H145284   3.681   5.032   2.427  2.0766 -0.6261  0.4275
 7931TIP3    H245285   3.756   5.011   2.297 -2.1907 -0.0203 -2.3550
 7932TIP3   OH245286   2.520   5.383   3.548 -0.0353  0.3292  0.3892
 7932TIP3    H145287   2.442   5.385   3.493  0.4419 -1.9096 -0.4422
 7932TIP3    H245288   2.533   5.291   3.569  2.4801  0.6221  0.3977
 7933TIP3   OH245289   1.060   2.945  13.872  0.2731  0.0966 -0.1279
 7933TIP3    H145290   1.070   3.040  13.873  0.3813  0.0851 -0.0163
 7933TIP3    H245291   1.091   2.917  13.958  2.6962 -0.2765 -1.0455
 7934TIP3   OH245292   4.442   2.814  16.062  0.4353  0.1183  0.0908
 7934TIP3    H145293   4.532   2.834  16.034  0.5520 -1.0455 -0.4292
 7934TIP3    H245294   4.388   2.877  16.015  0.9243  0.3774 -0.1364
 7935TIP3   OH245295   6.208   6.553   1.687 -0.0649 -0.3059  0.2832
 7935TIP3    H145296   6.165   6.588   1.766 -0.3486  3.0266 -1.1785
 7935TIP3    H245297   6.301   6.573   1.699  0.2375 -1.8817  0.7275
 7936TIP3   OH245298   6.841   1.659  12.265 -0.1921 -0.0841  0.3412
 7936TIP3    H145299   6.886   1.718  12.326 -0.0425 -1.6847  1.8444
 7936TIP3    H245300   6.807   1.717  12.196 -0.6515  1.8400  2.1016
 7937TIP3   OH245301   6.567   5.874  16.393  0.2015 -0.1389 -0.1775
 7937TIP3    H145302   6.591   5.924  16.316 -1.3229  1.8097  0.5308
 7937TIP3    H245303   6.475   5.851  16.379 -0.5559  1.4953  1.5982
 7938TIP3   OH245304   2.721   4.479  14.049  0.5698 -0.1119 -0.2362
 7938TIP3    H145305   2.756   4.543  13.987 -0.5137  2.4547  1.5796
 7938TIP3    H245306   2.627   4.478  14.031  0.2779  0.4897  1.1120
 7939TIP3   OH245307   2.746   5.107  11.773 -0.1448 -0.0755  0.2143
 7939TIP3    H145308   2.718   5.026  11.729 -2.0480  0.8039 -0.3139
 7939TIP3    H245309   2.713   5.177  11.717 -1.7660  1.0916  2.4718
 7940TIP3   OH245310   4.748   2.149   3.347  0.2255  0.0688 -0.4877
 7940TIP3    H145311   4.797   2.107   3.418  1.0245  0.6217 -0.6908
 7940TIP3    H245312   4.816   2.192   3.294 -0.3818 -0.1191 -1.4369
 7941TIP3   OH245313   4.914   0.132   5.020  0.2849  0.6088 -0.1896
 7941TIP3    H145314   4.955   0.046   5.016  1.9699  1.2422  1.6899
 7941TIP3    H245315   4.980   0.188   5.061 -1.5190  2.3194  0.5280
 7942TIP3   OH245316   4.114   1.198   5.709 -0.4127  0.2157  0.7162
 7942TIP3    H145317   4.195   1.165   5.669 -0.6279  0.7112 -0.1608
 7942TIP3    H245318   4.056   1.214   5.635 -0.6720  1.5901  1.1983
 7943TIP3   OH245319   3.571   0.220   5.175 -0.5111  0.1530 -0.9785
 7943TIP3    H145320   3.513   0.179   5.239  1.9710 -0.5315  0.9963
 7943TIP3    H245321   3.601   0.301   5.218  2.1917 -0.9490 -0.6005
 7944TIP3   OH245322   6.615   6.605   1.414 -0.5243 -0.0674  0.2119
 7944TIP3    H145323   6.660   6.567   1.338 -1.2253 -0.9143  0.1933
 7944TIP3    H245324   6.573   6.530   1.457  0.4340  0.2953  1.8572
 7945TIP3   OH245325   2.421   3.314  15.457  0.5038  0.0895 -0.1736
 7945TIP3    H145326   2.450   3.223  15.445  1.3400  0.3186  0.0335
 7945TIP3    H245327   2.327   3.307  15.475  0.7489 -0.8309  0.8976
 7946TIP3   OH245328   5.982   0.724   1.307  0.3029  0.2296 -0.5624
 7946TIP3    H145329   6.023   0.762   1.229 -0.3048  3.8661  0.7225
 7946TIP3    H245330   6.046   0.735   1.377  1.3554 -4.1098 -0.5396
 7947TIP3   OH245331   5.500   6.365   5.397  0.2930  0.2232 -0.3787
 7947TIP3    H145332   5.426   6.358   5.458  0.0850 -1.9230 -0.7632
 7947TIP3    H245333   5.474   6.433   5.335  0.1156  1.8070  1.3577
 7948TIP3   OH245334   4.718   4.602  11.705 -0.2410 -0.1167 -0.1913
 7948TIP3    H145335   4.674   4.575  11.625 -0.0395 -0.1767 -0.2827
 7948TIP3    H245336   4.731   4.696  11.695  0.4866 -0.2508 -0.5760
 7949TIP3   OH245337   1.663   1.816  15.170  0.3046  1.0244  0.3177
 7949TIP3    H145338   1.581   1.838  15.214  0.7076  1.4488  0.8711
 7949TIP3    H245339   1.636   1.779  15.086 -0.4800  0.2882  0.8734
 7950TIP3   OH245340   3.201   0.660   1.417 -0.2465 -0.3818  0.3565
 7950TIP3    H145341   3.190   0.712   1.338  2.5103  1.4554  1.0557
 7950TIP3    H245342   3.289   0.623   1.411 -0.4819 -1.3299  1.9499
 7951TIP3   OH245343   0.247   5.364   3.672  0.2870  0.5611  0.5553
 7951TIP3    H145344   0.284   5.416   3.601 -0.7400 -1.1375 -1.3421
 7951TIP3    H245345   0.299   5.284   3.673  0.8347  0.8887  2.3538
 7952TIP3   OH245346   3.660   4.807  14.999  0.4022  0.1887 -0.6486
 7952TIP3    H145347   3.576   4.787  14.958 -0.1520 -1.7028  1.2107
 7952TIP3    H245348   3.720   4.818  14.926 -0.7331 -2.0125 -2.0384
 7953TIP3   OH245349   4.826   1.206  12.578  0.6698 -0.4592  0.1553
 7953TIP3    H145350   4.732   1.184  12.574  0.2248  1.1557  1.0239
 7953TIP3    H245351   4.865   1.136  12.631  0.0753 -1.4241 -0.6248
 7954TIP3   OH245352   6.311   1.666  16.718  0.1987  0.2048  0.4076
 7954TIP3    H145353   6.379   1.687  16.783  0.0458  0.5922  0.4481
 7954TIP3    H245354   6.232   1.708  16.752 -0.5058 -1.7085  1.2787
 7955TIP3   OH245355   6.311   6.237   3.944 -0.5800 -0.0034  0.0020
 7955TIP3    H145356   6.401   6.229   3.977 -0.1928  3.2070  0.0487
 7955TIP3    H245357   6.321   6.264   3.853 -1.4341  1.8023  0.4144
 7956TIP3   OH245358   3.376   2.395  15.680 -0.7948  0.0968  0.4961
 7956TIP3    H145359   3.283   2.416  15.669 -0.9863 -0.5957  0.7688
 7956TIP3    H245360   3.383   2.368  15.771 -0.3178  0.1472  0.4750
 7957TIP3   OH245361   2.774   2.762  15.233 -0.9865 -0.6366 -0.1982
 7957TIP3    H145362   2.747   2.777  15.143 -0.5011  2.2351  0.0443
 7957TIP3    H245363   2.714   2.694  15.265 -1.5763 -1.2615 -2.4449
 7958TIP3   OH245364   0.719   6.796  15.497 -0.0144  0.3538 -0.2736
 7958TIP3    H145365   0.747   6.851  15.424 -0.3871  0.4124 -0.3758
 7958TIP3    H245366   0.636   6.758  15.467 -0.7494  1.2481  0.5417
 7959TIP3   OH245367   3.834   4.783  15.435  0.2578 -0.0739 -0.0423
 7959TIP3    H145368   3.804   4.855  15.379 -1.1578  0.4795  1.3500
 7959TIP3    H245369   3.911   4.748  15.391 -1.2593 -0.2237 -2.7703
 7960TIP3   OH245370   2.752   2.839   3.536 -0.6556  0.1018  0.3195
 7960TIP3    H145371   2.660   2.865   3.526 -0.6327 -0.6069 -3.2170
 7960TIP3    H245372   2.758   2.756   3.489  1.3844 -1.0692  2.4676
 7961TIP3   OH245373   3.240   2.769  11.596  0.2347 -0.6729 -0.0464
 7961TIP3    H145374   3.205   2.713  11.526  0.0849  0.9229 -1.3015
 7961TIP3    H245375   3.243   2.857  11.557  2.0450 -0.0866  1.2921
 7962TIP3   OH245376   3.372   5.090  14.418 -0.2914  0.1832 -0.5630
 7962TIP3    H145377   3.294   5.100  14.363 -3.0304 -3.7256  2.0296
 7962TIP3    H245378   3.348   5.132  14.501  0.7122 -0.2890 -0.0182
 7963TIP3   OH245379   4.427   0.388   2.855  0.6607  0.9212  0.2298
 7963TIP3    H145380   4.343   0.434   2.855  1.0911  1.7490  0.8966
 7963TIP3    H245381   4.459   0.397   2.766 -1.8386 -3.0884 -1.3405
 7964TIP3   OH245382   2.559   3.115   2.808  0.4280  0.2329  0.2677
 7964TIP3    H145383   2.583   3.037   2.859 -2.1414  0.3666  1.8250
 7964TIP3    H245384   2.486   3.086   2.753 -2.2906  1.9870  2.6752
 7965TIP3   OH245385   4.380   4.822   6.528 -0.1807  0.0249  0.4809
 7965TIP3    H145386   4.456   4.787   6.482 -0.2857  0.9712 -0.4458
 7965TIP3    H245387   4.331   4.745   6.556 -0.6187 -0.6150 -1.8524
 7966TIP3   OH245388   2.094   3.473   4.639 -0.1257  0.4090 -0.6303
 7966TIP3    H145389   2.009   3.515   4.624 -0.2179  0.1155 -0.9503
 7966TIP3    H245390   2.087   3.388   4.595 -0.6645 -0.8025  1.5890
 7967TIP3   OH245391   0.898   5.726   2.708 -0.0662  0.8459  0.4189
 7967TIP3    H145392   0.976   5.681   2.741 -1.0919 -1.8479 -0.5267
 7967TIP3    H245393   0.921   5.750   2.618 -0.6892 -1.1239 -0.3110
 7968TIP3   OH245394   0.521   1.574   1.125  0.6312  0.4506 -0.5886
 7968TIP3    H145395   0.601   1.522   1.118  1.7256  1.3734  2.9388
 7968TIP3    H245396   0.481   1.547   1.208 -1.6595  1.4375 -1.2792
 7969TIP3   OH245397   6.693   3.463   2.741 -0.1498 -0.1937 -0.4519
 7969TIP3    H145398   6.786   3.445   2.725  0.0413  1.7311 -1.8454
 7969TIP3    H245399   6.673   3.416   2.822  1.9183 -1.0039 -0.3551
 7970TIP3   OH245400   0.783   2.377   3.014  0.0502  0.0686 -1.2179
 7970TIP3    H145401   0.837   2.298   3.016 -0.1348 -0.0383 -0.1304
 7970TIP3    H245402   0.843   2.446   2.985  1.6436  0.5456  2.6048
 7971TIP3   OH245403   1.635   6.760   5.014  0.7595 -0.1223  0.4882
 7971TIP3    H145404   1.564   6.724   5.067  1.5097 -1.4607  0.6175
 7971TIP3    H245405   1.655   6.844   5.055 -1.3874  0.7668 -0.1391
 7972TIP3   OH245406   0.325   1.446  15.933  0.3755 -0.3769  0.1639
 7972TIP3    H145407   0.257   1.503  15.970 -0.0700  0.1603 -1.4177
 7972TIP3    H245408   0.360   1.495  15.859  0.5786 -1.8197 -0.7283
 7973TIP3   OH245409   2.046   5.952   2.675  0.3384  0.1025 -0.1678
 7973TIP3    H145410   2.013   6.041   2.663 -0.6411 -0.1701  0.4143
 7973TIP3    H245411   2.129   5.951   2.627  0.6007  1.4636  0.2071
 7974TIP3   OH245412   3.287   0.632   0.820 -0.2759 -0.2492  0.6066
 7974TIP3    H145413   3.298   0.642   0.915 -0.1728 -1.6003  0.7614
 7974TIP3    H245414   3.372   0.602   0.789 -0.6808 -1.1114  0.2971
 7975TIP3   OH245415   4.746   3.215   2.674 -0.6465  0.2069  0.1591
 7975TIP3    H145416   4.747   3.119   2.663 -0.6522  0.3869 -1.6420
 7975TIP3    H245417   4.836   3.241   2.656 -0.6588  0.5562  0.5989
 7976TIP3   OH245418   1.299   2.581   1.326  0.1580 -0.0623 -0.0158
 7976TIP3    H145419   1.258   2.667   1.328 -2.0608 -1.0304 -0.8823
 7976TIP3    H245420   1.268   2.537   1.405 -0.3558 -0.7469 -0.5856
 7977TIP3   OH245421   2.556   5.660  13.061 -0.1775  0.1610 -0.5648
 7977TIP3    H145422   2.609   5.605  13.004 -0.3636 -0.7186  0.0974
 7977TIP3    H245423   2.580   5.750  13.036  1.7888 -0.1912 -0.1580
 7978TIP3   OH245424   4.613   1.686  15.433  0.2219 -0.3710 -0.3913
 7978TIP3    H145425   4.708   1.693  15.445  0.0302  2.7012  0.1038
 7978TIP3    H245426   4.586   1.773  15.404 -2.4282 -1.2746 -0.9094
 7979TIP3   OH245427   4.102   5.476  14.957 -0.0564  0.2499 -0.5439
 7979TIP3    H145428   4.060   5.441  15.035 -0.3326 -1.2455 -1.3143
 7979TIP3    H245429   4.029   5.501  14.900  0.1434  1.5351 -0.2449
 7980TIP3   OH245430   6.825   0.001  14.842 -0.1704  0.1158 -0.0798
 7980TIP3    H145431   6.804   0.024  14.933  0.4832 -0.0260  0.1108
 7980TIP3    H245432   6.784  -0.085  14.829  2.4717 -1.4377  1.1457
 7981TIP3   OH245433   0.086   6.795  10.808 -0.1949 -0.2674 -0.3565
 7981TIP3    H145434   0.042   6.739  10.745  0.6569  0.1027 -1.3153
 7981TIP3    H245435   0.019   6.856  10.838 -0.3625  0.3161 -1.8217
 7982TIP3   OH245436   6.655   5.886  12.878  0.3284  0.2503  0.4559
 7982TIP3    H145437   6.632   5.966  12.830 -2.9536 -0.0899  1.2404
 7982TIP3    H245438   6.710   5.836  12.817 -0.1255  1.7172 -1.2340
 7983TIP3   OH245439   6.077   0.770  15.933 -0.1323  0.2617 -0.1202
 7983TIP3    H145440   6.151   0.734  15.885 -2.4839 -2.7539 -1.8640
 7983TIP3    H245441   6.064   0.708  16.006 -1.7408 -0.1467 -0.7079
 7984TIP3   OH245442   5.156   4.197   5.300  0.1166 -0.1374 -0.4160
 7984TIP3    H145443   5.232   4.204   5.358 -0.6587  2.8702  0.3797
 7984TIP3    H245444   5.183   4.244   5.221 -1.5767  3.0753  0.7576
 7985TIP3   OH245445   2.757   0.632   0.453  0.1626  0.7042  0.1034
 7985TIP3    H145446   2.668   0.613   0.484  0.2873 -0.5922 -0.2755
 7985TIP3    H245447   2.745   0.697   0.384 -0.4329  1.0693  0.5479
 7986TIP3   OH245448   5.400   6.750   4.700  1.0245  0.2744 -0.1010
 7986TIP3    H145449   5.457   6.717   4.630  0.0634 -0.9701 -0.3444
 7986TIP3    H245450   5.401   6.680   4.766 -1.6537 -0.6849 -0.9498
 7987TIP3   OH245451   3.317   6.481   4.838 -0.3685  0.0388 -0.7657
 7987TIP3    H145452   3.346   6.418   4.772  0.6399 -2.0167  1.4866
 7987TIP3    H245453   3.264   6.430   4.899 -1.5694  1.9391 -0.0945
 7988TIP3   OH245454   3.296   0.664  13.761 -0.1239 -0.1461  0.3463
 7988TIP3    H145455   3.297   0.733  13.695  0.5594 -0.6378 -0.1737
 7988TIP3    H245456   3.261   0.587  13.715  0.5730 -0.5555  0.4950
 7989TIP3   OH245457   5.730   5.398  14.194 -0.0450  0.4813  0.0582
 7989TIP3    H145458   5.660   5.344  14.230 -0.4506 -0.1025 -1.5205
 7989TIP3    H245459   5.753   5.459  14.264 -1.0607 -0.3392  1.1264
 7990TIP3   OH245460   3.755   1.350   2.383  0.4151  0.7165 -0.4172
 7990TIP3    H145461   3.709   1.383   2.306 -1.2508 -0.7420 -0.1228
 7990TIP3    H245462   3.749   1.255   2.376  0.6579  0.5426  1.2335
 7991TIP3   OH245463   3.754   1.575  14.147  0.7017 -0.6362 -1.1744
 7991TIP3    H145464   3.691   1.626  14.096  0.1383 -0.3387 -0.2078
 7991TIP3    H245465   3.708   1.493  14.168 -0.5866  0.7475  2.0594
 7992TIP3   OH245466   5.424   0.684   2.286 -0.5342 -0.0514 -0.3343
 7992TIP3    H145467   5.461   0.716   2.369 -1.0476 -0.4412  0.0508
 7992TIP3    H245468   5.497   0.639   2.243 -0.3828 -0.2422  0.1163
 7993TIP3   OH245469   2.958   0.836  12.868 -0.8908 -0.0369 -0.3906
 7993TIP3    H145470   2.941   0.846  12.774  0.5147  1.2757 -0.5608
 7993TIP3    H245471   2.936   0.746  12.888 -1.3541 -0.2951 -1.9640
 7994TIP3   OH245472   2.429   3.971   1.153 -0.2902 -0.4447  0.2333
 7994TIP3    H145473   2.442   4.064   1.174 -0.5977 -0.5720  1.0231
 7994TIP3    H245474   2.341   3.952   1.184 -0.8299 -0.6257 -1.3332
 7995TIP3   OH245475   2.176   3.505   2.691 -0.3293 -0.5168 -0.4722
 7995TIP3    H145476   2.237   3.541   2.626 -0.9942 -0.0791 -0.8709
 7995TIP3    H245477   2.228   3.441   2.740  1.0028  1.2133  0.5037
 7996TIP3   OH245478   1.073   4.964  13.807 -0.0415 -0.2854  0.1139
 7996TIP3    H145479   1.127   4.892  13.776 -1.7303 -0.7388 -2.0658
 7996TIP3    H245480   1.066   5.023  13.732 -1.0903  0.6348  0.8950
 7997TIP3   OH245481   2.762   3.746  17.053  0.0374 -0.0544  0.1164
 7997TIP3    H145482   2.726   3.749  16.965 -1.4578 -0.5538  0.6688
 7997TIP3    H245483   2.713   3.812  17.102 -0.3296 -0.9110  0.9530
 7998TIP3   OH245484   2.261   1.318  15.629 -0.0953 -0.1747  0.0912
 7998TIP3    H145485   2.322   1.391  15.619 -0.9127  0.5897  0.4769
 7998TIP3    H245486   2.181   1.359  15.661 -0.7303 -1.1851 -0.1648
 7999TIP3   OH245487   5.221   6.589   6.185 -0.1927  0.1574  0.0862
 7999TIP3    H145488   5.285   6.659   6.170  0.1785 -0.6528 -2.8129
 7999TIP3    H245489   5.155   6.629   6.243  0.1879  2.8128 -1.1273
 8000TIP3   OH245490   3.041   3.511   5.983  0.6211  0.0032 -0.3132
 8000TIP3    H145491   2.994   3.593   5.997 -0.2381 -0.7444  1.5346
 8000TIP3    H245492   2.977   3.453   5.944  1.3339  0.2783 -1.9714
 8001TIP3   OH245493   1.496   4.022  16.454 -0.5160 -0.6738  0.7307
 8001TIP3    H145494   1.549   4.026  16.375  0.5503  1.1138  1.4688
 8001TIP3    H245495   1.452   4.107  16.458 -2.2035 -1.5121  1.0005
 8002TIP3   OH245496   0.389   2.836  10.276 -0.4543  0.2814  0.1252
 8002TIP3    H145497   0.327   2.765  10.260  0.6983 -0.6119 -0.5587
 8002TIP3    H245498   0.360   2.907  10.219 -1.2252  0.1226  0.3109
 8003TIP3   OH245499   4.717   3.529  11.206  0.0599 -0.0542  0.1546
 8003TIP3    H145500   4.648   3.594  11.219 -0.5642 -0.8618  1.0612
 8003TIP3    H245501   4.670   3.445  11.201  0.9697 -0.6367  0.9894
 8004TIP3   OH245502   3.089   5.382   4.835  0.3845 -0.2138  0.2195
 8004TIP3    H145503   3.135   5.452   4.883  0.5737 -0.5514  0.5335
 8004TIP3    H245504   3.056   5.425   4.757  0.1115  0.3369  0.6314
 8005TIP3   OH245505   3.399   3.536  12.473  0.3211 -0.1576  0.1503
 8005TIP3    H145506   3.326   3.580  12.516  0.2673  0.8517 -0.9283
 8005TIP3    H245507   3.365   3.451  12.447 -0.5136  0.3557 -0.4560
 8006TIP3   OH245508   0.810   3.891  12.847 -0.1889  0.0714 -0.3125
 8006TIP3    H145509   0.874   3.838  12.895 -2.4085 -0.8035  1.9357
 8006TIP3    H245510   0.743   3.829  12.821 -1.1137  1.2342 -0.7983
 8007TIP3   OH245511   2.786   5.750  11.458 -0.4128  0.5995 -0.3301
 8007TIP3    H145512   2.765   5.800  11.536 -1.0344  1.2309 -0.8920
 8007TIP3    H245513   2.759   5.660  11.479 -0.7113  0.7909  0.1199
 8008TIP3   OH245514   6.409   2.199  14.419 -0.1791  0.4369  0.0947
 8008TIP3    H145515   6.325   2.217  14.462 -0.2378 -0.3235  0.3161
 8008TIP3    H245516   6.470   2.183  14.491  0.2953  1.5186 -0.0472
 8009TIP3   OH245517   5.765   6.324   4.165 -0.1530 -0.1567  0.8928
 8009TIP3    H145518   5.823   6.298   4.093 -0.9452  1.5892 -0.4791
 8009TIP3    H245519   5.795   6.273   4.240  2.7991  0.2297  0.1254
 8010TIP3   OH245520   1.927   3.142  14.114 -0.3757  0.6010 -0.3504
 8010TIP3    H145521   2.001   3.107  14.063 -1.1964 -2.2743  0.2729
 8010TIP3    H245522   1.900   3.220  14.065  0.8658 -0.2504 -2.5561
 8011TIP3   OH245523   1.699   4.987  13.655  0.6189  0.0391  0.1627
 8011TIP3    H145524   1.633   5.034  13.604  1.4139  0.4449 -0.5238
 8011TIP3    H245525   1.682   4.895  13.637 -0.2066  0.1021  0.5727
 8012TIP3   OH245526   0.536   1.177  11.244  0.5002 -0.4162  0.0529
 8012TIP3    H145527   0.618   1.128  11.254  0.6786 -0.0653  0.3377
 8012TIP3    H245528   0.480   1.146  11.314  0.7717  0.0962  0.5036
 8013TIP3   OH245529   0.701   3.441   2.801  0.1687  0.0487  0.0019
 8013TIP3    H145530   0.618   3.482   2.826  0.8034  0.6347  1.2525
 8013TIP3    H245531   0.766   3.511   2.811  0.6394  0.0049 -2.3238
 8014TIP3   OH245532   5.190   1.178   2.994 -0.3178  0.4764 -0.0829
 8014TIP3    H145533   5.122   1.156   2.930 -0.0102  1.4154 -0.7623
 8014TIP3    H245534   5.238   1.097   3.007 -0.1915  0.3304 -1.2902
 8015TIP3   OH245535   4.107   5.271   1.928  0.0589 -0.3780  0.1955
 8015TIP3    H145536   4.035   5.214   1.898 -1.2950  2.3857 -2.3554
 8015TIP3    H245537   4.071   5.316   2.004  0.0262 -0.7829  0.4229
 8016TIP3   OH245538   3.309   6.727  12.241  0.3159  0.4831 -0.0624
 8016TIP3    H145539   3.297   6.770  12.326 -0.6884  0.6354 -0.2680
 8016TIP3    H245540   3.338   6.797  12.182  0.6615  0.4510  0.0661
 8017TIP3   OH245541   3.551   4.224  11.921 -0.3112 -0.3911 -0.0122
 8017TIP3    H145542   3.493   4.167  11.870 -1.1006  0.6047 -0.2465
 8017TIP3    H245543   3.626   4.168  11.941 -0.3858 -1.0857 -1.4901
 8018TIP3   OH245544   3.862   0.357  12.031  0.4490  0.0324 -0.3738
 8018TIP3    H145545   3.834   0.433  11.980  0.5821 -0.4356 -1.1507
 8018TIP3    H245546   3.956   0.368  12.041  0.4224  0.1261 -0.2117
 8019TIP3   OH245547   1.905   3.013   0.097  0.5857 -0.0093  0.0473
 8019TIP3    H145548   1.910   3.087   0.158 -1.6059 -0.2021  0.5593
 8019TIP3    H245549   1.836   2.958   0.133  1.7410 -2.0130 -0.6858
 8020TIP3   OH245550   6.536   6.794   0.878  0.5791  0.7883  0.5228
 8020TIP3    H145551   6.494   6.721   0.923  0.0024  1.8867  1.8363
 8020TIP3    H245552   6.627   6.767   0.867 -0.1040 -1.0491 -1.0953
 8021TIP3   OH245553   6.635   3.392   3.459 -0.0934  0.1201 -0.2304
 8021TIP3    H145554   6.552   3.432   3.485 -1.4715 -2.8775  0.3244
 8021TIP3    H245555   6.694   3.409   3.533 -1.6691 -1.6987  1.5464
 8022TIP3   OH245556   3.029   6.535  13.099  0.4577  0.0294 -0.6975
 8022TIP3    H145557   2.995   6.615  13.139  0.1596 -1.0668  1.3931
 8022TIP3    H245558   3.121   6.554  13.083  0.5241  0.6250  0.2876
 8023TIP3   OH245559   1.225   4.678   4.242 -0.6057  0.0758  0.2781
 8023TIP3    H145560   1.285   4.634   4.183 -2.5436  0.2006 -1.9132
 8023TIP3    H245561   1.198   4.611   4.305 -1.2340 -1.0865 -1.1897
 8024TIP3   OH245562   6.731   0.297  12.269 -0.1608  0.6306  0.7342
 8024TIP3    H145563   6.710   0.313  12.361 -0.3742  2.0477  0.4701
 8024TIP3    H245564   6.702   0.376  12.224  1.5231  0.6963 -0.3249
 8025TIP3   OH245565   1.780   5.472   5.495  0.0785  0.4639  0.5258
 8025TIP3    H145566   1.709   5.468   5.558  0.6097 -2.6669  1.0513
 8025TIP3    H245567   1.859   5.478   5.549  0.3732  1.2102  0.0262
 8026TIP3   OH245568   4.670   1.923   6.362 -0.5014 -0.5078  0.5040
 8026TIP3    H145569   4.670   1.833   6.394 -0.4522 -0.5917  0.2652
 8026TIP3    H245570   4.715   1.973   6.430  0.5889 -0.8668  0.0554
 8027TIP3   OH245571   0.196   4.582   2.612 -0.2999  0.1271 -0.0577
 8027TIP3    H145572   0.205   4.537   2.528  1.0558 -0.4393  0.3517
 8027TIP3    H245573   0.107   4.562   2.641 -0.1536 -1.2587 -0.4793
 8028TIP3   OH245574   2.315   3.406   1.051 -0.3185  0.1886 -0.1904
 8028TIP3    H145575   2.279   3.319   1.068  0.8581 -0.1378  0.7879
 8028TIP3    H245576   2.409   3.391   1.037 -0.1806  1.2379 -0.4971
 8029TIP3   OH245577   5.011   2.061   3.840 -0.4559 -0.0573  0.3217
 8029TIP3    H145578   5.008   2.029   3.930  0.7864 -2.6416 -0.4547
 8029TIP3    H245579   4.921   2.049   3.808 -1.1257  1.6766  1.3826
 8030TIP3   OH245580   5.402   5.603  13.381  0.4142 -0.1281  0.3401
 8030TIP3    H145581   5.395   5.527  13.324  0.6750 -1.6089  2.1781
 8030TIP3    H245582   5.496   5.611  13.397  0.2445 -0.8064  1.8598
 8031TIP3   OH245583   4.760   5.758   2.186 -0.0655 -0.3151 -0.0859
 8031TIP3    H145584   4.685   5.814   2.166 -2.9136 -3.6278  0.3165
 8031TIP3    H245585   4.827   5.785   2.123 -1.9416  2.1424 -1.2086
 8032TIP3   OH245586   3.411   6.359   4.594  0.4662  0.4290 -0.4137
 8032TIP3    H145587   3.473   6.312   4.538 -0.6196 -0.6692 -0.7468
 8032TIP3    H245588   3.334   6.302   4.596  0.5386  0.3007  2.4059
 8033TIP3   OH245589   6.664   6.206  12.245  0.0611  0.1146  0.5039
 8033TIP3    H145590   6.628   6.147  12.312  1.9462 -0.9826  0.6206
 8033TIP3    H245591   6.696   6.147  12.177 -1.4726  1.1958 -1.2584
 8034TIP3   OH245592   6.030   3.721   2.249  0.6607 -0.3710  0.5349
 8034TIP3    H145593   5.984   3.802   2.224  1.2555 -0.0599  0.4393
 8034TIP3    H245594   6.060   3.685   2.165  1.4579 -0.0505  0.6797
 8035TIP3   OH245595   2.098   2.728   5.980 -0.0763 -0.0376 -0.7324
 8035TIP3    H145596   2.161   2.799   5.992 -0.0700 -0.2402  0.6262
 8035TIP3    H245597   2.151   2.654   5.949  0.2797 -0.0519 -0.1123
 8036TIP3   OH245598   3.382   3.190  12.064 -0.1686  0.4534 -0.4161
 8036TIP3    H145599   3.421   3.203  11.977  0.3917  0.2548 -0.1962
 8036TIP3    H245600   3.360   3.278  12.093  2.0956  0.8322  0.3627
 8037TIP3   OH245601   1.194   5.199   5.788  0.2013  0.0724  0.0523
 8037TIP3    H145602   1.274   5.196   5.841  2.6260  2.2006 -3.1239
 8037TIP3    H245603   1.146   5.274   5.822 -1.6762 -2.2840  3.2220
 8038TIP3   OH245604   4.003   1.291  16.796 -0.9281 -0.3734  0.0634
 8038TIP3    H145605   4.078   1.350  16.793 -2.1551  1.2503 -0.7569
 8038TIP3    H245606   4.016   1.232  16.723 -0.2013 -0.4431  0.2409
 8039TIP3   OH245607   0.047   1.966  15.221 -0.2484  0.1387  0.6655
 8039TIP3    H145608   0.043   1.946  15.315  0.3143  0.1810  0.7021
 8039TIP3    H245609   0.126   1.921  15.190 -1.1092 -0.9341 -0.0528
 8040TIP3   OH245610   2.954   1.093  14.162 -0.0722  0.0462 -0.5443
 8040TIP3    H145611   2.956   1.113  14.068  0.2836 -1.9704 -0.9942
 8040TIP3    H245612   2.871   1.049  14.176  0.0330  0.0193  0.0278
 8041TIP3   OH245613   4.827   4.142   5.447 -0.2191 -0.0918  0.3017
 8041TIP3    H145614   4.779   4.193   5.512  2.0740  1.0871  1.1910
 8041TIP3    H245615   4.833   4.200   5.371  1.0504  0.4123  0.7549
 8042TIP3   OH245616   2.481   3.835  16.619 -0.0047  0.0652  0.2408
 8042TIP3    H145617   2.559   3.835  16.564 -0.0658 -2.5887 -0.0062
 8042TIP3    H245618   2.408   3.842  16.557 -0.0211  1.1659  0.3627
 8043TIP3   OH245619   5.531   0.980   1.789  0.0714  0.1449 -0.1804
 8043TIP3    H145620   5.620   0.988   1.823 -0.0909  0.5934  0.1505
 8043TIP3    H245621   5.478   1.033   1.848 -0.8612 -2.2464  1.2945
 8044TIP3   OH245622   0.698   3.792   0.610 -0.2947 -0.2402 -1.0049
 8044TIP3    H145623   0.726   3.777   0.700 -1.7420 -0.4665 -0.5581
 8044TIP3    H245624   0.778   3.788   0.558  0.3273 -2.0806  0.0190
 8045TIP3   OH245625   2.388   6.548  12.694  0.4176  0.5844 -0.3480
 8045TIP3    H145626   2.450   6.544  12.622  1.8517  2.0408  0.7428
 8045TIP3    H245627   2.322   6.611  12.666  0.7109  0.7941 -0.5721
 8046TIP3   OH245628   1.345   0.695  15.412  0.1276  0.2960 -0.0398
 8046TIP3    H145629   1.293   0.776  15.411 -2.0129 -0.9800  0.3856
 8046TIP3    H245630   1.333   0.659  15.324  0.8586  0.3007 -0.1438
 8047TIP3   OH245631   3.270   4.286   2.417 -0.2618  0.1907  0.2900
 8047TIP3    H145632   3.329   4.349   2.375  1.5745 -0.8422  1.1960
 8047TIP3    H245633   3.198   4.339   2.450  0.5480  1.6254 -0.1716
 8048TIP3   OH245634   6.202   6.065  16.987  0.1963 -0.1176 -0.1379
 8048TIP3    H145635   6.242   6.079  16.901  2.2989 -0.5535  0.7199
 8048TIP3    H245636   6.208   6.150  17.030  0.2229 -0.1996  0.0180
 8049TIP3   OH245637   2.989   5.085  11.936  0.1489  0.2908  0.0436
 8049TIP3    H145638   2.952   5.034  12.008 -0.2723  1.6224  0.8048
 8049TIP3    H245639   2.920   5.084  11.869  0.7182 -1.3291 -0.5750
 8050TIP3   OH245640   3.858   5.232  14.208  0.3132 -0.0726  0.1286
 8050TIP3    H145641   3.938   5.284  14.206 -1.1825  2.3399 -0.8234
 8050TIP3    H245642   3.851   5.203  14.299  1.1250  1.5737  0.7525
 8051TIP3   OH245643   3.534   2.664   4.101  0.0720  0.3172 -0.0111
 8051TIP3    H145644   3.537   2.747   4.149 -0.1911  1.0806 -1.2732
 8051TIP3    H245645   3.462   2.674   4.039 -2.0941 -2.0837  1.9073
 8052TIP3   OH245646   1.862   5.292   4.371 -0.1027 -0.5407 -0.1351
 8052TIP3    H145647   1.878   5.386   4.374 -0.7977 -0.4442  0.9608
 8052TIP3    H245648   1.900   5.258   4.452 -1.3218 -0.9627  0.2700
 8053TIP3   OH245649   3.987   5.719  10.979 -0.5886 -0.1588 -0.2941
 8053TIP3    H145650   4.082   5.732  10.971 -0.6538 -0.2418 -1.3329
 8053TIP3    H245651   3.968   5.642  10.925 -0.8652 -1.9542  2.2002
 8054TIP3   OH245652   4.861   5.493  13.502 -0.8877  0.5789  0.1962
 8054TIP3    H145653   4.767   5.502  13.488 -1.0551 -0.4762  0.5136
 8054TIP3    H245654   4.869   5.446  13.586 -0.1313 -0.6537 -0.5317
 8055TIP3   OH245655   1.204   4.451   4.406 -0.1479 -0.1748  0.0048
 8055TIP3    H145656   1.139   4.407   4.461  0.0516 -0.4621  0.0091
 8055TIP3    H245657   1.271   4.482   4.468  0.4420 -1.1240 -0.1413
 8056TIP3   OH245658   4.061   6.823   4.195 -0.3578 -0.5528 -0.0427
 8056TIP3    H145659   4.033   6.735   4.171  0.1404 -0.3621 -1.4168
 8056TIP3    H245660   4.085   6.816   4.288  1.2227 -2.2889 -0.5098
 8057TIP3   OH245661   5.788   2.716  16.674 -0.0642  0.2382  0.4045
 8057TIP3    H145662   5.722   2.726  16.606 -1.1228  0.1923  1.3798
 8057TIP3    H245663   5.778   2.793  16.729  1.8959  1.1136 -0.3705
 8058TIP3   OH245664   2.022   3.064   4.393  0.0369  0.1755  0.3057
 8058TIP3    H145665   1.979   3.059   4.307  0.9319  0.6664 -0.1762
 8058TIP3    H245666   2.006   3.153   4.423 -0.5733 -0.0943  0.8299
 8059TIP3   OH245667   3.539   3.181  16.240 -0.1635  0.1635 -0.1700
 8059TIP3    H145668   3.487   3.101  16.248  1.4430 -1.0149 -0.9804
 8059TIP3    H245669   3.509   3.236  16.312 -2.3351 -0.5406 -0.4670
 8060TIP3   OH245670   5.484   1.238   2.906  0.0991 -0.5303 -0.1182
 8060TIP3    H145671   5.479   1.269   2.815  0.5750 -0.8635 -0.2661
 8060TIP3    H245672   5.401   1.264   2.945 -0.0010 -0.1438 -0.5748
 8061TIP3   OH245673   4.097   6.846   3.070  0.2461 -0.1016 -0.2075
 8061TIP3    H145674   4.049   6.924   3.042 -1.1395 -0.3552  1.2715
 8061TIP3    H245675   4.124   6.865   3.160 -0.7179 -1.5317  0.4418
 8062TIP3   OH245676   2.875   2.465  15.529  0.3037 -0.0975 -0.9472
 8062TIP3    H145677   2.844   2.549  15.562 -1.0200 -0.4276 -1.2690
 8062TIP3    H245678   2.802   2.431  15.477  0.5368 -1.7470 -0.2784
 8063TIP3   OH245679   3.230   3.876   4.010 -0.4618  0.1158  0.3984
 8063TIP3    H145680   3.224   3.855   3.917 -0.1586  2.4010 -0.2123
 8063TIP3    H245681   3.221   3.792   4.055 -1.3114 -0.9602 -1.6545
 8064TIP3   OH245682   3.059   5.931   2.710  0.3327 -0.0767  0.7314
 8064TIP3    H145683   2.989   5.970   2.657  0.9226  2.0320  1.3982
 8064TIP3    H245684   3.027   5.935   2.800  1.4631  1.4724  1.1196
 8065TIP3   OH245685   2.526   0.045   1.921  0.0184 -0.4046 -0.4931
 8065TIP3    H145686   2.598  -0.018   1.928 -2.2483 -2.9323  3.4887
 8065TIP3    H245687   2.521   0.086   2.007 -4.0722 -1.4507 -0.0365
 8066TIP3   OH245688   0.469   5.084  11.764  0.5293  0.1714 -0.1473
 8066TIP3    H145689   0.513   5.027  11.701 -0.4454 -1.6535  0.7139
 8066TIP3    H245690   0.400   5.127  11.714  0.6096 -0.2227 -0.6033
 8067TIP3   OH245691   4.354   4.801  12.917 -0.2279  0.1836 -0.0382
 8067TIP3    H145692   4.333   4.742  12.844  0.7307 -0.9248  0.5554
 8067TIP3    H245693   4.269   4.821  12.956 -0.4832 -2.0733  0.6822
 8068TIP3   OH245694   5.479   0.489   0.261  0.0331  0.0921  0.5030
 8068TIP3    H145695   5.541   0.562   0.259 -0.3319  0.4460  1.6764
 8068TIP3    H245696   5.526   0.419   0.306  0.3538 -0.3965 -0.5497
 8069TIP3   OH245697   2.078   4.627   4.373  0.1914 -0.7441  0.2746
 8069TIP3    H145698   2.029   4.676   4.307  0.7907 -1.0900 -0.4454
 8069TIP3    H245699   2.075   4.682   4.451  0.8565  0.4674 -0.5152
 8070TIP3   OH245700   3.881   2.009  15.206 -0.2709  0.4662 -0.7149
 8070TIP3    H145701   3.856   2.078  15.268 -1.0648  1.3106 -1.9422
 8070TIP3    H245702   3.887   1.930  15.260  1.5623  1.6008  0.9031
 8071TIP3   OH245703   2.199   0.232   6.151  0.2095 -0.3274 -0.2006
 8071TIP3    H145704   2.146   0.188   6.085  0.5175  0.5588 -1.0451
 8071TIP3    H245705   2.181   0.325   6.140  1.7431 -0.0195 -0.3409
 8072TIP3   OH245706   2.466   1.009  16.156  0.3110 -0.0124 -1.0890
 8072TIP3    H145707   2.542   1.048  16.112  0.9594 -0.6443 -0.5402
 8072TIP3    H245708   2.485   1.017  16.249 -0.4386  0.0858 -0.9355
 8073TIP3   OH245709   4.806   2.364  15.840 -0.2758  0.3528 -0.2186
 8073TIP3    H145710   4.892   2.377  15.880 -2.0007  2.7660  3.1853
 8073TIP3    H245711   4.751   2.332  15.912 -2.5127 -0.1120 -2.0137
 8074TIP3   OH245712   5.817   6.736  11.162  0.0243  0.0316 -0.5408
 8074TIP3    H145713   5.860   6.654  11.139 -0.2629 -0.0328 -0.8575
 8074TIP3    H245714   5.812   6.785  11.080 -0.2723  0.1475 -0.4544
 8075TIP3   OH245715   3.048   6.148   4.394 -0.1299 -0.0201  0.1859
 8075TIP3    H145716   3.070   6.132   4.302 -1.5423  1.4395 -0.4644
 8075TIP3    H245717   3.014   6.064   4.426  1.6457 -0.9178 -0.1991
 8076TIP3   OH245718   3.517   1.117  10.404  0.4656 -0.0157 -0.2885
 8076TIP3    H145719   3.586   1.128  10.340  0.8730 -0.4078  0.0720
 8076TIP3    H245720   3.535   1.031  10.444 -0.6793 -0.4853 -0.7385
 8077TIP3   OH245721   1.155   0.374  13.318  0.2219 -0.0893 -0.3382
 8077TIP3    H145722   1.238   0.372  13.367  0.5865 -0.1717 -0.9523
 8077TIP3    H245723   1.179   0.406  13.231 -0.7183  1.9300  0.0841
 8078TIP3   OH245724   0.386   3.404  14.432  0.2867  0.0149 -0.0893
 8078TIP3    H145725   0.392   3.310  14.449  1.4904  0.2840  1.1856
 8078TIP3    H245726   0.434   3.417  14.351 -1.2002 -0.6502 -1.1099
 8079TIP3   OH245727   0.127   3.912  14.206 -0.0765  0.1931  0.2210
 8079TIP3    H145728   0.159   3.947  14.289  1.2728 -0.4929  0.0169
 8079TIP3    H245729   0.076   3.984  14.168  1.1872  1.3354  0.5959
 8080TIP3   OH245730   5.040   3.705  15.382 -0.4825 -0.4246 -0.2036
 8080TIP3    H145731   5.134   3.695  15.398 -0.4698 -2.2238 -1.1759
 8080TIP3    H245732   5.021   3.646  15.309 -2.1341  0.9511 -0.9694
 8081TIP3   OH245733   4.411   5.322   4.711  0.5366 -0.2520  0.0200
 8081TIP3    H145734   4.442   5.353   4.796  0.3179 -1.2915  0.4906
 8081TIP3    H245735   4.325   5.363   4.700  0.2452 -0.6930  0.6405
 8082TIP3   OH245736   2.603   1.039  16.744  0.2325 -0.2934  0.0353
 8082TIP3    H145737   2.632   0.960  16.699  1.7086  0.9555 -1.3261
 8082TIP3    H245738   2.683   1.077  16.780 -0.4003  0.7469  0.3883
 8083TIP3   OH245739   0.872   1.300   4.687 -0.1494 -0.1676  0.1807
 8083TIP3    H145740   0.899   1.351   4.612 -0.9380 -1.1813 -0.8280
 8083TIP3    H245741   0.833   1.221   4.650 -2.2534  0.1236  1.5739
 8084TIP3   OH245742   1.679   6.771   6.595  0.3508  0.4666  0.9068
 8084TIP3    H145743   1.685   6.709   6.668  0.2821 -2.4216 -1.3932
 8084TIP3    H245744   1.624   6.842   6.629  0.3429 -0.7052  3.6375
 8085TIP3   OH245745   3.286   2.114  16.635 -0.0556 -0.0956  0.2210
 8085TIP3    H145746   3.337   2.075  16.707 -0.6138  0.4411  0.9244
 8085TIP3    H245747   3.196   2.116  16.667 -0.2677  0.4178 -0.3811
 8086TIP3   OH245748   4.590   6.532  10.963 -0.1814 -0.4822 -0.2417
 8086TIP3    H145749   4.566   6.621  10.938  2.2576  0.4366  0.4170
 8086TIP3    H245750   4.548   6.518  11.048 -0.8785 -0.1375 -0.5185
 8087TIP3   OH245751   3.822   0.266  14.505  0.7122 -0.3655  0.0153
 8087TIP3    H145752   3.884   0.311  14.562  0.8168 -0.7810  0.2286
 8087TIP3    H245753   3.875   0.208  14.451  0.7089  0.6559 -1.1186
 8088TIP3   OH245754   1.746   5.177  16.054 -0.2540 -0.9082  0.1640
 8088TIP3    H145755   1.788   5.155  16.137  0.9090 -0.9969 -0.4333
 8088TIP3    H245756   1.798   5.133  15.988 -0.6556 -0.1420 -0.6858
 8089TIP3   OH245757   5.914   3.828  15.236  0.4602 -0.0849  0.2398
 8089TIP3    H145758   5.883   3.816  15.326 -1.3818  0.1824 -0.3198
 8089TIP3    H245759   5.949   3.917  15.234  1.2037 -0.3544  0.8663
 8090TIP3   OH245760   6.062   5.141   3.623 -0.0575 -0.0098 -0.2184
 8090TIP3    H145761   6.075   5.174   3.712 -0.6350  3.4318 -1.2678
 8090TIP3    H245762   5.967   5.134   3.614  0.0129 -3.0895  0.1978
 8091TIP3   OH245763   4.073   6.616   5.140  0.6877  0.0526  0.4359
 8091TIP3    H145764   4.151   6.582   5.098  1.2683  1.0706  0.6618
 8091TIP3    H245765   4.104   6.656   5.221  0.0299  1.0308  0.2258
 8092TIP3   OH245766   1.951   3.946   2.690 -0.2741 -0.4940  0.7706
 8092TIP3    H145767   1.976   3.903   2.608 -1.6569 -2.2286  1.1849
 8092TIP3    H245768   1.921   4.033   2.663 -1.5347 -1.3267 -0.7400
 8093TIP3   OH245769   5.812   0.355   3.307  0.2746 -0.2456 -0.6810
 8093TIP3    H145770   5.795   0.262   3.326 -1.1189  0.2577  0.8021
 8093TIP3    H245771   5.790   0.364   3.214  1.2211 -1.5466 -1.0717
 8094TIP3   OH245772   3.298   6.267   5.696 -0.2152  0.0781  0.1221
 8094TIP3    H145773   3.313   6.190   5.641 -0.1576  0.7486 -0.8233
 8094TIP3    H245774   3.366   6.261   5.764  0.6726 -0.0000 -0.7404
 8095TIP3   OH245775   1.183   1.287  11.443  0.0091  0.0390 -0.3324
 8095TIP3    H145776   1.178   1.365  11.387 -1.5509 -1.5804 -2.6579
 8095TIP3    H245777   1.276   1.275  11.459  0.3737  1.5919 -1.0812
 8096TIP3   OH245778   0.509   1.889  12.115  0.9975  0.6901 -0.0832
 8096TIP3    H145779   0.587   1.944  12.127  1.9512 -0.5130 -0.5562
 8096TIP3    H245780   0.530   1.808  12.161 -0.6919  0.9580  1.2298
 8097TIP3   OH245781   5.039   1.965   5.550 -0.3178 -0.1464 -0.2173
 8097TIP3    H145782   5.022   1.908   5.626 -0.6261 -1.2790 -1.1042
 8097TIP3    H245783   5.102   1.916   5.498  0.6988  1.1011 -0.1861
 8098TIP3   OH245784   6.013   1.484  12.323  0.1673 -0.0483 -0.5340
 8098TIP3    H145785   5.951   1.421  12.358  0.0117 -0.2131 -1.1018
 8098TIP3    H245786   5.959   1.547  12.276  0.4831 -0.6118 -1.6717
 8099TIP3   OH245787   5.867   3.162   2.613 -0.8812 -0.0174 -0.6398
 8099TIP3    H145788   5.915   3.109   2.550 -1.0120 -1.5742  0.5223
 8099TIP3    H245789   5.816   3.099   2.664 -0.8378  1.1886  0.9710
 8100TIP3   OH245790   3.409   3.738  14.721  0.4435 -0.5112  0.1254
 8100TIP3    H145791   3.427   3.644  14.723 -0.8819 -0.7880  0.3912
 8100TIP3    H245792   3.398   3.758  14.628 -0.0640 -0.8009  0.1167
 8101TIP3   OH245793   2.088   5.950  15.267 -0.2955 -0.2650 -0.1350
 8101TIP3    H145794   2.066   6.016  15.332 -0.9054 -0.5145 -0.0889
 8101TIP3    H245795   2.083   5.997  15.183 -1.3552 -0.3985 -0.1583
 8102TIP3   OH245796   0.581   4.869  14.744 -0.0674  0.4170 -0.3202
 8102TIP3    H145797   0.643   4.830  14.805  1.7209  3.3999 -0.0287
 8102TIP3    H245798   0.514   4.909  14.799  0.5904  1.5990 -0.3547
 8103TIP3   OH245799   1.961   2.871  15.783  0.0551 -0.6224  0.3133
 8103TIP3    H145800   1.971   2.821  15.702 -0.3935  1.5343 -1.1636
 8103TIP3    H245801   1.869   2.898  15.783 -0.0221 -0.8014  1.7072
 8104TIP3   OH245802   2.468   1.857   5.598  0.0718 -0.0567 -0.3458
 8104TIP3    H145803   2.433   1.929   5.545 -1.6432  0.2717  1.1271
 8104TIP3    H245804   2.563   1.863   5.586 -0.2034  0.3127 -2.9002
 8105TIP3   OH245805   1.837   4.238   0.312  0.5424 -0.2995  0.2321
 8105TIP3    H145806   1.850   4.143   0.309 -0.0709 -0.3874  0.2452
 8105TIP3    H245807   1.746   4.251   0.285  0.3673  0.2254  1.0533
 8106TIP3   OH245808   5.639   5.240  15.652  0.1605 -0.6907 -0.5081
 8106TIP3    H145809   5.734   5.244  15.658  0.0945 -0.5376  0.5413
 8106TIP3    H245810   5.608   5.270  15.737 -0.7888 -2.2458 -0.2593
 8107TIP3   OH245811   2.378   2.107   4.801 -0.1591 -0.0793  0.8778
 8107TIP3    H145812   2.445   2.125   4.867 -0.4943 -3.3031  2.2378
 8107TIP3    H245813   2.424   2.058   4.733 -0.8225 -1.1137  1.1586
 8108TIP3   OH245814   1.695   2.060  15.061  0.0286 -0.0302 -0.6083
 8108TIP3    H145815   1.763   2.112  15.104  1.0144 -1.6766 -0.1026
 8108TIP3    H245816   1.704   1.973  15.099 -1.3527 -0.6707 -1.6816
 8109TIP3   OH245817   6.171   6.406   5.536  0.0373  0.1154 -0.1150
 8109TIP3    H145818   6.194   6.412   5.628 -1.1568 -1.4879  0.3294
 8109TIP3    H245819   6.081   6.440   5.532 -0.1455 -0.4001 -0.5594
 8110TIP3   OH245820   6.766   5.617  17.006  0.2736  0.1710 -0.0996
 8110TIP3    H145821   6.740   5.708  17.021  1.4855  0.6716 -0.8487
 8110TIP3    H245822   6.776   5.581  17.094 -3.0553 -0.1583  0.2561
 8111TIP3   OH245823   6.786   6.635   4.799  0.1539  0.2873  0.3735
 8111TIP3    H145824   6.788   6.725   4.831 -0.0139 -0.0137  1.2686
 8111TIP3    H245825   6.696   6.607   4.815  0.2067 -0.0368  0.0979
 8112TIP3   OH245826   1.684   5.635  15.135  0.6500  0.0046 -0.2204
 8112TIP3    H145827   1.746   5.705  15.116  0.4160  0.2660 -0.0266
 8112TIP3    H245828   1.691   5.621  15.229  0.6923 -0.2326 -0.2568
 8113TIP3   OH245829   4.929   5.195  13.287 -0.5230 -0.0825  0.0396
 8113TIP3    H145830   4.852   5.176  13.340 -1.5116 -1.9664 -1.9367
 8113TIP3    H245831   4.895   5.245  13.213 -0.1708 -2.0724 -1.5524
 8114TIP3   OH245832   1.670   6.486  16.844 -0.3217 -0.6466 -0.0939
 8114TIP3    H145833   1.639   6.572  16.813  2.9777  0.7411  0.0568
 8114TIP3    H245834   1.759   6.502  16.874  1.2837 -4.5907 -2.0678
 8115TIP3   OH245835   3.255   4.325   1.668  0.0068 -0.0954  0.0808
 8115TIP3    H145836   3.297   4.292   1.748  0.0069 -1.1144 -0.3245
 8115TIP3    H245837   3.161   4.319   1.687  0.0103  0.6151  0.3664
 8116TIP3   OH245838   5.444   6.047  13.236  0.1232  0.0924  0.4498
 8116TIP3    H145839   5.376   6.000  13.285 -0.4610 -0.6800 -1.0423
 8116TIP3    H245840   5.517   5.985  13.233  0.1685  0.1511  0.3643
 8117TIP3   OH245841   2.842   2.040   2.387 -0.4500  0.4294 -0.3730
 8117TIP3    H145842   2.922   1.995   2.357 -0.8563 -0.8323  0.3868
 8117TIP3    H245843   2.777   1.971   2.397 -0.7174  0.9382  2.1602
 8118TIP3   OH245844   4.464   1.929  12.707 -0.0599  0.1261  0.9280
 8118TIP3    H145845   4.523   1.907  12.634  1.4119 -0.8045  2.3383
 8118TIP3    H245846   4.389   1.871  12.696 -1.0976  1.7004 -1.2130
 8119TIP3   OH245847   1.883   0.588   6.079 -0.0749 -0.5774  0.5306
 8119TIP3    H145848   1.915   0.532   6.149 -1.0505 -0.4125  1.1385
 8119TIP3    H245849   1.876   0.675   6.120 -2.3510 -0.8291  0.8056
 8120TIP3   OH245850   3.531   1.032   2.131  0.5335 -0.1924  0.8457
 8120TIP3    H145851   3.507   0.940   2.138  0.1910 -0.2041 -0.2642
 8120TIP3    H245852   3.557   1.043   2.039 -0.7316  1.1173  0.6151
 8121TIP3   OH245853   2.541   6.512  14.381  0.0130 -0.1072 -0.2837
 8121TIP3    H145854   2.566   6.442  14.441  0.2386 -1.5196 -1.9432
 8121TIP3    H245855   2.470   6.474  14.328 -0.5576  1.2718 -0.5484
 8122TIP3   OH245856   0.741   1.082   2.756  0.2658 -0.1177 -0.0472
 8122TIP3    H145857   0.726   1.078   2.661 -1.1709 -0.8734  0.1897
 8122TIP3    H245858   0.709   1.168   2.781 -0.9565 -0.5750 -0.0016
 8123TIP3   OH245859   1.674   1.265  11.371  0.3797 -0.9635 -0.2803
 8123TIP3    H145860   1.731   1.231  11.302 -0.2089 -0.5696 -0.9776
 8123TIP3    H245861   1.668   1.194  11.434  1.2166 -1.1993 -0.4643
 8124TIP3   OH245862   0.312   1.709  14.389 -0.2159 -0.3037 -0.0191
 8124TIP3    H145863   0.407   1.718  14.394 -0.1376  1.8109 -2.4803
 8124TIP3    H245864   0.279   1.765  14.459  0.3629 -0.9022  0.7348
 8125TIP3   OH245865   6.514   6.078  16.857  0.1613 -0.0355  0.4133
 8125TIP3    H145866   6.462   6.084  16.938 -0.2921 -0.6390  0.1790
 8125TIP3    H245867   6.493   6.157  16.809  1.8090  1.2360  1.6639
 8126TIP3   OH245868   3.900   0.803   4.632 -0.7514 -0.0292 -0.5026
 8126TIP3    H145869   3.847   0.807   4.553 -0.5844 -1.5874 -0.7220
 8126TIP3    H245870   3.851   0.746   4.691 -0.7121  0.8497  0.4200
 8127TIP3   OH245871   2.153   4.366  10.278  0.1484  0.8047  0.2012
 8127TIP3    H145872   2.090   4.307  10.320 -1.3306  1.3938 -1.0753
 8127TIP3    H245873   2.201   4.405  10.351 -0.7502  0.1058  1.2160
 8128TIP3   OH245874   3.657   3.474   4.412 -0.6625 -0.7750 -0.4406
 8128TIP3    H145875   3.629   3.533   4.341  0.2953  0.2860  0.0362
 8128TIP3    H245876   3.588   3.481   4.478 -0.5618 -0.1835 -0.3940
 8129TIP3   OH245877   4.482   2.768   4.853 -0.1906  0.0663  0.1138
 8129TIP3    H145878   4.466   2.842   4.794  1.2444  0.4666  0.1815
 8129TIP3    H245879   4.412   2.706   4.833 -1.3097  1.3525 -0.0827
 8130TIP3   OH245880   6.603   5.248  13.580  0.2117 -0.9669  0.0596
 8130TIP3    H145881   6.532   5.185  13.596  0.1286 -0.6166  1.1987
 8130TIP3    H245882   6.628   5.277  13.668  0.6031  0.1979 -0.4264
 8131TIP3   OH245883   3.343   5.732  13.415  0.0218 -0.3918 -0.1219
 8131TIP3    H145884   3.406   5.666  13.387  2.3388  1.8840 -0.6527
 8131TIP3    H245885   3.257   5.694  13.394  1.2373 -2.8957 -1.0054
 8132TIP3   OH245886   1.941   3.443  16.474  0.3955 -0.0752  0.2839
 8132TIP3    H145887   1.990   3.373  16.431  1.9149  0.0561  1.7302
 8132TIP3    H245888   1.997   3.520  16.467 -0.4889  0.5806  0.2543
 8133TIP3   OH245889   6.328   2.407  13.545 -0.0428 -0.4683 -0.8219
 8133TIP3    H145890   6.397   2.354  13.585  0.4685  1.0030  0.3400
 8133TIP3    H245891   6.247   2.365  13.572  0.2980  0.3092  1.6311
 8134TIP3   OH245892   6.343   0.783   6.464  0.2139  0.5040 -0.2316
 8134TIP3    H145893   6.295   0.860   6.497  0.7858  1.4793 -1.5648
 8134TIP3    H245894   6.403   0.819   6.399  0.3919 -1.1146 -0.9992
 8135TIP3   OH245895   0.670   3.103  14.111 -0.5165  0.6662 -0.1880
 8135TIP3    H145896   0.654   3.150  14.193 -0.2538 -0.2397  0.3960
 8135TIP3    H245897   0.662   3.170  14.043 -0.3065  1.5174  0.6076
 8136TIP3   OH245898   1.167   6.709  16.142  0.0238 -0.7620 -0.4294
 8136TIP3    H145899   1.117   6.780  16.102  0.4631 -0.3725 -0.3026
 8136TIP3    H245900   1.101   6.645  16.170 -0.5781  0.5792  1.4327
 8137TIP3   OH245901   6.100   3.052  16.114 -0.6341  0.2914  0.0734
 8137TIP3    H145902   6.137   3.057  16.202 -0.5868 -1.1036  0.1538
 8137TIP3    H245903   6.175   3.031  16.058 -0.8454  0.1353 -0.1476
 8138TIP3   OH245904   3.666   3.313   6.371 -0.4213 -0.1711  0.2876
 8138TIP3    H145905   3.760   3.301   6.385 -0.0694  0.4199 -1.3229
 8138TIP3    H245906   3.631   3.328   6.458  0.8685 -1.0303  1.0043
 8139TIP3   OH245907   4.475   2.141   1.030  0.3662  0.0007 -0.3430
 8139TIP3    H145908   4.416   2.097   0.970  2.5092 -0.3953 -2.3094
 8139TIP3    H245909   4.467   2.092   1.112 -0.6406 -1.1745 -1.1057
 8140TIP3   OH245910   1.964   0.885  15.835 -0.3392 -0.0415  0.2644
 8140TIP3    H145911   2.039   0.827  15.831 -0.4772 -0.1550 -1.9262
 8140TIP3    H245912   1.994   0.966  15.794 -0.8805  0.5568  1.0209
 8141TIP3   OH245913   4.288   4.089   3.663  0.0068  0.6404 -0.2260
 8141TIP3    H145914   4.195   4.082   3.642  0.0905 -0.1605 -0.3547
 8141TIP3    H245915   4.305   4.183   3.664 -0.7769  0.7909 -0.3101
 8142TIP3   OH245916   0.146   1.839   0.076 -0.1188  0.6609  0.3139
 8142TIP3    H145917   0.172   1.909   0.136 -2.3344  2.1265 -0.3259
 8142TIP3    H245918   0.084   1.786   0.127  0.6424 -0.1639  0.4066
 8143TIP3   OH245919   1.814   1.827   3.913  0.4655  0.3424  0.2356
 8143TIP3    H145920   1.821   1.898   3.977 -0.4292  0.0781  0.6354
 8143TIP3    H245921   1.799   1.749   3.966  0.7096 -0.0363 -0.2472
 8144TIP3   OH245922   2.660   4.396  15.085 -0.0721 -0.5585 -0.3540
 8144TIP3    H145923   2.662   4.329  15.017  1.9621 -0.9260 -0.0075
 8144TIP3    H245924   2.737   4.377  15.140  0.2329  1.6750  0.1156
 8145TIP3   OH245925   6.003   2.539   2.109  0.5962 -0.2260  0.5161
 8145TIP3    H145926   5.926   2.574   2.066  1.3769  0.8283 -0.0823
 8145TIP3    H245927   6.030   2.464   2.055  0.4729 -0.0798  0.2514
 8146TIP3   OH245928   3.532   1.546   2.782  0.2602  0.0191  0.4375
 8146TIP3    H145929   3.602   1.563   2.718  0.2962 -1.9549 -0.1353
 8146TIP3    H245930   3.454   1.582   2.742  0.5532  0.1295 -0.0474
 8147TIP3   OH245931   0.047   1.676   0.684 -0.3721 -0.9137 -0.3971
 8147TIP3    H145932   0.014   1.755   0.642  0.7039 -1.4224 -2.3693
 8147TIP3    H245933   0.009   1.604   0.633 -0.5952 -1.6463  0.7720
 8148TIP3   OH245934   5.457   2.951   4.579 -0.2376 -0.1079 -0.1100
 8148TIP3    H145935   5.443   2.922   4.489  1.4478 -0.5177 -0.2664
 8148TIP3    H245936   5.462   2.870   4.630 -2.4631  0.1355  0.6124
 8149TIP3   OH245937   2.293   6.603   5.583  0.2386 -0.2180  0.1732
 8149TIP3    H145938   2.265   6.621   5.672  0.5857  0.9712  0.0610
 8149TIP3    H245939   2.338   6.682   5.555  1.5493 -1.1652 -0.5146
 8150TIP3   OH245940   5.731   1.333  10.439  0.1665 -0.2455 -0.4119
 8150TIP3    H145941   5.824   1.330  10.462  0.4781 -0.5081 -1.6216
 8150TIP3    H245942   5.724   1.278  10.360 -1.1147 -0.6797 -0.0263
 8151TIP3   OH245943   6.386   0.590   6.275 -0.5076  0.2242 -0.1987
 8151TIP3    H145944   6.354   0.645   6.347  0.0262 -0.7900  0.8602
 8151TIP3    H245945   6.306   0.551   6.238 -0.7503  0.1844  0.3442
 8152TIP3   OH245946   1.543   4.186  15.766 -0.3355  0.1696  0.4033
 8152TIP3    H145947   1.626   4.173  15.721  0.1161  1.5122  0.7914
 8152TIP3    H245948   1.536   4.112  15.826  2.1856  1.5915  2.7026
 8153TIP3   OH245949   3.246   4.842  16.655 -0.1966 -0.5450  0.2483
 8153TIP3    H145950   3.331   4.864  16.691 -0.4588 -0.6679  0.9539
 8153TIP3    H245951   3.244   4.746  16.654 -0.2612 -0.5427  0.0784
 8154TIP3   OH245952   3.147   4.136   1.214  0.0940  0.0513 -0.2316
 8154TIP3    H145953   3.219   4.073   1.203 -0.5101 -0.8180  0.6080
 8154TIP3    H245954   3.112   4.147   1.125 -0.4736 -1.6638 -0.2691
 8155TIP3   OH245955   3.974   4.736  14.247 -0.2096  0.3852  0.2372
 8155TIP3    H145956   3.960   4.678  14.172  1.5955  0.0182  0.1396
 8155TIP3    H245957   3.941   4.686  14.322  1.8274 -1.1039  0.2366
 8156TIP3   OH245958   4.198   3.126   5.633  0.8790  0.2658  0.5436
 8156TIP3    H145959   4.282   3.098   5.597  0.3218  1.3797 -1.8955
 8156TIP3    H245960   4.218   3.208   5.678  1.1694  0.3835  0.2094
 8157TIP3   OH245961   2.015   5.436  14.117 -0.3460 -0.6574  0.2045
 8157TIP3    H145962   1.936   5.459  14.069 -1.0434  0.2939  1.7218
 8157TIP3    H245963   1.986   5.425  14.207  1.2628 -0.1289  0.8309
 8158TIP3   OH245964   2.006   1.160  17.002  0.0296 -0.3418  0.2513
 8158TIP3    H145965   2.094   1.124  17.014 -0.8134 -2.2865  1.0852
 8158TIP3    H245966   1.958   1.092  16.955 -0.4790  1.6289 -2.2878
 8159TIP3   OH245967   5.817   0.918  14.305 -0.2377  0.4218  0.6295
 8159TIP3    H145968   5.902   0.953  14.331 -0.4809  0.3805  1.5079
 8159TIP3    H245969   5.809   0.837  14.355  0.6743 -1.3922 -1.9614
 8160TIP3   OH245970   5.652   1.056  11.208 -0.3612  0.0823 -0.2834
 8160TIP3    H145971   5.566   1.014  11.207 -0.1040 -0.6217  1.9254
 8160TIP3    H245972   5.684   1.045  11.119 -1.3541 -2.2949 -0.4315
 8161TIP3   OH245973   5.344   1.461  10.779 -0.1742 -0.1654  0.1376
 8161TIP3    H145974   5.420   1.433  10.729 -0.5753  1.3448 -1.4284
 8161TIP3    H245975   5.345   1.556  10.773 -1.6014 -0.0636  0.9774
 8162TIP3   OH245976   1.528   6.801  16.748 -0.5171 -0.7193 -0.2556
 8162TIP3    H145977   1.556   6.862  16.817  0.3588  0.2843 -1.4578
 8162TIP3    H245978   1.494   6.726  16.796 -0.5797  0.2373  1.2805
 8163TIP3   OH245979   0.769   1.384   3.610  0.0455 -0.0250  0.5211
 8163TIP3    H145980   0.687   1.381   3.560  0.5514 -0.5465 -0.3006
 8163TIP3    H245981   0.779   1.477   3.633  0.2121  0.3968 -1.0892
 8164TIP3   OH245982   0.449   5.111  12.583 -0.2159  0.5733  0.5084
 8164TIP3    H145983   0.488   5.101  12.670 -0.7961  1.3318  0.8724
 8164TIP3    H245984   0.367   5.061  12.588  1.6917 -3.0203 -1.0013
 8165TIP3   OH245985   4.600   3.736  10.946 -0.1981  0.2579 -0.4062
 8165TIP3    H145986   4.660   3.744  10.872  1.8098 -0.0247  1.0898
 8165TIP3    H245987   4.643   3.786  11.016  0.4946 -3.3007  1.9797
 8166TIP3   OH245988   6.768   1.389  14.951 -0.1855  0.0261  0.1635
 8166TIP3    H145989   6.781   1.481  14.931 -1.3448 -0.0058 -0.8505
 8166TIP3    H245990   6.854   1.349  14.939  0.1099  0.8019 -0.3663
 8167TIP3   OH245991   2.430   3.843  12.262 -0.2506  0.4358 -0.0978
 8167TIP3    H145992   2.423   3.919  12.205  0.2608  2.5902  2.4976
 8167TIP3    H245993   2.344   3.837  12.304  0.5949  1.5804  1.9439
 8168TIP3   OH245994   5.204   1.845  16.934 -0.4771 -0.1213 -0.3624
 8168TIP3    H145995   5.222   1.878  17.023 -1.9745 -1.5910  0.5402
 8168TIP3    H245996   5.291   1.840  16.893  0.1638  1.3353  0.7228
 8169TIP3   OH245997   3.041   3.065  10.740 -0.5793  0.4068 -0.2390
 8169TIP3    H145998   3.017   2.995  10.801 -0.9553  0.3084 -0.4979
 8169TIP3    H245999   3.005   3.145  10.779 -0.0494  0.4811  0.1160
 8170TIP3   OH246000   0.208   6.465   4.493 -0.5677  0.0707 -0.2024
 8170TIP3    H146001   0.250   6.447   4.578  0.5982  1.3310 -0.4703
 8170TIP3    H246002   0.195   6.560   4.493  0.1019  0.1947 -1.7073
 8171TIP3   OH246003   3.774   0.712  13.885 -0.5139 -0.0478 -0.0677
 8171TIP3    H146004   3.707   0.646  13.868 -0.6285  0.3656 -1.2921
 8171TIP3    H246005   3.800   0.743  13.799 -1.1646  2.1827  0.4615
 8172TIP3   OH246006   2.064   6.130  15.027 -0.0553  0.1911 -0.2491
 8172TIP3    H146007   1.995   6.174  14.978  0.3112 -0.1001 -1.0412
 8172TIP3    H246008   2.146   6.163  14.989  0.2327 -0.3642 -0.1333
 8173TIP3   OH246009   1.601   5.426  16.411  0.4236 -0.1270 -0.3977
 8173TIP3    H146010   1.617   5.489  16.341  1.1481 -1.1801 -1.2076
 8173TIP3    H246011   1.507   5.432  16.427  0.5770  1.6835  0.0833
 8174TIP3   OH246012   6.528   2.923   1.939  0.2144  0.4871  0.2942
 8174TIP3    H146013   6.479   3.004   1.930 -2.1612 -0.7108  1.3957
 8174TIP3    H246014   6.461   2.854   1.937  2.0641 -1.4220 -0.0193
 8175TIP3   OH246015   2.006   2.566  14.549  0.2206  0.0329  0.5420
 8175TIP3    H146016   2.088   2.616  14.555 -0.1291  0.6135  0.5802
 8175TIP3    H246017   1.938   2.630  14.569 -0.3359 -0.1441 -0.7239
 8176TIP3   OH246018   5.773   1.673   0.057 -0.4061 -0.1011 -0.5603
 8176TIP3    H146019   5.732   1.638  -0.023  0.5044 -1.0484 -0.6418
 8176TIP3    H246020   5.759   1.605   0.122 -1.2374  0.7168  0.1444
 8177TIP3   OH246021   3.982   4.795  11.749 -0.0332  0.1199 -0.5778
 8177TIP3    H146022   3.979   4.889  11.769 -0.4448 -0.0782  0.3682
 8177TIP3    H246023   4.063   4.764  11.789  0.4674  0.1969 -1.5134
 8178TIP3   OH246024   1.530   2.589   4.170  0.2340  0.2978  0.0594
 8178TIP3    H146025   1.613   2.635   4.166  0.7133 -0.6373 -1.8232
 8178TIP3    H246026   1.487   2.623   4.249  2.8091  0.0328  1.6879
 8179TIP3   OH246027   4.203   4.999   1.575 -0.2004  0.3844  0.7452
 8179TIP3    H146028   4.114   4.972   1.600 -0.9482  0.4967 -1.4824
 8179TIP3    H246029   4.227   4.938   1.505  1.3000  0.6509  1.0013
 8180TIP3   OH246030   4.940   6.488   4.341  0.3971  0.4090  0.4275
 8180TIP3    H146031   4.878   6.460   4.409 -1.9197  1.3811 -1.1489
 8180TIP3    H246032   4.939   6.416   4.278 -1.5473  1.6397 -1.0664
 8181TIP3   OH246033   0.008   0.279  16.914 -0.2240  0.0103  0.1960
 8181TIP3    H146034  -0.066   0.289  16.854  0.0631 -1.3207 -0.4206
 8181TIP3    H246035   0.083   0.264  16.856 -0.2094 -3.0706  0.8508
 8182TIP3   OH246036   1.849   4.468  12.192 -0.3182  0.6233 -0.0219
 8182TIP3    H146037   1.831   4.519  12.271 -0.8953  2.6615 -1.3843
 8182TIP3    H246038   1.846   4.532  12.121  1.6378 -0.8572 -1.5701
 8183TIP3   OH246039   1.073   2.991   6.348  0.8890  1.0270  0.1761
 8183TIP3    H146040   1.037   3.063   6.297  0.8387  1.0237  0.2072
 8183TIP3    H246041   1.125   3.033   6.417 -0.6651  1.0900  1.3585
 8184TIP3   OH246042   3.832   5.404   1.497  0.2393 -0.6198 -0.0111
 8184TIP3    H146043   3.842   5.397   1.592  0.1692 -0.9990 -0.0306
 8184TIP3    H246044   3.788   5.488   1.483 -3.2227 -2.1896  0.5303
 8185TIP3   OH246045   2.625   1.992  10.783 -0.7717  0.5210  0.2392
 8185TIP3    H146046   2.607   2.044  10.705  1.4031  0.1204 -0.5977
 8185TIP3    H246047   2.570   1.915  10.774 -2.4587  1.6534  0.4366
 8186TIP3   OH246048   1.058   1.893  13.564 -0.4433 -0.0845  0.5386
 8186TIP3    H146049   1.116   1.920  13.493 -0.8577 -1.3097 -0.2883
 8186TIP3    H246050   0.976   1.938  13.545 -0.5066 -0.2872  0.3319
 8187TIP3   OH246051   1.597   0.632   2.712  0.4662 -0.0620  0.0746
 8187TIP3    H146052   1.550   0.662   2.634  2.1466 -0.9256 -1.3291
 8187TIP3    H246053   1.593   0.537   2.707 -1.4605 -0.1993  2.3966
 8188TIP3   OH246054   5.408   2.219   4.489 -0.4793  0.1285  0.6609
 8188TIP3    H146055   5.453   2.278   4.428 -0.9315 -0.5689 -0.3797
 8188TIP3    H246056   5.472   2.204   4.559  0.2242  0.5934  0.1370
 8189TIP3   OH246057   6.267   0.730   0.194  0.1717 -0.1740 -0.7832
 8189TIP3    H146058   6.253   0.652   0.248 -1.8289 -0.0489 -1.0297
 8189TIP3    H246059   6.270   0.696   0.105  0.6555 -0.0869 -0.8041
 8190TIP3   OH246060   2.417   4.845  16.582  0.5636 -0.1002  1.1636
 8190TIP3    H146061   2.388   4.778  16.520 -1.3861 -0.2534  2.1630
 8190TIP3    H246062   2.414   4.927  16.532  0.6028 -0.4414  0.5964
 8191TIP3   OH246063   1.180   4.338  16.932 -0.3852  0.2048  0.0721
 8191TIP3    H146064   1.145   4.382  16.855 -2.0467 -0.0196  0.6703
 8191TIP3    H246065   1.250   4.396  16.963  0.6684  0.0609 -1.8474
 8192TIP3   OH246066   0.914   6.430  13.143 -0.5477  0.0385  0.4613
 8192TIP3    H146067   0.844   6.479  13.100 -0.3466 -0.2167 -0.1769
 8192TIP3    H246068   0.970   6.401  13.071  0.6639  0.9242  1.0243
 8193TIP3   OH246069   0.951   6.061  10.545  0.4114 -0.1213 -0.2269
 8193TIP3    H146070   0.972   6.074  10.452 -2.8612  0.0656 -1.0709
 8193TIP3    H246071   0.953   5.966  10.557 -1.2904 -0.3339 -1.1822
 8194TIP3   OH246072   1.875   5.639  11.676  0.0188 -0.0482  0.2637
 8194TIP3    H146073   1.816   5.706  11.641 -1.4648 -1.0792  0.6619
 8194TIP3    H246074   1.950   5.638  11.617 -2.0010 -1.1838 -2.5074
 8195TIP3   OH246075   3.752   2.264   4.506 -0.3344  0.3608  0.2661
 8195TIP3    H146076   3.782   2.355   4.514  0.7036 -0.0476  1.3987
 8195TIP3    H246077   3.664   2.270   4.470 -0.3562  1.8288  0.5251
 8196TIP3   OH246078   2.885   5.077  15.370 -0.1969  0.2650 -0.4692
 8196TIP3    H146079   2.792   5.054  15.373 -0.1112 -0.0814  2.7807
 8196TIP3    H246080   2.896   5.140  15.441  2.5970 -2.2772  1.6006
 8197TIP3   OH246081   0.775   1.641  12.722 -0.0452  0.3144  0.0440
 8197TIP3    H146082   0.803   1.551  12.737 -0.9172  0.3247  2.0628
 8197TIP3    H246083   0.803   1.689  12.800 -0.7580  1.4932 -0.3902
 8198TIP3   OH246084   3.687   0.886  10.411  0.1813  0.2515 -0.6903
 8198TIP3    H146085   3.709   0.794  10.429 -1.8961 -0.1491  0.0417
 8198TIP3    H246086   3.748   0.912  10.342  1.2931 -1.4461 -0.4092
 8199TIP3   OH246087   1.318   3.900  14.652 -0.2257 -0.4186  0.2278
 8199TIP3    H146088   1.315   3.984  14.608 -0.1276  0.2840  1.5158
 8199TIP3    H246089   1.368   3.843  14.592 -0.0530  0.5053 -0.5234
 8200TIP3   OH246090   4.881   2.006  16.970 -0.0442  0.1952  0.0600
 8200TIP3    H146091   4.917   2.091  16.944 -3.3436  1.2549 -1.6484
 8200TIP3    H246092   4.844   1.970  16.890 -0.7020 -1.8499  1.2013
 8201TIP3   OH246093   0.848   0.422   0.750 -0.0879  0.1489  0.4070
 8201TIP3    H146094   0.835   0.344   0.696  0.9117 -0.2641  0.7404
 8201TIP3    H246095   0.762   0.464   0.751 -0.1274  0.2136 -1.5558
 8202TIP3   OH246096   6.207   1.647  15.007 -0.3621  0.3987 -0.6606
 8202TIP3    H146097   6.285   1.691  14.973  1.0805  0.0269  1.9282
 8202TIP3    H246098   6.184   1.696  15.086 -0.1694 -1.9333  0.9539
 8203TIP3   OH246099   2.317   4.522   3.915  0.0593 -0.2900 -0.3188
 8203TIP3    H146100   2.238   4.474   3.938 -0.7158 -1.1988 -4.1676
 8203TIP3    H246101   2.285   4.598   3.865  1.4596  2.4447  2.6064
 8204TIP3   OH246102   3.283   4.185   0.893  0.0735 -0.0922 -0.0873
 8204TIP3    H146103   3.285   4.100   0.936  0.8858  0.5091  1.1320
 8204TIP3    H246104   3.193   4.216   0.902 -0.4316 -1.1360 -1.2426
 8205TIP3   OH246105   1.316   2.619   0.075  0.9611  0.0229 -0.0236
 8205TIP3    H146106   1.314   2.704   0.033  1.0316 -0.2199 -0.5217
 8205TIP3    H246107   1.316   2.556   0.003 -0.6244 -0.4377  0.3424
 8206TIP3   OH246108   3.511   1.729   3.558 -0.4883 -0.2650 -0.0345
 8206TIP3    H146109   3.557   1.767   3.483  0.5764 -2.3593 -0.5156
 8206TIP3    H246110   3.472   1.804   3.603  2.0033  1.4524 -0.5638
 8207TIP3   OH246111   2.383   4.740   4.824  0.0341 -0.0966 -0.2551
 8207TIP3    H146112   2.391   4.704   4.735  1.8687 -0.5212  0.0420
 8207TIP3    H246113   2.419   4.672   4.881  0.4573  0.8523  0.6399
 8208TIP3   OH246114   3.920   2.158   3.326  0.8037  0.3181  0.2697
 8208TIP3    H146115   3.938   2.211   3.404  2.8181  1.8672 -1.1425
 8208TIP3    H246116   3.974   2.079   3.338  0.0713 -0.0766  1.0354
 8209TIP3   OH246117   3.004   1.152  12.467 -0.7056 -0.0236  0.2422
 8209TIP3    H146118   3.060   1.223  12.436 -2.0029  1.1515  0.4730
 8209TIP3    H246119   2.915   1.185  12.455 -1.3904  0.3048  4.4848
 8210TIP3   OH246120   1.358   3.606   3.205 -0.3430 -0.1811  0.6266
 8210TIP3    H146121   1.277   3.653   3.186 -0.1258 -0.7438 -2.0930
 8210TIP3    H246122   1.422   3.643   3.145  0.3862 -2.3200 -0.0297
 8211TIP3   OH246123   0.665   1.149   0.017 -0.1136  0.2561  0.0219
 8211TIP3    H146124   0.584   1.148   0.067 -0.4925  2.3255 -0.4414
 8211TIP3    H246125   0.730   1.188   0.076  0.9915 -2.6439  0.8948
 8212TIP3   OH246126   1.572   2.809   3.259  0.1980 -0.1324 -0.5869
 8212TIP3    H146127   1.565   2.835   3.350 -1.4555  0.3445 -0.8083
 8212TIP3    H246128   1.647   2.857   3.225 -0.3709  1.2414  0.0366
 8213TIP3   OH246129   0.375   3.241  11.051  0.4724  0.9151  0.4237
 8213TIP3    H146130   0.305   3.304  11.034 -0.8778 -0.0860  1.9441
 8213TIP3    H246131   0.435   3.251  10.978 -2.3912  0.2853 -2.2478
 8214TIP3   OH246132   3.434   3.695  15.091  0.2855 -0.3826  0.2590
 8214TIP3    H146133   3.348   3.728  15.117 -0.1614 -0.5017 -0.9810
 8214TIP3    H246134   3.482   3.772  15.062  0.7291 -0.2695  1.2650
 8215TIP3   OH246135   5.848   1.406  15.642  0.3688 -0.6686  0.2942
 8215TIP3    H146136   5.791   1.410  15.718  0.0743  1.0182  0.0300
 8215TIP3    H246137   5.882   1.317  15.642 -2.1327 -1.7031  0.5505
 8216TIP3   OH246138   1.660   1.662  14.491 -0.1327  0.1230 -0.0088
 8216TIP3    H146139   1.620   1.740  14.453 -1.9106 -0.1146  1.2487
 8216TIP3    H246140   1.652   1.595  14.423 -0.1199  0.5887 -0.4720
 8217TIP3   OH246141   1.043   6.830  14.985  0.0763 -0.2565  0.6625
 8217TIP3    H146142   0.966   6.857  15.035 -0.0370 -0.0496  0.3838
 8217TIP3    H246143   1.061   6.741  15.014 -2.4739 -1.7397 -1.8483
 8218TIP3   OH246144   4.660   6.836   2.212 -0.1050 -0.3609 -0.5515
 8218TIP3    H146145   4.630   6.820   2.301 -2.4984 -0.6164 -1.3163
 8218TIP3    H246146   4.668   6.932   2.207  0.3661 -0.3652  0.0183
 8219TIP3   OH246147   6.631   5.490   0.418 -0.0112  0.0121 -0.2572
 8219TIP3    H146148   6.691   5.531   0.480  1.0038 -0.9886 -0.5549
 8219TIP3    H246149   6.673   5.408   0.393 -0.9265 -0.1434 -1.4168
 8220TIP3   OH246150   4.493   5.870   0.743  1.1037  0.1831 -0.0863
 8220TIP3    H146151   4.489   5.829   0.829  0.5120  0.8622  0.2248
 8220TIP3    H246152   4.475   5.962   0.760 -1.6866 -0.0724 -1.2270
 8221TIP3   OH246153   0.071   0.041  14.441  0.4328  0.1449  0.4264
 8221TIP3    H146154   0.099   0.077  14.525  0.8599  2.6666 -0.7037
 8221TIP3    H246155  -0.021   0.065  14.434  0.1204 -0.9338  0.5554
 8222TIP3   OH246156   5.610   0.937   1.073 -0.1029  0.0532 -0.1559
 8222TIP3    H146157   5.704   0.919   1.069  0.4497  2.7012 -2.0499
 8222TIP3    H246158   5.579   0.917   0.985 -0.8760  1.1164 -0.1430
 8223TIP3   OH246159   6.667   4.336  12.971 -0.1065 -0.0748  0.0206
 8223TIP3    H146160   6.574   4.320  12.957 -0.0642 -0.5381  0.2275
 8223TIP3    H246161   6.674   4.361  13.063 -0.1672  1.1588 -0.2980
 8224TIP3   OH246162   2.355   0.014   1.718  0.1442  0.1544 -0.0514
 8224TIP3    H146163   2.426  -0.006   1.658  0.8899  0.1881  0.7971
 8224TIP3    H246164   2.398   0.041   1.799 -0.8237  1.5678  0.0474
 8225TIP3   OH246165   3.778   2.404   0.354  0.4361  0.3495 -0.1081
 8225TIP3    H146166   3.715   2.470   0.383 -0.1117 -0.3125  0.2552
 8225TIP3    H246167   3.736   2.320   0.374  1.7637 -0.1262  0.9239
 8226TIP3   OH246168   4.933   0.739  14.305  0.2725 -0.2144 -0.0273
 8226TIP3    H146169   4.968   0.815  14.351 -0.2151 -0.1711  0.2834
 8226TIP3    H246170   4.840   0.760  14.291  0.1619 -0.6955 -0.0481
 8227TIP3   OH246171   6.413   2.160  14.031  0.3102 -0.7728 -0.1199
 8227TIP3    H146172   6.333   2.200  14.066  0.8891  0.7847 -0.4952
 8227TIP3    H246173   6.415   2.073  14.071 -1.8046 -1.0403 -0.4717
 8228TIP3   OH246174   3.307   1.495  16.350 -0.2313 -0.1203 -0.4307
 8228TIP3    H146175   3.333   1.516  16.440 -1.8982 -1.0018  0.3089
 8228TIP3    H246176   3.295   1.580  16.308  0.3261  0.3050  0.2477
 8229TIP3   OH246177   5.388   5.823   3.333  0.8945 -1.0950  0.0262
 8229TIP3    H146178   5.470   5.801   3.289  1.4415 -0.3388  0.6298
 8229TIP3    H246179   5.324   5.762   3.297  1.5937 -1.3184 -0.8841
 8230TIP3   OH246180   3.213   0.507  12.201 -0.2078  0.0569 -0.4888
 8230TIP3    H146181   3.185   0.436  12.259 -3.1487  0.7535 -0.9025
 8230TIP3    H246182   3.288   0.546  12.246 -0.6121 -1.2029  1.4035
 8231TIP3   OH246183   6.695   1.647  16.605 -0.1448 -0.4585  0.0226
 8231TIP3    H146184   6.657   1.622  16.521  0.4842 -0.8507 -0.1516
 8231TIP3    H246185   6.737   1.567  16.637  0.3419 -0.0922  0.3138
 8232TIP3   OH246186   5.089   0.474  16.620  0.9577 -0.3357  0.1762
 8232TIP3    H146187   5.008   0.435  16.653  0.0061  1.3984 -0.0118
 8232TIP3    H246188   5.126   0.407  16.561 -0.4507 -1.0625  0.0843
 8233TIP3   OH246189   5.544   1.523  15.957 -0.2314  0.2131  0.2695
 8233TIP3    H146190   5.555   1.466  16.033  0.2412  0.7476  0.6012
 8233TIP3    H246191   5.449   1.527  15.944 -0.2619 -1.3162 -0.2675
 8234TIP3   OH246192   2.654   2.865   1.703  0.6053  0.1515 -0.0408
 8234TIP3    H146193   2.627   2.906   1.786  1.0618 -0.3247  0.3461
 8234TIP3    H246194   2.745   2.893   1.691  1.7339 -2.5433  1.4091
 8235TIP3   OH246195   2.359   5.279  13.828 -0.6006  0.2764 -0.5052
 8235TIP3    H146196   2.265   5.293  13.836 -0.7038 -1.1644  1.3809
 8235TIP3    H246197   2.367   5.195  13.782 -0.2876 -0.1717  0.3400
 8236TIP3   OH246198   4.453   6.800  15.461  0.0546 -0.1727  0.0753
 8236TIP3    H146199   4.427   6.710  15.485  0.0381 -0.9313 -2.4972
 8236TIP3    H246200   4.376   6.835  15.417  0.9943  0.0824 -1.4162
 8237TIP3   OH246201   3.703   2.260   5.469 -0.6747  0.2182  0.0645
 8237TIP3    H146202   3.782   2.313   5.457 -0.9556  1.0673  1.6689
 8237TIP3    H246203   3.659   2.263   5.384  1.7856 -1.6740 -1.4142
 8238TIP3   OH246204   3.592   2.639   0.969 -0.4619 -0.6534  0.1275
 8238TIP3    H146205   3.593   2.545   0.954 -0.3923 -0.6249 -0.0570
 8238TIP3    H246206   3.562   2.676   0.886  0.4028 -0.4623 -0.1125
 8239TIP3   OH246207   5.373   6.417  11.306 -0.1959 -0.2727 -0.7986
 8239TIP3    H146208   5.358   6.432  11.212  0.5592 -1.3538 -1.1033
 8239TIP3    H246209   5.458   6.373  11.310 -0.3222 -0.4275  0.3909
 8240TIP3   OH246210   4.269   2.294   2.584  0.1199 -0.2830  0.9914
 8240TIP3    H146211   4.326   2.371   2.583  2.4426 -1.8979  0.4471
 8240TIP3    H246212   4.305   2.238   2.652 -0.2528 -1.7476  0.0332
 8241TIP3   OH246213   0.439   5.029   3.413  0.9692 -0.4380  0.1303
 8241TIP3    H146214   0.421   4.980   3.333 -1.7102  0.9152 -0.2004
 8241TIP3    H246215   0.380   4.990   3.478  0.1939  1.0732  0.3560
 8242TIP3   OH246216   1.801   3.332  11.162  0.1886  0.3329 -0.2137
 8242TIP3    H146217   1.768   3.342  11.073 -1.3314 -0.3317  0.2367
 8242TIP3    H246218   1.753   3.256  11.196  3.1354 -1.5593  0.0875
 8243TIP3   OH246219   4.045   1.094  14.608 -0.4188 -0.1669 -0.0500
 8243TIP3    H146220   4.016   1.177  14.570  2.9320  0.8102 -0.7887
 8243TIP3    H246221   4.053   1.035  14.534 -2.7566 -1.2539  0.4701
 8244TIP3   OH246222   5.031   4.694   0.718 -0.4520 -0.1943  0.4273
 8244TIP3    H146223   5.058   4.667   0.806 -1.2794  0.4725  0.9069
 8244TIP3    H246224   5.066   4.627   0.660  2.1623  0.5896  0.9826
 8245TIP3   OH246225   3.734   4.160   1.900  0.1435 -0.7336 -0.1029
 8245TIP3    H146226   3.729   4.096   1.971 -0.3817 -0.8703 -0.2603
 8245TIP3    H246227   3.738   4.245   1.944 -3.0282 -0.5838  0.1335
 8246TIP3   OH246228   0.663   0.583  15.986  0.1911  0.5036  0.4889
 8246TIP3    H146229   0.751   0.617  16.002 -0.0513  0.6750  1.5968
 8246TIP3    H246230   0.656   0.577  15.891  0.7687  2.1984  0.3009
 8247TIP3   OH246231   5.716   6.305  11.895 -0.0700  0.3677 -0.2253
 8247TIP3    H146232   5.800   6.266  11.919 -0.9405 -0.8907  0.9946
 8247TIP3    H246233   5.701   6.373  11.961  0.1320  0.7871 -0.6156
 8248TIP3   OH246234   0.361   0.286  12.980  0.3233  0.8006  0.2433
 8248TIP3    H146235   0.393   0.197  12.964 -0.9987  0.3971 -0.2755
 8248TIP3    H246236   0.324   0.282  13.068  2.0464  1.3910  1.0352
 8249TIP3   OH246237   0.408   4.120  11.188 -0.1085 -1.1302 -0.1524
 8249TIP3    H146238   0.495   4.157  11.172 -0.1501 -1.2792 -0.7293
 8249TIP3    H246239   0.397   4.127  11.283 -0.4181  1.0105 -0.3076
 8250TIP3   OH246240   2.032   4.500  12.613 -0.0691  0.1870 -0.3737
 8250TIP3    H146241   2.057   4.577  12.663  0.0022 -0.5563  0.7804
 8250TIP3    H246242   1.940   4.485  12.636 -0.0786 -0.0798 -0.5798
 8251TIP3   OH246243   3.211   4.841   0.358 -0.0383 -0.1500 -0.4286
 8251TIP3    H146244   3.144   4.784   0.396  0.6250 -0.9008 -0.3486
 8251TIP3    H246245   3.180   4.858   0.269 -0.7913  0.2858 -0.0963
 8252TIP3   OH246246   3.507   3.216  15.961 -0.0387  0.8754  0.0945
 8252TIP3    H146247   3.414   3.209  15.979  0.2019 -1.5298  0.6933
 8252TIP3    H246248   3.543   3.262  16.037 -0.1903 -2.0362  2.0713
 8253TIP3   OH246249   0.795   5.296   3.429  0.2611 -0.4050  0.5026
 8253TIP3    H146250   0.864   5.286   3.364 -0.0720 -0.4713  0.1554
 8253TIP3    H246251   0.759   5.208   3.440  0.4480 -0.4345  0.9302
 8254TIP3   OH246252   1.415   6.168   3.051 -0.0694  0.7311  0.7213
 8254TIP3    H146253   1.405   6.074   3.039  1.8144  0.5717  0.0800
 8254TIP3    H246254   1.370   6.207   2.976 -0.4566  0.3335  0.7425
 8255TIP3   OH246255   1.290   0.603  14.433  0.1300 -1.1471  0.7427
 8255TIP3    H146256   1.246   0.688  14.432 -0.3572 -1.3949  0.8848
 8255TIP3    H246257   1.366   0.616  14.490  0.7309 -0.4803 -0.1749
 8256TIP3   OH246258   1.426   2.567   2.067  0.4779 -0.2547 -0.2321
 8256TIP3    H146259   1.364   2.520   2.122  0.5983 -1.2613 -0.9145
 8256TIP3    H246260   1.486   2.608   2.128 -0.5441  0.2953  0.4200
 8257TIP3   OH246261   4.107   0.797   1.710 -0.1443  0.0769  0.3104
 8257TIP3    H146262   4.189   0.838   1.683  1.5516 -2.5525  1.0457
 8257TIP3    H246263   4.061   0.865   1.760  1.5778  1.6294 -0.1011
 8258TIP3   OH246264   1.821   0.549  10.689  0.3254  0.1233 -0.1421
 8258TIP3    H146265   1.746   0.570  10.634  0.0993  0.3846  0.2615
 8258TIP3    H246266   1.829   0.623  10.748 -0.5406 -0.9263  1.3722
 8259TIP3   OH246267   5.975   3.374   4.661 -0.7203  0.5271  0.5829
 8259TIP3    H146268   6.066   3.402   4.651 -0.3315  0.1225  2.6732
 8259TIP3    H246269   5.979   3.278   4.656 -1.3536  0.5524 -1.3691
 8260TIP3   OH246270   1.230   3.463  12.593 -0.0885  0.3554  0.9274
 8260TIP3    H146271   1.326   3.457  12.587  0.0086  0.1588  2.2834
 8260TIP3    H246272   1.201   3.474  12.503  1.2448  0.8241  0.5247
 8261TIP3   OH246273   6.163   6.161  14.655  0.6128 -0.5996  0.0299
 8261TIP3    H146274   6.146   6.069  14.677  0.4697 -0.7616 -0.7176
 8261TIP3    H246275   6.253   6.162  14.623  0.7624 -0.4011  0.4576
 8262TIP3   OH246276   6.409   1.823  12.091 -0.1136  0.4443 -0.0657
 8262TIP3    H146277   6.471   1.831  12.018 -0.7957  0.3596 -0.6646
 8262TIP3    H246278   6.370   1.910  12.098 -0.1759  0.4033  0.0905
 8263TIP3   OH246279   0.294   3.227   0.999 -0.1495  0.0266 -0.1842
 8263TIP3    H146280   0.287   3.171   0.921  0.2631 -0.8553  0.4022
 8263TIP3    H246281   0.210   3.218   1.043  0.2441 -0.8992  0.4071
 8264TIP3   OH246282   2.049   4.314  13.258  0.1569 -0.1429 -0.4394
 8264TIP3    H146283   1.964   4.301  13.300  0.3746  0.7892  0.3472
 8264TIP3    H246284   2.112   4.279  13.321  0.3212 -1.6707 -1.4243
 8265TIP3   OH246285   1.498   2.039   5.080 -0.1609  0.5351  0.1976
 8265TIP3    H146286   1.486   1.972   5.147 -0.4071  1.7592  1.4408
 8265TIP3    H246287   1.500   1.991   4.997  1.0842 -1.1312  1.1229
 8266TIP3   OH246288   1.394   6.452   1.048 -0.3593 -0.3620 -0.0834
 8266TIP3    H146289   1.372   6.544   1.065  3.2384  0.6090  0.1791
 8266TIP3    H246290   1.354   6.404   1.121 -1.3659  1.1320  0.4025
 8267TIP3   OH246291   3.398   2.863  11.188  0.9809 -0.1476  0.0635
 8267TIP3    H146292   3.409   2.922  11.114  1.1864  0.4305  0.5419
 8267TIP3    H246293   3.407   2.920  11.265  0.8773 -0.7525  0.5291
 8268TIP3   OH246294   1.661   5.965   2.814  0.0769  0.0587 -0.0956
 8268TIP3    H146295   1.570   5.935   2.809  0.3566 -0.6664 -1.0644
 8268TIP3    H246296   1.710   5.903   2.760  1.2606  0.0438  0.9434
 8269TIP3   OH246297   6.833   1.053  11.770 -0.3674 -0.3409 -0.3890
 8269TIP3    H146298   6.791   1.057  11.684  0.8567 -2.1980 -1.1339
 8269TIP3    H246299   6.815   0.964  11.802  0.5924 -0.2265  0.5333
 8270TIP3   OH246300   2.891   0.183   2.925  0.3154 -0.3960 -0.4770
 8270TIP3    H146301   2.882   0.270   2.964 -1.8505 -0.4168 -0.8082
 8270TIP3    H246302   2.857   0.192   2.836 -1.4974 -1.8822  0.0004
 8271TIP3   OH246303   4.620   3.614  10.386 -0.3467  0.1607  0.0978
 8271TIP3    H146304   4.680   3.591  10.315 -1.2836  1.3741 -1.1403
 8271TIP3    H246305   4.626   3.710  10.392 -1.0316  0.1621  0.9862
 8272TIP3   OH246306   1.376   5.425   1.549  0.2575 -0.1376  0.1261
 8272TIP3    H146307   1.398   5.465   1.464 -0.9063  0.3598  0.0423
 8272TIP3    H246308   1.303   5.367   1.530 -1.7619  1.9165  1.1883
 8273TIP3   OH246309   6.268   5.590   3.705  0.4647 -0.2021 -0.0439
 8273TIP3    H146310   6.263   5.495   3.694  0.6132 -0.3428  0.9664
 8273TIP3    H246311   6.338   5.603   3.769 -0.2150  0.5267  0.5785
 8274TIP3   OH246312   4.844   5.716  13.207  0.0481  0.0205  0.2501
 8274TIP3    H146313   4.867   5.805  13.235  0.0790 -0.5091  2.0263
 8274TIP3    H246314   4.927   5.668  13.207 -0.0232 -0.1044 -0.3268
 8275TIP3   OH246315   3.570   5.751   0.847 -0.5850  0.5680  0.2257
 8275TIP3    H146316   3.630   5.678   0.835  0.4811  1.4137  0.2553
 8275TIP3    H246317   3.615   5.825   0.806 -0.5954  1.7057  2.1844
 8276TIP3   OH246318   4.182   6.411  12.633  0.2059 -0.2290  0.0827
 8276TIP3    H146319   4.221   6.333  12.596 -0.2914 -0.4279 -0.0345
 8276TIP3    H246320   4.251   6.450  12.687  0.5510 -0.5787 -0.1059
 8277TIP3   OH246321   4.056   5.922  14.642  0.1488  0.0972 -0.0904
 8277TIP3    H146322   4.007   5.947  14.720  1.9444  1.7655  0.5772
 8277TIP3    H246323   4.102   5.842  14.667  0.3363  0.3595  0.4061
 8278TIP3   OH246324   5.509   3.492   2.267 -0.0907 -0.4301 -0.0887
 8278TIP3    H146325   5.580   3.550   2.240 -0.1462 -1.0194 -1.6291
 8278TIP3    H246326   5.542   3.447   2.345  0.4977  0.6141  0.2825
 8279TIP3   OH246327   1.017   4.452   5.467  0.3141 -0.1092 -0.8331
 8279TIP3    H146328   1.043   4.410   5.549 -0.9376 -1.4339 -1.0710
 8279TIP3    H246329   1.096   4.498   5.438  1.5696 -1.7583 -0.2084
 8280TIP3   OH246330   5.395   1.317   4.228  0.1890  0.1485  0.1347
 8280TIP3    H146331   5.486   1.338   4.248 -0.1588  0.3306  1.6231
 8280TIP3    H246332   5.354   1.303   4.313 -1.0757 -0.3873 -0.5309
 8281TIP3   OH246333   3.953   5.652   6.169  0.2413 -0.5702  0.1102
 8281TIP3    H146334   4.024   5.627   6.110  0.2311  0.6229 -0.4454
 8281TIP3    H246335   3.922   5.736   6.134 -2.5314 -1.8217 -0.6427
 8282TIP3   OH246336   0.009   3.620  12.849 -0.0031  0.1863  0.5646
 8282TIP3    H146337  -0.033   3.547  12.802 -1.3014  1.3889 -0.2428
 8282TIP3    H246338  -0.001   3.598  12.941 -0.3953 -0.6533  0.3334
 8283TIP3   OH246339   6.690   5.923  16.640  0.8891  0.1290 -0.4106
 8283TIP3    H146340   6.669   5.910  16.548  0.0245 -1.1196 -0.0541
 8283TIP3    H246341   6.610   5.957  16.679  0.8094 -0.6647  0.1441
 8284TIP3   OH246342   6.028   5.809   3.503  0.0529 -0.3229  0.4992
 8284TIP3    H146343   5.992   5.810   3.591 -0.2340  1.2571  0.4011
 8284TIP3    H246344   5.953   5.825   3.446 -0.1430 -3.3428 -0.2619
 8285TIP3   OH246345   2.892   2.493   0.502 -0.8266  0.1416 -0.0405
 8285TIP3    H146346   2.946   2.541   0.564 -0.2113 -0.1725 -0.3218
 8285TIP3    H246347   2.929   2.513   0.416  2.0025 -3.7740 -0.0133
 8286TIP3   OH246348   0.576   4.488  13.574  0.4095  0.4976 -0.2699
 8286TIP3    H146349   0.572   4.549  13.647  1.1950 -0.2049  0.3900
 8286TIP3    H246350   0.648   4.521  13.520  1.2625 -0.1757  0.4237
 8287TIP3   OH246351   6.574   4.075  16.773 -0.1204  0.2059 -0.2353
 8287TIP3    H146352   6.535   4.142  16.829  2.0447  0.8150  0.6580
 8287TIP3    H246353   6.583   3.999  16.829  0.3494  0.2142 -0.2928
 8288TIP3   OH246354   0.232   2.623   1.330 -0.7178 -0.5713  0.0778
 8288TIP3    H146355   0.232   2.626   1.426  0.8504  0.2428  0.0901
 8288TIP3    H246356   0.147   2.659   1.305 -0.7545  0.1377  1.1530
 8289TIP3   OH246357   4.903   1.647  13.153  0.0380  0.3817  0.3933
 8289TIP3    H146358   4.950   1.618  13.231 -0.0273 -0.8456  0.0048
 8289TIP3    H246359   4.918   1.577  13.089  0.5242  1.6024 -0.8760
 8290TIP3   OH246360   3.790   5.515  12.264 -0.0112  0.4616 -0.1919
 8290TIP3    H146361   3.741   5.509  12.346  0.5261 -0.2141  0.1014
 8290TIP3    H246362   3.868   5.566  12.287 -0.6682  1.7241 -0.7080
 8291TIP3   OH246363   4.997   1.130   2.816  0.0150 -0.1042 -0.4798
 8291TIP3    H146364   4.958   1.217   2.812 -0.8671 -0.5001 -0.6659
 8291TIP3    H246365   4.958   1.082   2.743 -0.4625 -1.0383  0.3592
 8292TIP3   OH246366   4.004   1.292   2.680  0.0512  0.2541  0.8478
 8292TIP3    H146367   4.033   1.383   2.671  2.7520 -0.3535  2.2027
 8292TIP3    H246368   4.039   1.249   2.602  0.2144  0.0823  1.0150
 8293TIP3   OH246369   0.118   2.300   0.823 -0.2344 -0.0022  0.0893
 8293TIP3    H146370   0.101   2.207   0.839 -1.9808 -0.3576 -2.9900
 8293TIP3    H246371   0.086   2.344   0.902 -0.4129 -1.9163  1.1496
 8294TIP3   OH246372   4.796   5.583   0.845  0.0270  0.5735 -0.1436
 8294TIP3    H146373   4.858   5.648   0.877 -0.7475  1.0826  0.3823
 8294TIP3    H246374   4.718   5.597   0.899 -0.1589 -0.7939 -0.0256
 8295TIP3   OH246375   0.458   3.913  11.003  0.3881  0.7291  0.3870
 8295TIP3    H146376   0.416   3.967  11.070  0.3812  0.5901  0.4960
 8295TIP3    H246377   0.544   3.952  10.991  0.2798  0.9297  0.2651
 8296TIP3   OH246378   6.495   0.237   3.995 -0.1065 -0.0966 -0.3386
 8296TIP3    H146379   6.553   0.254   3.920  0.6197 -2.7771 -0.4612
 8296TIP3    H246380   6.549   0.257   4.072 -0.2118  0.7816 -0.4794
 8297TIP3   OH246381   0.959   0.111   2.084 -0.0542  0.4938 -0.0258
 8297TIP3    H146382   0.967   0.044   2.016 -0.7557  0.0143  0.3414
 8297TIP3    H246383   0.996   0.190   2.045 -1.8453  0.6426 -1.5693
 8298TIP3   OH246384   3.949   4.617  16.913  0.1079  0.5223 -0.0353
 8298TIP3    H146385   3.859   4.650  16.908 -0.0316 -0.0171 -2.2673
 8298TIP3    H246386   3.940   4.529  16.948 -0.4554 -0.1246 -1.7178
 8299TIP3   OH246387   2.252   6.260  14.868  0.3115 -0.4516 -0.3022
 8299TIP3    H146388   2.271   6.313  14.791  0.4043 -0.5833 -0.3693
 8299TIP3    H246389   2.326   6.275  14.927  0.0839 -0.0959 -0.1021
 8300TIP3   OH246390   4.203   0.807  15.838 -0.1154  0.4353 -0.3474
 8300TIP3    H146391   4.225   0.896  15.810 -1.3936  1.0551  0.5049
 8300TIP3    H246392   4.114   0.793  15.806 -0.2522 -0.2022  0.2824
 8301TIP3   OH246393   1.980   3.999  16.412  0.5101 -0.0996  0.3798
 8301TIP3    H146394   1.973   4.037  16.324 -0.1159 -0.7853  0.1163
 8301TIP3    H246395   1.941   3.912  16.403  0.3383 -0.1345  1.3618
 8302TIP3   OH246396   2.495   3.159  15.879  0.2332  0.1017 -0.1673
 8302TIP3    H146397   2.449   3.097  15.822 -2.1609  0.7050  0.9797
 8302TIP3    H246398   2.520   3.231  15.821 -1.3517  0.2863 -0.6789
 8303TIP3   OH246399   4.694   0.775   5.957  0.1274  0.0692  0.1720
 8303TIP3    H146400   4.685   0.785   5.862 -1.5609  1.1739  0.4024
 8303TIP3    H246401   4.752   0.846   5.983 -0.8108  0.8654  0.1509
 8304TIP3   OH246402   2.894   6.111  16.553 -0.2190  0.1813 -0.7803
 8304TIP3    H146403   2.905   6.056  16.475 -0.4962 -0.2216 -0.5356
 8304TIP3    H246404   2.806   6.090  16.584  0.4927 -0.8832  0.6022
 8305TIP3   OH246405   5.587   2.726  11.450 -0.3272 -0.0510  0.2713
 8305TIP3    H146406   5.600   2.635  11.423  0.5343 -0.0261  0.5884
 8305TIP3    H246407   5.635   2.778  11.386  0.0278  0.1200  0.6699
 8306TIP3   OH246408   1.000   0.448  15.781  0.2498 -0.2985 -0.1856
 8306TIP3    H146409   1.079   0.499  15.762 -0.6559  1.1663 -0.1634
 8306TIP3    H246410   0.973   0.413  15.696 -0.7368  1.6966 -0.7282
 8307TIP3   OH246411   2.524   0.418  16.403 -0.1028 -0.1812  0.0329
 8307TIP3    H146412   2.439   0.450  16.375  0.2182  1.1887  0.5258
 8307TIP3    H246413   2.513   0.397  16.496 -0.2841 -1.4782 -0.2594
 8308TIP3   OH246414   2.160   3.472  12.786 -0.7538 -0.1528  0.1089
 8308TIP3    H146415   2.219   3.547  12.785  0.1350 -0.8239  0.1073
 8308TIP3    H246416   2.122   3.471  12.874 -1.2402  0.6439 -0.0893
 8309TIP3   OH246417   5.671   0.668  11.975 -0.1006  0.0524  0.1664
 8309TIP3    H146418   5.598   0.704  12.025  2.0306  0.6794  3.1201
 8309TIP3    H246419   5.746   0.723  12.000  1.4535 -0.6538 -2.5732
 8310TIP3   OH246420   1.801   3.028  13.734  0.3337 -0.1464 -0.0963
 8310TIP3    H146421   1.761   3.082  13.803  0.3871 -1.1742  0.7762
 8310TIP3    H246422   1.789   3.078  13.654  0.5928  1.2711  0.7053
 8311TIP3   OH246423   2.042   4.751  12.722  0.4507 -0.3877  0.0207
 8311TIP3    H146424   1.949   4.761  12.741  0.2511 -1.0345 -0.5749
 8311TIP3    H246425   2.069   4.834  12.684 -0.4729 -1.0092 -2.1383
 8312TIP3   OH246426   4.319   0.924   1.577  0.4634  0.8484 -0.5108
 8312TIP3    H146427   4.291   1.000   1.627 -2.1672 -0.6013  0.4240
 8312TIP3    H246428   4.313   0.952   1.486 -3.3048  1.0843 -0.3621
 8313TIP3   OH246429   2.647   1.971  12.007  0.0557  0.1538 -0.7522
 8313TIP3    H146430   2.583   1.924  11.954 -0.3735  2.2375 -2.2490
 8313TIP3    H246431   2.655   2.056  11.963  1.3424  1.1805  1.3364
 8314TIP3   OH246432   1.100   5.414  16.627 -0.5946  0.1531 -0.3085
 8314TIP3    H146433   1.158   5.458  16.689 -0.4394  0.6726 -0.8065
 8314TIP3    H246434   1.029   5.477  16.613 -1.5579 -0.6929  0.6970
 8315TIP3   OH246435   2.855   3.274  16.787  0.2709  0.0229 -0.3747
 8315TIP3    H146436   2.858   3.192  16.838  0.7312  0.8639  1.0197
 8315TIP3    H246437   2.769   3.310  16.807  0.1552 -0.0048 -0.8157
 8316TIP3   OH246438   6.190   3.958   0.592 -0.1278  0.1998  0.3716
 8316TIP3    H146439   6.165   4.017   0.663 -1.3436 -0.5277  0.5697
 8316TIP3    H246440   6.142   3.878   0.610  2.2709 -1.2599  0.6891
 8317TIP3   OH246441   0.439   3.831   6.046  0.1046  0.2043  1.2788
 8317TIP3    H146442   0.523   3.793   6.072  0.0136  0.5361  2.0969
 8317TIP3    H246443   0.434   3.913   6.096 -0.8891 -0.0238  1.5677
 8318TIP3   OH246444   1.554   2.513   4.543  0.0272  0.0798  0.5281
 8318TIP3    H146445   1.518   2.440   4.494 -0.2906 -0.6986  1.8748
 8318TIP3    H246446   1.478   2.561   4.575  0.1683 -0.5491  1.8790
 8319TIP3   OH246447   4.377   4.334  13.492 -0.0183 -0.5398 -0.3638
 8319TIP3    H146448   4.293   4.318  13.534  0.7172 -0.4697  1.2375
 8319TIP3    H246449   4.412   4.247  13.475 -0.1705 -0.5712 -0.5206
 8320TIP3   OH246450   0.288   1.584   0.917  0.4284  0.4027 -0.3607
 8320TIP3    H146451   0.365   1.594   0.972  0.5869  1.6231 -0.7812
 8320TIP3    H246452   0.232   1.523   0.966  0.9891  0.6959  0.6807
 8321TIP3   OH246453   2.694   3.711  12.598  0.2586  0.0887 -0.1877
 8321TIP3    H146454   2.626   3.645  12.608  1.4789 -1.1406  0.3991
 8321TIP3    H246455   2.691   3.735  12.506 -1.6945  0.9284  0.0431
 8322TIP3   OH246456   0.045   5.634   1.248  0.5096  0.1395 -0.3270
 8322TIP3    H146457   0.096   5.694   1.302  0.4657  0.1482 -0.2952
 8322TIP3    H246458  -0.029   5.686   1.218  1.0670  0.4354 -1.2248
 8323TIP3   OH246459   6.428   0.627  11.285  0.2450  0.6861  0.4698
 8323TIP3    H146460   6.343   0.585  11.296  0.6249  0.2638  2.0516
 8323TIP3    H246461   6.492   0.559  11.308  0.9642  1.3419  0.4537
 8324TIP3   OH246462   5.042   0.085   6.607 -0.0841  0.0134 -0.2978
 8324TIP3    H146463   5.124   0.037   6.618 -0.9938 -1.5301  0.0853
 8324TIP3    H246464   4.974   0.022   6.632 -1.3332  1.5882  0.4283
 8325TIP3   OH246465   0.242   4.440   0.992  0.1824  0.1476  0.1995
 8325TIP3    H146466   0.211   4.512   0.937  0.4296 -0.0412 -0.1945
 8325TIP3    H246467   0.175   4.430   1.059 -1.0457 -0.7866 -1.0944
 8326TIP3   OH246468   4.595   3.780  13.829  0.5586 -0.0357 -0.4021
 8326TIP3    H146469   4.507   3.815  13.837  1.0281  0.8867  1.1483
 8326TIP3    H246470   4.615   3.786  13.735 -0.6220  0.7352 -0.6171
 8327TIP3   OH246471   4.221   6.117  12.220 -0.0299 -0.2563 -0.4249
 8327TIP3    H146472   4.283   6.176  12.176 -0.3230 -1.4166 -2.5033
 8327TIP3    H246473   4.255   6.030  12.204 -1.5202 -0.8485 -0.5371
 8328TIP3   OH246474   4.150   4.924  14.330  0.2007 -0.2966  0.2465
 8328TIP3    H146475   4.088   4.856  14.305 -0.6354  1.0492 -1.5756
 8328TIP3    H246476   4.096   4.992  14.370  0.1483  1.4542 -2.4928
 8329TIP3   OH246477   1.208   3.686   5.433 -0.0164 -0.7896  0.5119
 8329TIP3    H146478   1.302   3.680   5.448  0.1858 -0.3001 -0.4222
 8329TIP3    H246479   1.188   3.615   5.372 -0.2645 -0.9295  0.7520
 8330TIP3   OH246480   1.882   4.306   3.879 -0.5300  0.3157 -0.7970
 8330TIP3    H146481   1.870   4.213   3.902  0.8860  0.1847 -0.4456
 8330TIP3    H246482   1.951   4.304   3.812  0.2349  1.1641 -0.0585
 8331TIP3   OH246483   6.244   4.585   2.377  0.1929  0.1393 -0.2179
 8331TIP3    H146484   6.198   4.618   2.299 -0.8355 -0.3496  0.1540
 8331TIP3    H246485   6.218   4.646   2.447 -0.4721 -0.5321  0.1398
 8332TIP3   OH246486   1.353   0.025   3.248 -0.0610  0.3425  0.2773
 8332TIP3    H146487   1.329  -0.043   3.311 -0.5099  1.2502  1.1095
 8332TIP3    H246488   1.346   0.106   3.297  0.4755  0.9994 -0.7027
 8333TIP3   OH246489   2.510   4.329  16.040  0.1359  0.5449 -0.3783
 8333TIP3    H146490   2.602   4.304  16.051 -0.0555 -0.7073 -1.3877
 8333TIP3    H246491   2.509   4.423  16.055  1.5317  0.5349 -0.0426
 8334TIP3   OH246492   3.542   1.901  12.923  0.0009  0.8045 -0.4026
 8334TIP3    H146493   3.497   1.899  13.008 -0.4534  0.5482 -0.6448
 8334TIP3    H246494   3.635   1.898  12.945 -0.1221 -1.9336  0.0423
 8335TIP3   OH246495   2.999   6.770   1.346 -0.6745  0.0219  0.3727
 8335TIP3    H146496   3.022   6.678   1.360 -1.3110 -0.2556 -0.3654
 8335TIP3    H246497   3.075   6.818   1.379  0.2612 -0.8200 -0.4642
 8336TIP3   OH246498   2.528   5.531   6.233  0.3664  0.1351 -0.3231
 8336TIP3    H146499   2.456   5.592   6.246 -0.1909 -0.7029  0.8004
 8336TIP3    H246500   2.571   5.527   6.318  0.7721 -0.5445 -0.5503
 8337TIP3   OH246501   0.502   5.281  16.959  0.0283 -0.0967 -0.1046
 8337TIP3    H146502   0.585   5.328  16.970  1.8820 -2.8496 -1.0583
 8337TIP3    H246503   0.522   5.192  16.988 -2.2252 -1.1959 -1.6375
 8338TIP3   OH246504   1.258   0.091   3.587 -0.4237  0.0490  0.1583
 8338TIP3    H146505   1.229   0.074   3.677  0.4773 -2.2431  0.0989
 8338TIP3    H246506   1.352   0.104   3.595 -0.7900  3.9899 -0.0590
 8339TIP3   OH246507   5.595   4.072  13.708  0.7252 -0.4224 -0.5533
 8339TIP3    H146508   5.604   3.976  13.704 -2.2578 -0.7861 -0.7264
 8339TIP3    H246509   5.559   4.089  13.795 -0.4652  0.3293 -1.1706
 8340TIP3   OH246510   0.223   0.575  17.061  0.1746 -0.5536  0.4544
 8340TIP3    H146511   0.200   0.653  17.112  1.4938 -0.1937  0.5435
 8340TIP3    H246512   0.177   0.503  17.105 -0.1255  0.0066  1.0838
 8341TIP3   OH246513   3.090   0.507   1.700 -0.7926 -0.3176 -0.4510
 8341TIP3    H146514   3.009   0.508   1.648 -0.7934  0.1611 -0.4406
 8341TIP3    H246515   3.089   0.589   1.748 -0.4490 -0.4499 -0.2147
 8342TIP3   OH246516   2.437   0.859   4.843  0.6100  0.3107  0.0605
 8342TIP3    H146517   2.366   0.906   4.886  0.2483  0.0972 -0.2984
 8342TIP3    H246518   2.417   0.766   4.856  0.7298  0.2483 -0.1827
 8343TIP3   OH246519   0.689   0.538  15.722  0.0291  0.2491 -0.0285
 8343TIP3    H146520   0.762   0.599  15.735 -1.5694  2.0158  1.3240
 8343TIP3    H246521   0.624   0.589  15.673  0.3658 -1.8939 -2.9131
 8344TIP3   OH246522   3.938   4.403   3.411 -0.2210 -0.2202 -0.0336
 8344TIP3    H146523   3.869   4.371   3.469  0.8023  0.1230  1.4294
 8344TIP3    H246524   3.891   4.446   3.339 -1.5384  0.0841  0.9728
 8345TIP3   OH246525   5.300   4.484  16.881  0.1039 -0.0969 -0.0301
 8345TIP3    H146526   5.227   4.543  16.894  0.1506 -0.1913  0.6918
 8345TIP3    H246527   5.265   4.414  16.825 -0.3312 -0.1049  0.2524
 8346TIP3   OH246528   1.122   4.307  10.957 -0.5335 -0.0317  0.2687
 8346TIP3    H146529   1.133   4.394  10.996  2.0076  0.1399 -0.6337
 8346TIP3    H246530   1.135   4.321  10.863  3.1120 -1.6909  0.3344
 8347TIP3   OH246531   1.441   6.666  13.961 -0.3265 -0.0872 -0.1626
 8347TIP3    H146532   1.432   6.573  13.937  0.6709  0.0295 -1.0369
 8347TIP3    H246533   1.353   6.691  13.989 -0.3981 -1.5531  1.0444
 8348TIP3   OH246534   5.519   3.552  12.998  0.0362  0.1900 -0.3421
 8348TIP3    H146535   5.500   3.538  12.906  0.9650 -0.3895 -0.4556
 8348TIP3    H246536   5.446   3.511  13.044 -1.0217  1.4487 -0.8100
 8349TIP3   OH246537   1.000   4.227  15.285 -0.0530 -0.0136  0.0402
 8349TIP3    H146538   0.930   4.291  15.271 -1.1764 -1.4403 -1.2406
 8349TIP3    H246539   1.076   4.264  15.239 -0.1184  1.2364  0.8817
 8350TIP3   OH246540   2.609   0.087  11.942  0.6874  0.0177 -0.3111
 8350TIP3    H146541   2.642   0.020  11.883  2.1600  0.5274 -0.1020
 8350TIP3    H246542   2.675   0.093  12.012 -0.5165  0.1300  0.8644
 8351TIP3   OH246543   1.162   2.662   2.722  0.3882 -0.3851  0.2952
 8351TIP3    H146544   1.156   2.743   2.773 -0.0152 -0.2236 -0.0046
 8351TIP3    H246545   1.231   2.612   2.765  2.4359  1.1883 -0.9952
 8352TIP3   OH246546   4.002   1.904  11.549 -0.1402  0.4640  0.0459
 8352TIP3    H146547   3.957   1.821  11.564  0.1669 -0.0385 -1.5411
 8352TIP3    H246548   3.989   1.921  11.455  0.2579  1.9370  0.2341
 8353TIP3   OH246549   2.448   3.957  15.610 -0.2123  0.6272  0.4288
 8353TIP3    H146550   2.499   3.888  15.654 -2.1509 -0.7192  0.6593
 8353TIP3    H246551   2.473   3.950  15.518  1.8788  1.7104  0.8307
 8354TIP3   OH246552   6.246   1.012   0.090 -0.2251 -0.5306  0.0664
 8354TIP3    H146553   6.193   1.030   0.168  0.5035  0.0839  0.4363
 8354TIP3    H246554   6.193   0.951   0.039 -1.6410  0.6951  0.0101
 8355TIP3   OH246555   3.200   0.805   6.686 -0.1260 -0.3656  0.2904
 8355TIP3    H146556   3.277   0.802   6.742  0.4921 -2.0117 -0.5463
 8355TIP3    H246557   3.162   0.892   6.699  2.3651  0.8269  0.0859
 8356TIP3   OH246558   1.140   5.995  10.754 -0.2589  0.6583 -0.0250
 8356TIP3    H146559   1.067   6.048  10.721 -0.9898 -0.4676 -0.2999
 8356TIP3    H246560   1.208   6.058  10.776  0.3561  1.5373 -3.7789
 8357TIP3   OH246561   5.112   6.514   0.205 -0.3107 -0.0830 -0.4998
 8357TIP3    H146562   5.045   6.575   0.237 -1.9414 -2.3170  0.6212
 8357TIP3    H246563   5.195   6.560   0.220 -1.4690  2.0529 -0.2402
 8358TIP3   OH246564   0.112   2.832   0.791 -0.6309 -0.3899 -0.4595
 8358TIP3    H146565   0.122   2.753   0.844 -1.8286 -0.1090  0.2139
 8358TIP3    H246566   0.018   2.837   0.773 -0.2854 -0.3520 -2.4307
 8359TIP3   OH246567   3.546   0.943   3.458 -0.8453 -0.1742  0.8340
 8359TIP3    H146568   3.528   1.035   3.481  0.5316  0.2222  0.3988
 8359TIP3    H246569   3.578   0.904   3.539  0.6035  0.3040  0.5218
 8360TIP3   OH246570   0.478   5.133  13.266 -0.1675  0.5622 -0.3087
 8360TIP3    H146571   0.562   5.179  13.277 -0.4589  1.0465 -0.1045
 8360TIP3    H246572   0.416   5.182  13.320  0.0509 -1.5782  2.0560
 8361TIP3   OH246573   1.250   3.451   0.073  0.0663 -0.3844  0.0730
 8361TIP3    H146574   1.261   3.388   0.144 -0.8636 -0.2695  0.3189
 8361TIP3    H246575   1.160   3.482   0.081  0.7195  1.5660  0.4451
 8362TIP3   OH246576   4.433   2.453  12.672  0.0073  0.3212 -0.4159
 8362TIP3    H146577   4.493   2.517  12.633  1.4028 -0.6013  0.1155
 8362TIP3    H246578   4.488   2.376  12.687 -1.2184 -0.3925  0.5499
 8363TIP3   OH246579   3.046   6.494   1.351  0.1687 -0.1347 -0.3264
 8363TIP3    H146580   3.096   6.469   1.273  1.7997  0.1562  0.5801
 8363TIP3    H246581   3.073   6.431   1.418 -1.9809 -1.0139 -0.2177
 8364TIP3   OH246582   2.933   6.436  13.502  0.3323  0.0891  0.7428
 8364TIP3    H146583   2.967   6.353  13.467 -1.0783  0.2766 -1.2072
 8364TIP3    H246584   3.007   6.496  13.498  0.9558 -0.6530  0.7681
 8365TIP3   OH246585   2.213   6.741   0.642  0.4460  0.0470  0.7371
 8365TIP3    H146586   2.170   6.656   0.649 -0.1840  0.0629 -1.7216
 8365TIP3    H246587   2.220   6.773   0.732 -0.7002 -1.9163  1.5766
 8366TIP3   OH246588   1.638   2.649   2.224 -0.5460 -0.4719  0.5622
 8366TIP3    H146589   1.602   2.702   2.295  0.8252  0.1733  0.8215
 8366TIP3    H246590   1.715   2.607   2.262 -1.4961 -2.5712  0.3112
 8367TIP3   OH246591   3.846   3.898   2.037 -0.5296 -0.7533 -0.1899
 8367TIP3    H146592   3.910   3.870   2.102 -1.1168 -0.8643  0.3539
 8367TIP3    H246593   3.857   3.838   1.963  0.9875  0.1339 -0.7200
 8368TIP3   OH246594   6.582   5.313   4.773 -0.3316 -0.0447  0.2466
 8368TIP3    H146595   6.595   5.218   4.773 -1.3947 -0.2119 -0.9931
 8368TIP3    H246596   6.665   5.348   4.739 -1.0824 -0.7803 -2.6255
 8369TIP3   OH246597   5.154   6.077  14.866  0.3022 -0.1635  0.0609
 8369TIP3    H146598   5.144   6.117  14.953 -0.1164  0.3673 -0.2221
 8369TIP3    H246599   5.092   6.004  14.866 -1.3285  1.1445 -0.5313
 8370TIP3   OH246600   0.245   3.351   3.608 -0.6278 -0.3457 -0.0190
 8370TIP3    H146601   0.210   3.435   3.639 -0.9947  0.0356 -1.3568
 8370TIP3    H246602   0.251   3.362   3.513  2.0386 -0.8314  0.0155
 8371TIP3   OH246603   4.469   6.052  15.929 -0.2256  0.2732  0.4755
 8371TIP3    H146604   4.550   6.020  15.888  0.1642  1.0547  0.6027
 8371TIP3    H246605   4.419   6.090  15.856 -1.4434 -2.0309  0.0343
 8372TIP3   OH246606   6.454   0.016  11.751  0.4263 -0.3161 -0.0235
 8372TIP3    H146607   6.457   0.087  11.686 -0.2320 -0.8087 -0.6105
 8372TIP3    H246608   6.392   0.046  11.817 -0.5877 -0.7347 -0.7644
 8373TIP3   OH246609   1.972   5.749   0.275  0.6661  0.5617  0.0771
 8373TIP3    H146610   1.909   5.769   0.344  0.5879 -0.1475  0.2265
 8373TIP3    H246611   2.056   5.778   0.310  0.5126  0.9247  0.1442
 8374TIP3   OH246612   2.367   1.654   4.601 -0.0003 -0.1475 -0.6290
 8374TIP3    H146613   2.367   1.678   4.694 -1.3172 -1.7188 -0.1731
 8374TIP3    H246614   2.457   1.668   4.573  0.0921  1.8370  0.4582
 8375TIP3   OH246615   1.515   2.940   5.891 -0.6083  0.8356  0.0885
 8375TIP3    H146616   1.477   2.949   5.804  1.5343  1.2557 -0.8634
 8375TIP3    H246617   1.469   2.866   5.930  0.0507 -0.9694 -2.3414
 8376TIP3   OH246618   4.202   2.091  15.878  0.0293 -0.0963 -0.7349
 8376TIP3    H146619   4.139   2.128  15.817  0.2776 -0.4484 -1.2109
 8376TIP3    H246620   4.253   2.166  15.909 -1.0749  0.2983  0.2070
 8377TIP3   OH246621   6.017   3.981  13.656 -0.0400  0.1236  0.1382
 8377TIP3    H146622   6.089   3.934  13.613 -0.5357  0.0841 -0.6711
 8377TIP3    H246623   5.969   3.913  13.704 -1.3709 -0.4260 -1.8698
 8378TIP3   OH246624   4.858   6.220  13.570 -0.0591 -0.4607  0.2226
 8378TIP3    H146625   4.921   6.224  13.642  1.4731 -0.9629 -1.0208
 8378TIP3    H246626   4.879   6.138  13.525 -1.2767 -0.3700 -0.5434
 8379TIP3   OH246627   1.284   2.261   4.721 -0.0760 -0.2103  0.4191
 8379TIP3    H146628   1.354   2.252   4.656 -0.3113  0.3651  0.0786
 8379TIP3    H246629   1.248   2.348   4.705 -1.0238 -0.5903  0.4380
 8380TIP3   OH246630   5.832   2.202   4.135 -0.6729 -0.3128  0.3771
 8380TIP3    H146631   5.800   2.112   4.122 -2.6097  0.2949  0.5425
 8380TIP3    H246632   5.848   2.208   4.229  2.6301 -1.3876  0.0156
 8381TIP3   OH246633   1.531   2.049   1.348 -0.1258  0.6670 -0.6332
 8381TIP3    H146634   1.626   2.049   1.358 -0.2020 -0.9333  0.5413
 8381TIP3    H246635   1.497   2.064   1.436 -0.9683  1.1380 -1.0194
 8382TIP3   OH246636   6.602   1.217   0.754  0.1160  0.0300  0.3955
 8382TIP3    H146637   6.632   1.137   0.711  0.8785  1.4329 -1.8211
 8382TIP3    H246638   6.506   1.211   0.752  0.1319 -0.0223 -1.4013
 8383TIP3   OH246639   6.597   5.603   5.512  0.1346  0.1594  0.0061
 8383TIP3    H146640   6.603   5.509   5.532  3.4805  0.1058 -0.6008
 8383TIP3    H246641   6.655   5.644   5.576  0.5401  1.5166 -1.1988
 8384TIP3   OH246642   0.817   6.168  12.954 -0.7120  0.2902  0.2319
 8384TIP3    H146643   0.736   6.121  12.934 -0.5525  1.0376 -2.6074
 8384TIP3    H246644   0.849   6.197  12.868  2.9855 -0.6572  1.1329
 8385TIP3   OH246645   2.948   1.228  16.600  0.4453  0.2956  0.3874
 8385TIP3    H146646   2.903   1.280  16.534 -0.0816  0.1355  0.6158
 8385TIP3    H246647   2.958   1.287  16.675  2.1951  0.9007 -0.2551
 8386TIP3   OH246648   2.398   5.009  11.805 -0.2446  0.1583  0.4646
 8386TIP3    H146649   2.416   5.090  11.758 -0.2770 -1.6080 -2.9405
 8386TIP3    H246650   2.313   5.023  11.846 -0.7934  1.4741 -1.0328
 8387TIP3   OH246651   0.839   5.132   2.420 -0.1903  0.0434  0.3034
 8387TIP3    H146652   0.772   5.081   2.374 -1.0627  1.2568  0.1707
 8387TIP3    H246653   0.900   5.159   2.352 -0.5983  0.4881  0.1072
 8388TIP3   OH246654   3.652   5.627   4.043 -0.0924  0.1636 -0.5840
 8388TIP3    H146655   3.643   5.541   4.085 -1.7917  0.6527  0.1352
 8388TIP3    H246656   3.594   5.684   4.093  0.2875  1.5246 -1.6412
 8389TIP3   OH246657   2.485   2.294  16.578  0.0576 -0.5640 -0.7154
 8389TIP3    H146658   2.549   2.345  16.628 -1.2490  1.4082 -0.9587
 8389TIP3    H246659   2.537   2.249  16.511  1.2794  0.4789 -0.5074
 8390TIP3   OH246660   4.137   6.596   6.839  0.0329  0.2344  0.2881
 8390TIP3    H146661   4.048   6.621   6.813 -0.0638  0.0230  0.4135
 8390TIP3    H246662   4.124   6.530   6.907  0.2734 -0.7198 -0.5576
 8391TIP3   OH246663   5.110   3.170  13.620  0.0156 -0.0782  0.6946
 8391TIP3    H146664   5.183   3.159  13.559 -0.1779 -0.6278  0.5533
 8391TIP3    H246665   5.058   3.241  13.583 -1.4055 -1.9336 -1.1059
 8392TIP3   OH246666   2.448   3.292  11.283  0.5212 -0.6109 -0.3796
 8392TIP3    H146667   2.485   3.295  11.194  1.9346  0.1594  0.1932
 8392TIP3    H246668   2.433   3.383  11.305 -0.1134 -0.8219  0.0671
 8393TIP3   OH246669   0.248   5.178  12.345  0.1481 -0.3683  0.6749
 8393TIP3    H146670   0.275   5.148  12.432 -1.6346 -2.1110  0.6957
 8393TIP3    H246671   0.153   5.167  12.344  0.0426  0.2949 -1.2745
 8394TIP3   OH246672   1.578   5.087  12.994 -0.8456  0.4864  0.1132
 8394TIP3    H146673   1.582   5.120  12.904 -2.7174 -0.7133 -0.4633
 8394TIP3    H246674   1.660   5.117  13.034 -1.2406  3.5728 -1.0912
 8395TIP3   OH246675   1.742   5.582  15.853 -0.6656  0.9693  1.1582
 8395TIP3    H146676   1.736   5.516  15.784  0.4779  1.4725  0.5358
 8395TIP3    H246677   1.656   5.623  15.855 -0.9142  0.5030  0.4801
 8396TIP3   OH246678   3.924   5.155   4.264 -0.6376  0.4151 -0.8723
 8396TIP3    H146679   3.969   5.084   4.219  0.3751  1.2547 -1.2229
 8396TIP3    H246680   3.933   5.230   4.206 -1.3469  0.9382 -0.3266
 8397TIP3   OH246681   4.526   3.562   1.767 -0.1785 -0.4915  0.2502
 8397TIP3    H146682   4.480   3.628   1.716 -0.7802 -1.6068 -0.7075
 8397TIP3    H246683   4.479   3.480   1.750 -0.1006 -1.0039  2.2397
 8398TIP3   OH246684   5.160   1.561  12.269  0.2470 -0.5390 -0.1617
 8398TIP3    H146685   5.174   1.651  12.241  1.5755 -1.0913 -1.3915
 8398TIP3    H246686   5.166   1.564  12.364 -1.4360  0.9267 -0.0609
 8399TIP3   OH246687   6.751   1.010   6.368  0.1155 -0.4456 -0.2663
 8399TIP3    H146688   6.755   1.090   6.422 -1.4440 -0.3826 -0.1972
 8399TIP3    H246689   6.802   0.946   6.418 -1.1016 -0.3256  1.2187
 8400TIP3   OH246690   2.493   3.341   0.742  1.1978 -0.2462  0.2982
 8400TIP3    H146691   2.473   3.428   0.708 -0.4076 -0.4115  0.7640
 8400TIP3    H246692   2.583   3.349   0.776  0.7579  1.4926  1.1741
 8401TIP3   OH246693   2.848   5.754  13.755 -0.3446 -0.8238 -1.3292
 8401TIP3    H146694   2.752   5.749  13.752 -0.7434  2.0664  1.2035
 8401TIP3    H246695   2.872   5.784  13.668 -1.9471 -0.1328 -1.5840
 8402TIP3   OH246696   5.401   3.856  14.307 -0.6921  0.2144 -0.0809
 8402TIP3    H146697   5.364   3.777  14.267 -1.5148  1.3229 -1.6054
 8402TIP3    H246698   5.431   3.909  14.233 -2.4252  2.4171  0.6894
 8403TIP3   OH246699   5.301   4.477   6.021 -0.1445 -0.0859 -0.0435
 8403TIP3    H146700   5.277   4.396   5.975  0.6122 -0.9201  0.9666
 8403TIP3    H246701   5.257   4.470   6.105  1.0852 -0.1682  0.6203
 8404TIP3   OH246702   1.055   2.194  13.899  0.0190  0.1324  0.6375
 8404TIP3    H146703   1.146   2.220  13.887 -0.9972  2.9991 -2.3264
 8404TIP3    H246704   1.006   2.276  13.896 -2.7865 -1.4205  0.8173
 8405TIP3   OH246705   4.885   0.992   2.622 -0.2996 -0.6586 -0.0755
 8405TIP3    H146706   4.849   1.039   2.547  0.7085 -1.0531 -0.8290
 8405TIP3    H246707   4.912   0.907   2.586  0.2698 -0.8214  0.7257
 8406TIP3   OH246708   5.510   1.390  13.507 -0.5867  0.6755  0.0375
 8406TIP3    H146709   5.444   1.409  13.441 -3.3305  1.9059  2.8862
 8406TIP3    H246710   5.512   1.295  13.513 -0.6694  0.5683 -1.4041
 8407TIP3   OH246711   0.127   2.840  12.320  0.1076 -0.5570 -0.3265
 8407TIP3    H146712   0.174   2.888  12.388 -0.6607 -0.4240  0.1173
 8407TIP3    H246713   0.050   2.893  12.301  1.4293  0.6086 -2.9768
 8408TIP3   OH246714   3.764   5.243  14.760  0.3066 -0.1316  0.5622
 8408TIP3    H146715   3.780   5.250  14.666  0.3329 -0.7361  0.5205
 8408TIP3    H246716   3.670   5.257  14.769  0.0498 -1.5148  0.2838
 8409TIP3   OH246717   4.906   4.835  11.906 -0.3294  0.3831 -0.6464
 8409TIP3    H146718   4.897   4.911  11.963 -2.9444  0.2401 -0.7555
 8409TIP3    H246719   4.947   4.768  11.961 -1.2283  0.7819  0.5535
 8410TIP3   OH246720   5.265   6.188  15.359  0.3808  0.1985  0.0174
 8410TIP3    H146721   5.347   6.225  15.327  0.6438 -0.4849 -0.1129
 8410TIP3    H246722   5.291   6.107  15.403 -0.1200  0.4492  0.8067
 8411TIP3   OH246723   0.138   2.524   5.369 -0.2773 -0.6458 -0.3143
 8411TIP3    H146724   0.059   2.470   5.375  0.0510 -1.3923 -2.1243
 8411TIP3    H246725   0.210   2.460   5.366  0.2274 -0.0627 -0.8644
 8412TIP3   OH246726   0.058   1.585   5.311 -0.6432  0.1221  0.0535
 8412TIP3    H146727  -0.018   1.573   5.367 -1.6225 -0.4565 -1.3502
 8412TIP3    H246728   0.053   1.676   5.282 -1.1259 -0.0695 -0.4786
 8413TIP3   OH246729   6.445   3.272   4.774  0.3620  0.1356  0.4439
 8413TIP3    H146730   6.453   3.248   4.866 -0.9474 -0.1769  0.4992
 8413TIP3    H246731   6.513   3.337   4.760  0.5258  0.2482  1.6512
 8414TIP3   OH246732   3.542   4.481  13.278  0.0869 -0.2793 -0.1246
 8414TIP3    H146733   3.457   4.487  13.234  0.2865 -1.5477 -0.7221
 8414TIP3    H246734   3.522   4.489  13.371 -0.4629  1.3281 -0.3508
 8415TIP3   OH246735   5.967   3.838   6.188  0.9249  0.3570 -0.0095
 8415TIP3    H146736   5.969   3.854   6.093  0.9299 -0.0814 -0.0871
 8415TIP3    H246737   5.954   3.744   6.195  2.2028  0.2060  0.4313
 8416TIP3   OH246738   5.126   6.547   4.054  0.5152  0.0813  0.3525
 8416TIP3    H146739   5.107   6.564   3.961  1.6153 -0.3395  0.0397
 8416TIP3    H246740   5.089   6.460   4.069 -1.4854  0.9592  0.8807
 8417TIP3   OH246741   4.918   1.335   1.918 -0.2372 -0.0736 -0.1577
 8417TIP3    H146742   4.899   1.266   1.854 -0.2166  0.7440 -1.0828
 8417TIP3    H246743   4.837   1.387   1.922 -0.6672 -0.8149  1.4222
 8418TIP3   OH246744   3.998   5.748   3.563 -0.1565  0.4924  0.1331
 8418TIP3    H146745   3.987   5.814   3.494 -3.3104  1.2587  1.1854
 8418TIP3    H246746   3.976   5.665   3.520 -1.3242  0.8571  0.0007
 8419TIP3   OH246747   0.640   6.790  11.938  0.4411 -0.6974  0.3474
 8419TIP3    H146748   0.722   6.772  11.982 -0.0999  0.0488  1.7097
 8419TIP3    H246749   0.576   6.731  11.979 -0.1200  0.1796  0.7766
 8420TIP3   OH246750   5.733   5.740  11.839  0.4569 -0.3257 -0.1931
 8420TIP3    H146751   5.740   5.835  11.850  0.8450 -0.2737 -0.8414
 8420TIP3    H246752   5.824   5.711  11.826  0.2672 -0.6786 -0.7681
 8421TIP3   OH246753   2.456   1.421  14.118  0.0226  0.7280  0.6262
 8421TIP3    H146754   2.526   1.408  14.054 -0.2460 -0.4633  0.5476
 8421TIP3    H246755   2.375   1.421  14.066 -0.0728  1.7259  0.7561
 8422TIP3   OH246756   4.344   1.783   1.108 -0.0960 -0.3199 -0.3268
 8422TIP3    H146757   4.431   1.759   1.077  0.3326  1.9565 -1.1121
 8422TIP3    H246758   4.306   1.833   1.035 -2.2892 -1.6382 -0.1956
 8423TIP3   OH246759   0.519   5.533   2.503 -0.6825 -0.0378 -0.2739
 8423TIP3    H146760   0.495   5.626   2.498 -0.2996  0.0855  0.0983
 8423TIP3    H246761   0.567   5.526   2.585 -0.2817 -0.4715 -0.5438
 8424TIP3   OH246762   1.445   6.167  11.301 -0.3045 -0.0412 -0.2923
 8424TIP3    H146763   1.473   6.154  11.210  1.6602  0.0948  0.2329
 8424TIP3    H246764   1.416   6.258  11.304  0.0618  0.0961 -0.7067
 8425TIP3   OH246765   6.826   6.080  15.286  0.0767  0.3679 -0.7071
 8425TIP3    H146766   6.893   6.145  15.264  0.5540 -0.6438 -2.4224
 8425TIP3    H246767   6.752   6.102  15.230 -1.0976  1.4453  1.1416
 8426TIP3   OH246768   3.215   4.955  16.415  0.1765 -0.5320  0.0041
 8426TIP3    H146769   3.239   5.048  16.418 -1.8050  0.0445 -0.2843
 8426TIP3    H246770   3.234   4.922  16.503  0.3850  0.2858  0.2710
 8427TIP3   OH246771   0.475   0.786  15.323  0.3702 -0.0160 -0.2021
 8427TIP3    H146772   0.396   0.841  15.313  0.7024  0.7638  1.2366
 8427TIP3    H246773   0.441   0.700  15.346 -0.0794  0.2376  0.1019
 8428TIP3   OH246774   5.940   3.539   4.426  0.1295  0.3055  0.3018
 8428TIP3    H146775   5.903   3.474   4.486  1.3601 -1.4032 -0.7225
 8428TIP3    H246776   6.022   3.501   4.397  1.1576  2.5759  0.0317
 8429TIP3   OH246777   0.955   5.790   4.012  0.0868  0.1729  0.4618
 8429TIP3    H146778   1.032   5.842   3.988  0.6073 -0.4004  0.8800
 8429TIP3    H246779   0.962   5.711   3.959  0.5824 -0.5436  1.5544
 8430TIP3   OH246780   4.921   5.304  15.271 -0.1914 -0.2452 -0.5926
 8430TIP3    H146781   4.904   5.321  15.364  1.3008  1.5732 -0.5910
 8430TIP3    H246782   4.989   5.237  15.271  1.0999  1.0133 -0.2745
 8431TIP3   OH246783   3.830   0.478   0.012  0.1252 -0.1280  0.2307
 8431TIP3    H146784   3.754   0.534  -0.004 -0.5100 -0.5246  1.7134
 8431TIP3    H246785   3.903   0.527  -0.025 -0.7183  0.6701 -0.4482
 8432TIP3   OH246786   3.326   3.981  12.741 -0.3457  0.2391  0.5179
 8432TIP3    H146787   3.314   3.963  12.648  0.7251 -0.5734  0.5246
 8432TIP3    H246788   3.316   4.076  12.748  0.3308  0.4057 -0.5505
 8433TIP3   OH246789   3.823   6.160  15.210  0.0566  0.6493 -0.1359
 8433TIP3    H146790   3.742   6.179  15.163  0.9254  1.3171 -1.4416
 8433TIP3    H246791   3.887   6.219  15.171  1.8002 -1.6578 -0.9754
 8434TIP3   OH246792   0.929   5.636  16.649 -0.1113  0.0462  0.3654
 8434TIP3    H146793   0.845   5.609  16.686 -0.2614 -0.8888 -0.5905
 8434TIP3    H246794   0.915   5.725  16.618 -0.0116  0.8237  2.3813
 8435TIP3   OH246795   3.341   1.391   4.056 -0.4140 -0.5246  0.3906
 8435TIP3    H146796   3.348   1.482   4.025 -0.4396 -0.1845  1.3535
 8435TIP3    H246797   3.344   1.398   4.151  0.4889 -1.6075  0.4697
 8436TIP3   OH246798   5.646   4.995  16.351 -0.1334 -0.6037  0.1402
 8436TIP3    H146799   5.601   4.975  16.269 -0.5559  0.3216  0.1281
 8436TIP3    H246800   5.579   4.981  16.418  0.4114 -2.0708  0.4253
 8437TIP3   OH246801   2.457   5.709  10.712 -0.3782  0.1536 -0.0171
 8437TIP3    H146802   2.487   5.619  10.725  2.9971  0.8555 -1.7455
 8437TIP3    H246803   2.392   5.703  10.642 -2.8160 -1.2003  2.2072
 8438TIP3   OH246804   3.223   3.117  13.965  0.4404 -0.3241 -0.1616
 8438TIP3    H146805   3.217   3.197  14.017 -0.9540 -0.9343  0.6959
 8438TIP3    H246806   3.201   3.144  13.876  2.5382  0.6744 -0.4319
 8439TIP3   OH246807   2.874   3.272   4.003 -0.2801  0.2004 -0.1744
 8439TIP3    H146808   2.850   3.317   4.084  0.8218  1.4971 -0.5314
 8439TIP3    H246809   2.791   3.240   3.968 -1.1391  2.0299  0.0863
 8440TIP3   OH246810   1.110   4.287   0.964 -0.4761  0.2668  0.3332
 8440TIP3    H146811   1.030   4.279   1.016  0.3985 -1.9103  1.4398
 8440TIP3    H246812   1.120   4.201   0.922  0.5175  0.9826 -0.9836
 8441TIP3   OH246813   6.267   5.646  15.055 -0.3719 -0.1064  0.3363
 8441TIP3    H146814   6.250   5.567  15.107 -1.3523  0.8938  1.6004
 8441TIP3    H246815   6.274   5.716  15.120 -1.6109  1.1830 -0.8614
 8442TIP3   OH246816   4.677   3.496  14.043  0.4766  0.6625 -0.5350
 8442TIP3    H146817   4.593   3.453  14.025  1.0702  0.1422 -2.2944
 8442TIP3    H246818   4.656   3.563  14.108 -0.9665 -0.5872  0.3701
 8443TIP3   OH246819   0.703   6.333  16.336 -0.3430  0.7095  0.6598
 8443TIP3    H146820   0.704   6.373  16.249  0.7396  0.5005  0.5591
 8443TIP3    H246821   0.795   6.329  16.361 -0.5899  0.0630  1.4968
 8444TIP3   OH246822   6.103   2.052  17.047  0.0402  1.0637 -0.2318
 8444TIP3    H146823   6.090   2.129  17.103 -0.3401  1.3903 -0.7533
 8444TIP3    H246824   6.068   1.979  17.097 -1.5503  1.5552 -0.5699
 8445TIP3   OH246825   6.665   2.815  13.504  0.5549  0.2567  0.9095
 8445TIP3    H146826   6.624   2.813  13.591 -0.7729  1.0459  0.3433
 8445TIP3    H246827   6.735   2.750  13.509  0.1131 -0.1584  2.3731
 8446TIP3   OH246828   0.346   3.091  15.004 -0.3422  0.7859  0.5880
 8446TIP3    H146829   0.256   3.104  14.973 -0.0661 -1.7538 -1.5864
 8446TIP3    H246830   0.401   3.134  14.939  0.0965 -0.1252  0.3456
 8447TIP3   OH246831   4.582   4.700  10.913 -0.0401 -0.0046  0.4506
 8447TIP3    H146832   4.491   4.681  10.936  0.1027 -0.6878  0.4638
 8447TIP3    H246833   4.634   4.646  10.973  0.3833  0.7132  0.7398
 8448TIP3   OH246834   6.228   2.533  14.222  0.1819  0.0825 -0.2087
 8448TIP3    H146835   6.307   2.580  14.194  0.9999 -0.7528  0.5997
 8448TIP3    H246836   6.244   2.443  14.196 -1.2212  0.1545 -1.4377
 8449TIP3   OH246837   3.186   4.907   1.197 -0.1338 -0.0088 -0.1607
 8449TIP3    H146838   3.252   4.976   1.192 -0.8677  0.7009 -0.1930
 8449TIP3    H246839   3.212   4.856   1.274 -0.8226  1.6265  1.2233
 8450TIP3   OH246840   2.471   2.453  17.003  0.3036  0.2062  0.1294
 8450TIP3    H146841   2.524   2.417  17.074 -0.9312 -2.8577 -0.3765
 8450TIP3    H246842   2.390   2.482  17.045 -0.0057 -0.6555  0.1475
 8451TIP3   OH246843   5.843   4.488  13.252  0.4325  0.3951 -0.7642
 8451TIP3    H146844   5.766   4.490  13.308  1.1260  0.5357  0.2271
 8451TIP3    H246845   5.877   4.398  13.261  2.2980  1.2115  1.6088
 8452TIP3   OH246846   4.716   3.286  15.194  0.0093  0.3720 -0.0684
 8452TIP3    H146847   4.759   3.265  15.277 -0.2373  1.2892  0.2950
 8452TIP3    H246848   4.780   3.340  15.147 -0.2600  0.7106 -0.0453
 8453TIP3   OH246849   0.903   6.245   4.029  0.2267  0.3124 -0.2491
 8453TIP3    H146850   0.855   6.244   4.112 -1.4413 -1.7796 -1.1468
 8453TIP3    H246851   0.892   6.157   3.994 -0.0936  1.4317 -3.2336
 8454TIP3   OH246852   0.896   2.573   0.669  0.5611 -0.4080  0.2164
 8454TIP3    H146853   0.890   2.567   0.764 -0.5250 -0.8620  0.1308
 8454TIP3    H246854   0.816   2.531   0.637  0.5364  0.4278 -0.8784
 8455TIP3   OH246855   0.685   2.908   1.827 -0.0845 -0.1034 -0.5325
 8455TIP3    H146856   0.655   2.848   1.759  0.8515 -0.1834 -0.8864
 8455TIP3    H246857   0.772   2.936   1.798 -0.6688  1.7623 -0.5940
 8456TIP3   OH246858   0.648   5.105   4.224 -0.5195  0.0398 -0.0957
 8456TIP3    H146859   0.700   5.052   4.164  1.3244  0.9592  0.5961
 8456TIP3    H246860   0.623   5.182   4.172 -0.4381  0.0004 -0.1931
 8457TIP3   OH246861   1.720   4.830   0.396  0.0403  0.1283 -0.2185
 8457TIP3    H146862   1.707   4.796   0.307 -3.3622 -2.8341  1.1513
 8457TIP3    H246863   1.775   4.765   0.439  0.3303  0.6957  0.2866
 8458TIP3   OH246864   5.892   1.459   0.681  0.5173 -0.4866  0.2825
 8458TIP3    H146865   5.936   1.527   0.631  0.1229 -0.6423 -0.2894
 8458TIP3    H246866   5.910   1.378   0.633 -0.5565 -0.5284 -0.0853
 8459TIP3   OH246867   0.038   4.749  11.911 -0.1335 -0.3041 -0.1025
 8459TIP3    H146868   0.129   4.776  11.927  0.2762 -1.5798 -0.1717
 8459TIP3    H246869   0.009   4.806  11.840  0.1364  1.0687  0.8423
 8460TIP3   OH246870   6.348   1.192  14.925 -0.0767 -0.1171 -0.5287
 8460TIP3    H146871   6.337   1.175  14.831  0.4078 -0.8001 -0.4692
 8460TIP3    H246872   6.439   1.168  14.943 -0.3978 -0.7749  0.2791
 8461TIP3   OH246873   3.728   5.989   5.754 -0.4345 -0.2310  0.3087
 8461TIP3    H146874   3.673   6.063   5.727  0.4116  0.0753 -0.6632
 8461TIP3    H246875   3.673   5.912   5.741 -1.1832  0.1916  0.9199
 8462TIP3   OH246876   5.629   6.266   0.407 -0.6151 -0.0565  0.1336
 8462TIP3    H146877   5.635   6.180   0.365 -1.0108 -0.0765  0.1146
 8462TIP3    H246878   5.582   6.320   0.344 -2.0519 -0.3338  0.9135
 8463TIP3   OH246879   1.360   0.026  15.280 -0.1249  0.2788  0.1287
 8463TIP3    H146880   1.428   0.038  15.213 -1.1842 -1.1548 -1.2661
 8463TIP3    H246881   1.399  -0.033  15.344  0.0330 -0.3982 -0.5754
 8464TIP3   OH246882   3.681   3.637  15.858  0.1958  0.1747  0.3478
 8464TIP3    H146883   3.651   3.570  15.797  0.2470 -1.4426  2.0171
 8464TIP3    H246884   3.698   3.713  15.803 -5.3555  0.8353 -1.1027
 8465TIP3   OH246885   1.934   0.178  13.761 -0.2337 -0.0683 -0.4032
 8465TIP3    H146886   1.862   0.232  13.728 -0.3296 -0.0777 -0.2081
 8465TIP3    H246887   1.990   0.163  13.684 -0.0516  0.5540 -0.3918
 8466TIP3   OH246888   0.788   3.442   0.975 -0.1889 -0.5521 -0.7523
 8466TIP3    H146889   0.699   3.418   0.950  0.0836 -0.8405 -1.4874
 8466TIP3    H246890   0.844   3.386   0.920  0.4467  0.3858 -1.0827
 8467TIP3   OH246891   4.232   3.672  14.889 -0.6037  0.0029  0.2696
 8467TIP3    H146892   4.171   3.623  14.943 -1.4650  0.2643 -0.4498
 8467TIP3    H246893   4.195   3.668  14.800  0.2564  0.4231 -0.1243
 8468TIP3   OH246894   5.341   2.491  16.482 -0.5624 -0.4451 -0.2589
 8468TIP3    H146895   5.319   2.466  16.572 -0.3049  0.7537  0.1490
 8468TIP3    H246896   5.385   2.576  16.491  1.3745 -1.2673 -1.3221
 8469TIP3   OH246897   0.240   5.354  16.851  0.5606  0.0096  0.3525
 8469TIP3    H146898   0.264   5.444  16.829  2.4709 -0.4203  0.5167
 8469TIP3    H246899   0.310   5.324  16.908 -0.8578 -1.0944  1.5862
 8470TIP3   OH246900   6.271   3.296   3.952 -0.2258  0.1231  0.0236
 8470TIP3    H146901   6.334   3.368   3.949 -0.2896  0.1684 -0.2398
 8470TIP3    H246902   6.200   3.328   4.006  0.6073 -0.4335  1.5209
 8471TIP3   OH246903   5.852   4.288  12.970  0.1777 -0.2443  0.1280
 8471TIP3    H146904   5.770   4.285  12.921  0.2361 -1.9773  0.0682
 8471TIP3    H246905   5.832   4.249  13.055  0.9639 -0.8387  0.0557
 8472TIP3   OH246906   1.914   6.168  15.661  0.1864 -0.0538 -0.0665
 8472TIP3    H146907   1.995   6.219  15.657 -1.4076  2.7351 -0.0902
 8472TIP3    H246908   1.921   6.106  15.589  2.7063 -0.6396  0.5966
 8473TIP3   OH246909   0.813   3.179   1.274 -0.0577  0.0859  0.4284
 8473TIP3    H146910   0.867   3.126   1.216 -1.2909 -1.5539  0.7009
 8473TIP3    H246911   0.823   3.137   1.360  1.8140  2.5150  1.4948
 8474TIP3   OH246912   0.016   6.210   4.771 -0.2221 -0.5857  0.2384
 8474TIP3    H146913  -0.079   6.210   4.778 -0.2469 -0.5372 -0.0800
 8474TIP3    H246914   0.037   6.123   4.736  0.0253 -1.5020  2.4640
 8475TIP3   OH246915   1.768   2.266  13.339  0.6554 -0.1463  0.5295
 8475TIP3    H146916   1.792   2.175  13.356  1.3664  0.0126  0.4158
 8475TIP3    H246917   1.784   2.311  13.423 -0.8303 -0.3392  0.9388
 8476TIP3   OH246918   6.369   4.724  10.670  0.0628  0.2442  0.8620
 8476TIP3    H146919   6.297   4.691  10.617 -0.8550  0.8617  1.6825
 8476TIP3    H246920   6.414   4.645  10.701  1.1253 -0.1254 -1.4364
 8477TIP3   OH246921   4.382   3.216  15.602 -0.6442 -0.0952  1.2478
 8477TIP3    H146922   4.389   3.312  15.603 -2.1610  0.0418  1.7422
 8477TIP3    H246923   4.324   3.198  15.528 -0.1846 -0.6599  1.0220
 8478TIP3   OH246924   2.151   6.041   3.334  0.6306  0.6031 -0.4488
 8478TIP3    H146925   2.122   6.064   3.423  0.9214  4.2022 -1.1224
 8478TIP3    H246926   2.245   6.024   3.344  0.4702 -0.0642  0.0510
 8479TIP3   OH246927   4.054   3.785   2.210  0.4727 -0.6186  0.1107
 8479TIP3    H146928   4.068   3.692   2.227  1.7903 -0.3209  0.8173
 8479TIP3    H246929   4.129   3.811   2.156 -0.2153 -0.1010 -0.6038
 8480TIP3   OH246930   2.615   3.506   6.581 -0.2217  0.0602  0.0947
 8480TIP3    H146931   2.545   3.483   6.642 -0.0474  0.1418  0.3254
 8480TIP3    H246932   2.695   3.500   6.632  0.0561 -1.0901 -0.4487
 8481TIP3   OH246933   6.171   0.385   3.685 -0.1959 -0.2627 -0.4159
 8481TIP3    H146934   6.085   0.427   3.684  0.3251  0.9047  0.8807
 8481TIP3    H246935   6.156   0.300   3.644 -2.0653 -0.2829  0.2022
 8482TIP3   OH246936   0.189   2.466   2.082 -0.0093 -0.0133 -0.1360
 8482TIP3    H146937   0.264   2.523   2.064  0.0653 -0.1724 -0.3288
 8482TIP3    H246938   0.211   2.424   2.165  1.1748 -1.7886 -1.2896
 8483TIP3   OH246939   1.105   6.325   4.453  0.3313 -0.5350  0.5035
 8483TIP3    H146940   1.050   6.254   4.421 -0.0778 -0.2280  0.5163
 8483TIP3    H246941   1.132   6.298   4.541  1.3999 -1.3528 -0.0519
 8484TIP3   OH246942   3.142   2.282   5.864 -0.7629 -0.0043  0.0674
 8484TIP3    H146943   3.222   2.231   5.878 -1.2468 -0.7877  0.0307
 8484TIP3    H246944   3.164   2.370   5.895  0.5585  0.1560 -1.1793
 8485TIP3   OH246945   0.456   0.640   4.207  0.4739  0.1141  0.0907
 8485TIP3    H146946   0.451   0.710   4.272  1.2571 -1.5981  2.1305
 8485TIP3    H246947   0.543   0.601   4.219  0.7980 -0.0674 -2.2724
 8486TIP3   OH246948   2.734   3.981   2.465  0.1715 -0.0894  0.3521
 8486TIP3    H146949   2.674   3.934   2.407 -0.9362  1.1800  0.4247
 8486TIP3    H246950   2.722   4.073   2.442  2.8585  0.1824 -0.3428
 8487TIP3   OH246951   3.308   0.215   4.127  0.0439 -0.0481 -0.1037
 8487TIP3    H146952   3.213   0.227   4.133  0.1779  1.9448 -1.3188
 8487TIP3    H246953   3.338   0.285   4.070  2.4161  0.0724  1.1617
 8488TIP3   OH246954   6.807   5.821   4.909  0.6146  0.1311 -0.1874
 8488TIP3    H146955   6.856   5.888   4.957  1.4215 -1.2676  0.9979
 8488TIP3    H246956   6.729   5.806   4.962 -0.1710  0.9427 -1.0683
 8489TIP3   OH246957   2.060   3.070  13.882  0.2962 -0.3232 -0.3056
 8489TIP3    H146958   1.990   3.032  13.828  1.2401 -1.7038 -0.6113
 8489TIP3    H246959   2.141   3.047  13.836  0.9365  2.9529 -1.0265
 8490TIP3   OH246960   1.953   5.100   3.985 -0.0982  0.0663 -0.0783
 8490TIP3    H146961   2.018   5.056   3.930 -1.3107 -1.2857 -0.4943
 8490TIP3    H246962   2.004   5.142   4.054  1.1168 -2.4450  0.6503
 8491TIP3   OH246963   2.039   5.766  12.934 -0.5005 -0.2793  0.3672
 8491TIP3    H146964   2.072   5.754  13.023  0.9410  0.2420 -0.0670
 8491TIP3    H246965   2.069   5.854  12.909 -0.6505 -0.5217 -0.7241
 8492TIP3   OH246966   2.849   1.135  16.870 -0.4135  0.0676  0.0133
 8492TIP3    H146967   2.854   1.206  16.806 -2.8059 -2.1531 -2.9590
 8492TIP3    H246968   2.927   1.082  16.854 -0.5155  0.0480 -0.4430
 8493TIP3   OH246969   2.660   6.418  14.080  0.0945 -0.4102 -0.0128
 8493TIP3    H146970   2.679   6.511  14.063  2.1097 -0.5894  1.0374
 8493TIP3    H246971   2.722   6.392  14.148 -2.7135 -1.6562  2.2928
 8494TIP3   OH246972   1.187   2.018   5.099 -0.2322 -0.2802  0.2915
 8494TIP3    H146973   1.170   2.106   5.134  0.0523  0.4996 -1.4476
 8494TIP3    H246974   1.279   2.003   5.118 -0.4930 -0.6064  1.3929
 8495TIP3   OH246975   6.680   1.318  15.796  0.4189  0.0888 -0.1652
 8495TIP3    H146976   6.587   1.340  15.786  0.3580 -0.5359 -1.0986
 8495TIP3    H246977   6.707   1.362  15.876 -1.1174 -1.0684  1.0476
 8496TIP3   OH246978   2.133   6.551  13.194 -0.4417  0.5306  0.3254
 8496TIP3    H146979   2.178   6.512  13.119 -0.5275  0.5433  0.2672
 8496TIP3    H246980   2.108   6.638  13.164  0.7187  1.0610  0.8228
 8497TIP3   OH246981   1.296   6.034   3.419 -0.2043  0.4696  0.2918
 8497TIP3    H146982   1.201   6.025   3.407 -0.0973  0.8733 -1.0937
 8497TIP3    H246983   1.306   6.067   3.508 -1.3814  0.6104  0.3940
 8498TIP3   OH246984   2.404   1.902  11.895 -0.3683 -0.4659 -0.4786
 8498TIP3    H146985   2.347   1.836  11.855 -2.4123  0.8089  0.1427
 8498TIP3    H246986   2.347   1.948  11.957  1.2829  1.1105 -0.0499
 8499TIP3   OH246987   0.899   1.055   5.096  0.2780 -0.7444 -0.1548
 8499TIP3    H146988   0.846   1.119   5.048  1.1204 -0.1263 -0.2872
 8499TIP3    H246989   0.937   1.105   5.168  2.3457 -0.6415 -1.2554
 8500TIP3   OH246990   0.318   1.774   5.170 -0.4891 -0.2037 -0.0014
 8500TIP3    H146991   0.378   1.774   5.245  0.1022 -2.4385 -0.4012
 8500TIP3    H246992   0.260   1.848   5.187  1.1284  0.8433  1.4120
 8501TIP3   OH246993   2.436   0.283   4.991 -0.0414  0.5089 -0.4445
 8501TIP3    H146994   2.521   0.254   5.024 -0.1578  0.5593 -0.0995
 8501TIP3    H246995   2.372   0.242   5.049 -0.3038 -0.3903 -1.3477
 8502TIP3   OH246996   2.897   6.279  11.784 -0.1428 -0.1156  0.2582
 8502TIP3    H146997   2.976   6.327  11.811  0.1803 -1.2312  1.3625
 8502TIP3    H246998   2.878   6.314  11.697  0.1034  1.9621  0.9684
 8503TIP3   OH246999   0.532   5.079  12.839 -0.0278 -0.0691  0.2652
 8503TIP3    H147000   0.461   5.080  12.903 -0.8727 -1.0422 -0.6219
 8503TIP3    H247001   0.603   5.029  12.882 -0.1725  0.2297  0.8534
 8504TIP3   OH247002   0.716   2.162   0.455  0.8467  0.2704 -0.2524
 8504TIP3    H147003   0.719   2.256   0.433 -0.8859  0.4654  0.2426
 8504TIP3    H247004   0.747   2.118   0.376  0.5757  1.2114 -0.8978
 8505TIP3   OH247005   3.723   3.051   2.008  1.2425  0.2514  0.3346
 8505TIP3    H147006   3.794   2.993   2.034  1.3563 -1.1203 -2.5593
 8505TIP3    H247007   3.753   3.090   1.925 -0.9981  0.2566 -0.5612
 8506TIP3   OH247008   3.041   6.030  11.808 -0.4950  0.1819 -0.0718
 8506TIP3    H147009   2.972   6.093  11.826 -0.7615 -0.1217 -0.0211
 8506TIP3    H247010   3.122   6.076  11.829 -0.6877  0.5093 -0.0498
 8507TIP3   OH247011   6.600   3.443  12.292 -0.5036  0.1876 -0.6004
 8507TIP3    H147012   6.591   3.351  12.265  0.4578  0.3906 -1.7169
 8507TIP3    H247013   6.578   3.443  12.385 -2.9590 -0.7486 -1.1045
 8508TIP3   OH247014   1.621   4.118   2.655 -0.1145  0.1698  0.3431
 8508TIP3    H147015   1.570   4.146   2.731  1.6798 -0.2733  1.7894
 8508TIP3    H247016   1.622   4.022   2.660  1.5946  0.1824  0.9115
 8509TIP3   OH247017   2.458   2.657   0.077  1.0324 -0.3373 -0.1228
 8509TIP3    H147018   2.540   2.609   0.088  1.8114  1.0729  0.5557
 8509TIP3    H247019   2.477   2.744   0.111 -0.9841 -0.1867  0.7858
 8510TIP3   OH247020   0.425   1.031   5.317 -0.0183  0.3343  0.2913
 8510TIP3    H147021   0.455   0.974   5.389  0.2145 -0.5662 -0.4947
 8510TIP3    H247022   0.480   1.109   5.324  0.4261 -0.0072  0.7213
 8511TIP3   OH247023   3.630   4.978  15.905  0.2367  0.1459 -0.1139
 8511TIP3    H147024   3.559   5.042  15.911  1.3546  1.2794  2.1092
 8511TIP3    H247025   3.699   5.025  15.858 -0.5467 -1.1144 -2.7084
 8512TIP3   OH247026   3.641   2.696  17.068  0.2913  0.3371  0.2699
 8512TIP3    H147027   3.721   2.651  17.094 -0.6679 -1.8315 -0.3107
 8512TIP3    H247028   3.599   2.719  17.151  0.9761  0.4607  0.5836
 8513TIP3   OH247029   0.033   5.378  14.815  0.2853  0.5796 -0.1594
 8513TIP3    H147030   0.013   5.314  14.746  1.2385  0.7580 -0.6282
 8513TIP3    H247031   0.002   5.337  14.896  0.3242 -0.2093 -0.5321
 8514TIP3   OH247032   1.889   0.852   2.080 -0.0774 -0.0223 -0.4658
 8514TIP3    H147033   1.816   0.898   2.123 -0.7739 -0.1791 -1.4657
 8514TIP3    H247034   1.870   0.860   1.987  2.2309  1.6896 -0.8710
 8515TIP3   OH247035   4.328   3.820  16.989  0.1032 -0.2656 -0.0243
 8515TIP3    H147036   4.262   3.853  16.929 -0.0278 -0.9050 -0.2412
 8515TIP3    H247037   4.360   3.739  16.948  1.1323  0.1160 -0.0017
 8516TIP3   OH247038   1.789   2.674  14.685 -0.3993  0.0465 -0.7362
 8516TIP3    H147039   1.775   2.753  14.632  0.3371 -1.2415 -3.0087
 8516TIP3    H247040   1.701   2.644  14.705 -0.6986  0.9365 -0.6358
 8517TIP3   OH247041   0.005   0.459  14.424  0.0034  0.2297 -0.3657
 8517TIP3    H147042   0.078   0.438  14.482 -1.0389 -0.6644  0.6780
 8517TIP3    H247043  -0.067   0.481  14.483 -0.6016  1.0271 -1.3717
 8518TIP3   OH247044   0.871   1.139  13.034  0.9096  0.1007 -0.7357
 8518TIP3    H147045   0.892   1.063  12.979  0.1636  0.5757 -1.6971
 8518TIP3    H247046   0.953   1.158  13.081  1.6916 -0.0580 -1.9972
 8519TIP3   OH247047   1.862   2.146  13.701  0.0651 -0.3977  0.1300
 8519TIP3    H147048   1.833   2.223  13.652 -1.8736  0.6216  2.6936
 8519TIP3    H247049   1.794   2.080  13.685  0.9630 -1.1285 -0.8559
 8520TIP3   OH247050   3.645   3.131  13.248 -0.2007  0.1331 -0.1155
 8520TIP3    H147051   3.650   3.225  13.233  0.3260 -0.0052 -0.9160
 8520TIP3    H247052   3.736   3.105  13.263 -0.4358 -0.1314  0.9281
 8521TIP3   OH247053   4.555   4.405  10.930 -0.0923 -0.1353  0.7815
 8521TIP3    H147054   4.549   4.406  10.834 -0.8357  2.4870  0.7913
 8521TIP3    H247055   4.640   4.444  10.949  0.0513 -0.6445  1.2137
 8522TIP3   OH247056   5.410   3.319   0.898 -0.1204  0.5327  0.0522
 8522TIP3    H147057   5.419   3.404   0.941  0.7434  0.2595  0.4176
 8522TIP3    H247058   5.406   3.340   0.805  1.6153  0.8844  0.0325
 8523TIP3   OH247059   2.787   1.760   0.929  0.3746  0.0299 -0.1885
 8523TIP3    H147060   2.843   1.738   1.003  1.4344  0.7135 -0.7636
 8523TIP3    H247061   2.803   1.854   0.914 -1.9751  0.6223  0.5184
 8524TIP3   OH247062   2.346   3.834   4.745 -0.0785 -0.1404  0.2864
 8524TIP3    H147063   2.284   3.834   4.818 -0.1781  0.0235  0.2022
 8524TIP3    H247064   2.363   3.927   4.728 -2.2158 -0.0245 -1.7237
 8525TIP3   OH247065   0.259   6.230  17.124 -0.2312 -0.4074  0.1863
 8525TIP3    H147066   0.321   6.282  17.073  0.5096 -0.8109  0.6570
 8525TIP3    H247067   0.246   6.150  17.072 -0.1783 -0.4234  0.1981
 8526TIP3   OH247068   3.244   0.488  14.020  0.0868 -0.7626 -0.1024
 8526TIP3    H147069   3.322   0.447  14.056  0.0671 -1.1995 -0.5422
 8526TIP3    H247070   3.277   0.548  13.952  0.1155 -0.0481  0.5335
 8527TIP3   OH247071   5.554   6.261   4.964  0.6671  0.0319 -0.8617
 8527TIP3    H147072   5.497   6.199   5.011  2.4123 -0.1048  1.2599
 8527TIP3    H247073   5.621   6.205   4.924  1.5531  0.3931  0.0495
 8528TIP3   OH247074   0.928   1.242   2.536  0.4801 -0.1182 -0.3926
 8528TIP3    H147075   0.862   1.182   2.502  0.1262 -0.0098  0.0950
 8528TIP3    H247076   0.897   1.265   2.623  0.9791  0.2165 -0.2994
 8529TIP3   OH247077   1.425   1.351   3.178  0.0033 -0.4073 -0.0981
 8529TIP3    H147078   1.515   1.359   3.147  0.1547  1.0233  0.6573
 8529TIP3    H247079   1.391   1.275   3.131  0.8817  0.3824 -2.1211
 8530TIP3   OH247080   5.092   4.689   4.786  0.4641 -0.0135  0.3508
 8530TIP3    H147081   5.011   4.675   4.737 -0.1176  1.7616  0.7501
 8530TIP3    H247082   5.128   4.601   4.797 -0.7850 -0.7290 -0.8650
 8531TIP3   OH247083   2.417   5.431  16.751 -0.0780 -0.3329  0.7077
 8531TIP3    H147084   2.440   5.438  16.844 -0.1532  1.7657  0.6069
 8531TIP3    H247085   2.321   5.428  16.751 -0.0565 -2.0434  0.7500
 8532TIP3   OH247086   4.729   5.119   3.850 -0.7203  0.1692  0.1457
 8532TIP3    H147087   4.655   5.171   3.819 -0.0120  1.8347  1.1416
 8532TIP3    H247088   4.797   5.134   3.785 -0.6435  0.1465  0.2216
 8533TIP3   OH247089   1.332   2.729   0.918 -0.0154 -0.9337  0.0273
 8533TIP3    H147090   1.267   2.693   0.859 -1.0165  0.6326  0.1472
 8533TIP3    H247091   1.316   2.823   0.919  1.1354 -0.7103  1.3981
 8534TIP3   OH247092   0.979   4.783  14.785  0.1449 -0.4591 -0.1230
 8534TIP3    H147093   0.946   4.694  14.796 -0.2898 -0.1657  1.0038
 8534TIP3    H247094   0.909   4.839  14.818 -0.6459  0.4561 -3.0169
 8535TIP3   OH247095   1.473   6.130  13.765 -0.4182 -0.0560 -0.2112
 8535TIP3    H147096   1.545   6.142  13.704 -0.8491 -1.9785 -1.1921
 8535TIP3    H247097   1.501   6.057  13.821 -1.2257 -0.2270 -0.0108
 8536TIP3   OH247098   3.643   4.098   6.168  0.3372 -0.3592  0.0195
 8536TIP3    H147099   3.614   4.100   6.077 -1.0238  2.4036  0.4140
 8536TIP3    H247100   3.722   4.044   6.167 -0.8562 -2.2292 -2.3791
 8537TIP3   OH247101   6.016   6.768   2.699 -0.3792 -0.2462 -0.1919
 8537TIP3    H147102   5.935   6.788   2.747  0.3722 -1.0179  1.4937
 8537TIP3    H247103   5.999   6.683   2.658 -0.4165 -0.4410  0.2194
 8538TIP3   OH247104   5.195   2.160   0.743  0.2578  0.3880 -0.6179
 8538TIP3    H147105   5.284   2.183   0.770  0.7524 -0.7627 -1.2179
 8538TIP3    H247106   5.206   2.120   0.657 -0.8201 -0.0006 -0.5803
 8539TIP3   OH247107   1.988   3.757  11.314  0.7581 -0.2594 -0.0820
 8539TIP3    H147108   2.019   3.826  11.372 -1.1540  0.0960  0.5895
 8539TIP3    H247109   1.917   3.714  11.362 -2.6083  1.5904 -2.8582
 8540TIP3   OH247110   2.655   6.726  11.800  0.3190  0.1913 -0.5046
 8540TIP3    H147111   2.566   6.693  11.790 -0.0233  1.2290 -0.9614
 8540TIP3    H247112   2.709   6.647  11.809 -0.5805 -0.4593 -0.7297
 8541TIP3   OH247113   1.385   1.837  15.215 -0.0478  0.1800  0.6251
 8541TIP3    H147114   1.339   1.881  15.286 -0.1179  1.0297  0.0694
 8541TIP3    H247115   1.389   1.745  15.242 -1.4559  0.2056  0.9959
 8542TIP3   OH247116   3.015   1.931   1.301  0.0708 -0.6448 -0.0153
 8542TIP3    H147117   3.058   1.847   1.285 -0.5690 -0.8712 -0.6055
 8542TIP3    H247118   3.036   1.952   1.392 -0.4479 -1.8546  0.3995
 8543TIP3   OH247119   3.329   6.726   5.917 -0.3596 -0.2011  0.3843
 8543TIP3    H147120   3.242   6.765   5.917 -0.7585 -0.8088 -3.1677
 8543TIP3    H247121   3.313   6.632   5.905  0.7876 -0.4914  0.9393
 8544TIP3   OH247122   2.019   0.475   0.953  0.0478 -0.8427  0.1985
 8544TIP3    H147123   1.978   0.487   1.039  0.2125 -1.2562  0.3412
 8544TIP3    H247124   1.992   0.551   0.902  0.8217 -0.0338  0.9519
 8545TIP3   OH247125   5.015   1.903  13.024  0.2188  0.3085 -0.3486
 8545TIP3    H147126   4.936   1.863  13.059  1.2684 -0.5657  1.0756
 8545TIP3    H247127   5.068   1.830  12.993  0.7659  0.8464 -0.7155
 8546TIP3   OH247128   5.325   3.311   2.507  0.2931  0.2662 -0.1164
 8546TIP3    H147129   5.409   3.279   2.539  0.4582  0.3102 -0.4982
 8546TIP3    H247130   5.311   3.393   2.555  0.8553  0.6714 -0.6261
 8547TIP3   OH247131   5.509   1.612   6.603  0.0753 -0.8567 -0.3856
 8547TIP3    H147132   5.483   1.595   6.694 -0.7474 -1.6810 -0.7673
 8547TIP3    H247133   5.585   1.555   6.588  1.0150  0.1999  0.1513
 8548TIP3   OH247134   4.998   1.314  12.787  0.2712  0.2331  0.4638
 8548TIP3    H147135   4.924   1.334  12.730 -0.0224  1.1627  1.1342
 8548TIP3    H247136   4.984   1.224  12.815  0.2614 -0.1363 -0.6732
 8549TIP3   OH247137   0.544   3.997   0.525  0.0693 -0.0734 -0.4142
 8549TIP3    H147138   0.582   4.020   0.610  1.0785 -0.3467 -0.7872
 8549TIP3    H247139   0.592   3.919   0.497 -0.1208  0.1281 -1.3288
 8550TIP3   OH247140   5.060   4.541   1.000  0.3198 -0.3826 -0.2354
 8550TIP3    H147141   5.030   4.495   1.078 -0.0914  0.2054 -0.0395
 8550TIP3    H247142   5.104   4.619   1.033  1.9313 -1.1152 -0.5226
 8551TIP3   OH247143   3.748   6.607   3.327  0.7977 -0.9266 -0.0228
 8551TIP3    H147144   3.764   6.589   3.419  0.6424 -1.5834 -0.1144
 8551TIP3    H247145   3.695   6.686   3.326  0.5786 -1.0650  0.4658
 8552TIP3   OH247146   3.326   6.471  13.693  0.1210  0.6175 -0.1411
 8552TIP3    H147147   3.364   6.386  13.668 -2.5082 -0.9583  0.8589
 8552TIP3    H247148   3.318   6.466  13.788 -0.7638  1.6816 -0.1530
 8553TIP3   OH247149   5.992   5.134  11.192  0.3037  0.3443  0.0115
 8553TIP3    H147150   5.988   5.096  11.104  0.3803  0.0457  0.1377
 8553TIP3    H247151   5.901   5.155  11.213 -0.1289 -2.1803  0.9955
 8554TIP3   OH247152   1.456   2.993   6.494  0.1284  0.3704 -0.0682
 8554TIP3    H147153   1.520   3.063   6.478 -0.6685  0.9604 -0.7621
 8554TIP3    H247154   1.374   3.038   6.512 -0.2563 -0.3880  0.1405
 8555TIP3   OH247155   1.242   4.007  15.036 -0.1000  0.1057 -0.1342
 8555TIP3    H147156   1.333   4.035  15.033 -0.0991  0.1958  0.4512
 8555TIP3    H247157   1.193   4.089  15.042 -0.2176  0.0575 -0.4471
 8556TIP3   OH247158   2.471   3.553   5.829  0.2469 -0.5384  0.2675
 8556TIP3    H147159   2.418   3.556   5.749 -0.3496 -0.5801  0.6609
 8556TIP3    H247160   2.421   3.602   5.894  1.5179  0.9725  0.1712
 8557TIP3   OH247161   3.653   2.902   1.054  0.0089  0.3873  0.2286
 8557TIP3    H147162   3.637   2.808   1.062  2.8890 -0.1134  1.8695
 8557TIP3    H247163   3.624   2.938   1.138 -0.5150  0.8489 -0.1516
 8558TIP3   OH247164   3.028   5.298  13.009 -0.0209  0.0442  0.5097
 8558TIP3    H147165   2.935   5.313  13.026 -0.3486 -1.3623  0.1161
 8558TIP3    H247166   3.030   5.237  12.935  1.1665 -1.0680  1.3955
 8559TIP3   OH247167   5.640   4.309  11.360  0.4802  0.2037 -0.5086
 8559TIP3    H147168   5.715   4.287  11.416  0.2984  2.6456  0.8524
 8559TIP3    H247169   5.648   4.250  11.285  1.1737 -2.6936  1.6798
 8560TIP3   OH247170   5.066   4.977  12.499 -0.0061 -0.1625 -0.5166
 8560TIP3    H147171   5.136   5.021  12.548  0.2294 -1.0003 -0.0816
 8560TIP3    H247172   5.060   5.026  12.417  0.8933  0.0912 -0.4404
 8561TIP3   OH247173   2.972   2.351  11.897 -0.6234 -0.1054  0.1249
 8561TIP3    H147174   3.043   2.287  11.903  0.3695  1.0481  1.3496
 8561TIP3    H247175   2.922   2.323  11.820  0.4684 -1.6264 -0.1017
 8562TIP3   OH247176   5.727   1.038  14.087 -0.2540 -0.2404  0.2235
 8562TIP3    H147177   5.737   0.976  14.015 -0.6175  0.0889 -0.1148
 8562TIP3    H247178   5.754   0.989  14.165  0.0129 -0.6394 -0.1170
 8563TIP3   OH247179   0.508   3.780   6.350  0.1099  0.0496 -0.5597
 8563TIP3    H147180   0.500   3.876   6.352 -1.4201 -0.0352  2.2642
 8563TIP3    H247181   0.422   3.748   6.377  0.5322 -2.1709 -1.6034
 8564TIP3   OH247182   5.352   1.499   3.018  0.1372 -0.3023  0.1776
 8564TIP3    H147183   5.365   1.570   3.081  0.4129  0.8077 -1.0757
 8564TIP3    H247184   5.393   1.423   3.059  1.7036  0.7602  0.6867
 8565TIP3   OH247185   5.129   1.021   3.810  0.1624  0.9471  0.3400
 8565TIP3    H147186   5.172   1.016   3.895  1.8128 -0.7085 -0.5002
 8565TIP3    H247187   5.060   0.954   3.814 -0.0097  1.1363  0.5102
 8566TIP3   OH247188   4.212   5.119   4.543 -0.2771 -0.5417  0.1319
 8566TIP3    H147189   4.214   5.042   4.601 -2.1896 -2.2530 -1.9261
 8566TIP3    H247190   4.119   5.137   4.530  0.1212  0.5047 -1.4998
 8567TIP3   OH247191   2.306   2.855  15.119 -0.0174 -0.0419 -0.0329
 8567TIP3    H147192   2.247   2.922  15.154  0.3854  0.1167  0.3498
 8567TIP3    H247193   2.317   2.879  15.027 -0.2813  0.1218 -0.0248
 8568TIP3   OH247194   0.673   5.565   2.081 -0.0267  0.3379 -0.0759
 8568TIP3    H147195   0.631   5.522   2.156  1.2722  0.5058  0.7985
 8568TIP3    H247196   0.608   5.562   2.011 -1.2637  0.1228  1.0451
 8569TIP3   OH247197   0.449   5.729   3.265  0.1586 -0.6102  0.2589
 8569TIP3    H147198   0.357   5.704   3.261  0.8190 -3.2522 -0.2895
 8569TIP3    H247199   0.483   5.714   3.177  0.6357  2.8840 -0.3171
 8570TIP3   OH247200   0.924   6.568  12.103 -0.4496  0.1419 -0.3892
 8570TIP3    H147201   0.936   6.546  12.195 -3.7860 -1.4722 -0.1986
 8570TIP3    H247202   0.908   6.662  12.102 -3.1608 -0.1969  1.1582
 8571TIP3   OH247203   1.643   3.073  16.686  0.2893  0.5523  0.5119
 8571TIP3    H147204   1.591   3.041  16.759  0.3534  1.8633  1.1542
 8571TIP3    H247205   1.586   3.136  16.641  0.4714  0.2212 -0.2087
 8572TIP3   OH247206   3.015   1.883   6.092  0.5861 -0.0429 -0.2341
 8572TIP3    H147207   3.095   1.931   6.115 -0.7272  2.0034  0.3925
 8572TIP3    H247208   2.971   1.870   6.176 -0.6854  0.6962 -0.7592
 8573TIP3   OH247209   2.757   4.179   3.877  0.6251  0.5960 -0.1398
 8573TIP3    H147210   2.837   4.159   3.926  1.4655 -0.2520 -1.7754
 8573TIP3    H247211   2.783   4.172   3.785 -1.5862 -0.8436 -0.7399
 8574TIP3   OH247212   4.249   6.364   6.618 -0.4529 -0.0690 -0.5506
 8574TIP3    H147213   4.181   6.297   6.611 -0.8694  0.3200 -0.2500
 8574TIP3    H247214   4.209   6.434   6.669  0.4625 -0.2035  0.3796
 8575TIP3   OH247215   6.735   1.442   2.853  0.1605 -0.1864  0.1763
 8575TIP3    H147216   6.782   1.489   2.784 -1.5900  0.5550 -0.5729
 8575TIP3    H247217   6.759   1.350   2.840 -0.8009 -0.1915 -2.0289
 8576TIP3   OH247218   0.293   3.993   5.768 -0.6129  0.2559  0.2658
 8576TIP3    H147219   0.235   4.008   5.694 -1.8246  0.9505  1.3069
 8576TIP3    H247220   0.234   3.968   5.839  0.5871 -1.2079  0.8000
 8577TIP3   OH247221   3.476   1.070   1.305 -0.2238 -0.3180  0.9877
 8577TIP3    H147222   3.487   0.976   1.294  0.1645 -0.0866 -0.7651
 8577TIP3    H247223   3.564   1.106   1.298 -0.2525  0.1287  2.5082
 8578TIP3   OH247224   1.321   3.740   5.974  0.0762  0.2787  0.0151
 8578TIP3    H147225   1.345   3.659   6.020 -1.5030 -0.5521 -0.5141
 8578TIP3    H247226   1.403   3.786   5.962  1.1293 -1.5475 -0.1943
 8579TIP3   OH247227   3.228   0.547  12.488  0.1715  0.4731  0.2124
 8579TIP3    H147228   3.188   0.521  12.571  0.8456 -1.6912 -0.0782
 8579TIP3    H247229   3.280   0.471  12.461  0.4753  1.3464 -1.8846
 8580TIP3   OH247230   4.725   1.525   3.771 -0.3057 -0.9966  0.1120
 8580TIP3    H147231   4.745   1.522   3.865  0.3241 -0.2235  0.0076
 8580TIP3    H247232   4.738   1.435   3.741  0.1693 -1.1060  0.6333
 8581TIP3   OH247233   5.504   4.073  11.724  0.3914  0.0829 -0.2987
 8581TIP3    H147234   5.434   4.085  11.788  1.7312  1.1994  1.0515
 8581TIP3    H247235   5.567   4.016  11.768  0.2694 -1.0753 -1.5623
 8582TIP3   OH247236   1.902   3.958  12.302  0.4573 -0.8532 -0.1761
 8582TIP3    H147237   1.868   4.047  12.292 -2.9159 -1.7584  1.4860
 8582TIP3    H247238   1.868   3.911  12.226 -1.2781 -1.5333  0.9576
 8583TIP3   OH247239   3.100   2.903  14.362  0.8546 -0.5430  0.3918
 8583TIP3    H147240   3.172   2.853  14.324  1.1239  0.4316 -0.4399
 8583TIP3    H247241   3.026   2.842  14.364  1.5147 -1.3537  0.6413
 8584TIP3   OH247242   0.901   2.259  13.631  0.1345 -0.0577  0.0277
 8584TIP3    H147243   0.984   2.225  13.598 -0.5860  0.2381 -2.2572
 8584TIP3    H247244   0.926   2.320  13.700  2.0127  1.6520 -2.0144
 8585TIP3   OH247245   1.105   4.533  15.373 -0.2632 -0.3030  1.0087
 8585TIP3    H147246   1.133   4.616  15.335 -2.4496  0.5377  1.1097
 8585TIP3    H247247   1.187   4.488  15.394  0.9816  1.4525  0.1855
 8586TIP3   OH247248   1.596   3.433   2.984  0.6056  0.2892  0.3253
 8586TIP3    H147249   1.664   3.498   2.970  1.4915 -0.5772  0.4800
 8586TIP3    H247250   1.639   3.363   3.033 -0.4890 -0.1212  0.7419
 8587TIP3   OH247251   4.107   3.688   4.420  1.0490  0.2355  0.1946
 8587TIP3    H147252   4.139   3.657   4.335  0.4093  1.3495 -0.4815
 8587TIP3    H247253   4.115   3.783   4.415  1.2674  0.2999  1.5036
 8588TIP3   OH247254   5.594   1.326  14.639  0.2971  0.1022 -0.0883
 8588TIP3    H147255   5.647   1.248  14.659  1.0020  0.6638  0.2674
 8588TIP3    H247256   5.639   1.397  14.684 -1.0907  0.5048  0.7253
 8589TIP3   OH247257   2.701   2.845   0.617  0.4213  0.1102 -0.1395
 8589TIP3    H147258   2.718   2.776   0.680  1.5006  0.2448 -0.2605
 8589TIP3    H247259   2.754   2.919   0.647  1.4972 -0.0374 -1.5407
 8590TIP3   OH247260   1.937   4.503   3.389 -0.1510 -0.0239  0.2612
 8590TIP3    H147261   1.943   4.489   3.294 -3.5213 -0.8223  0.0549
 8590TIP3    H247262   2.022   4.474   3.422  1.0800  0.1163 -2.4558
 8591TIP3   OH247263   0.289   6.246  14.671 -0.1727 -0.2105  1.0727
 8591TIP3    H147264   0.204   6.203  14.666 -0.1723 -0.1511  0.4046
 8591TIP3    H247265   0.279   6.326  14.619  0.8953 -1.2648 -0.9059
 8592TIP3   OH247266   6.392   1.882  17.056 -0.5239  0.3214  0.4050
 8592TIP3    H147267   6.407   1.912  17.146 -0.4403  1.8493 -0.0897
 8592TIP3    H247268   6.332   1.947  17.019  0.8922  0.8053 -1.2060
 8593TIP3   OH247269   2.994   0.434   3.109 -0.2599 -0.0622 -0.5117
 8593TIP3    H147270   3.009   0.479   3.026  0.0750 -0.3824 -0.6291
 8593TIP3    H247271   3.009   0.501   3.176 -2.1392  0.6319 -0.7405
 8594TIP3   OH247272   3.179   6.710  14.416  0.2356 -0.4265 -0.1681
 8594TIP3    H147273   3.168   6.675  14.504  0.9993 -0.4754 -0.0856
 8594TIP3    H247274   3.219   6.796  14.429  0.5096 -0.5075 -0.4743
 8595TIP3   OH247275   0.369   1.540  12.039  0.3904 -0.6004 -0.7021
 8595TIP3    H147276   0.339   1.561  12.127  0.9592 -1.7994 -0.2002
 8595TIP3    H247277   0.365   1.623  11.991  0.8322  0.2360  0.6626
 8596TIP3   OH247278   5.317   0.545  15.261  0.1677  0.1413 -0.4067
 8596TIP3    H147279   5.247   0.487  15.233 -0.0476  0.7020 -1.0596
 8596TIP3    H247280   5.296   0.630  15.220  0.4527  0.6872  0.5522
 8597TIP3   OH247281   4.075   6.095   0.417  0.3123  0.5394  0.0752
 8597TIP3    H147282   4.072   6.089   0.322 -1.2250  1.4366  0.0371
 8597TIP3    H247283   4.002   6.041   0.447  0.5685  0.5457  0.7423
 8598TIP3   OH247284   3.786   2.545   5.668 -0.4559 -0.0175  0.0112
 8598TIP3    H147285   3.778   2.628   5.715 -0.9544  1.4323 -2.4620
 8598TIP3    H247286   3.839   2.490   5.726  0.1802  2.1217  1.6087
 8599TIP3   OH247287   5.201   0.393  11.543 -0.4195  0.1322 -0.6306
 8599TIP3    H147288   5.178   0.411  11.634  0.9753 -0.6770 -0.0876
 8599TIP3    H247289   5.141   0.447  11.492 -0.0769  1.9761  0.7987
 8600TIP3   OH247290   6.320   4.467   1.320 -0.5837  0.1880  0.0488
 8600TIP3    H147291   6.390   4.497   1.378 -0.2377 -1.7570  0.7046
 8600TIP3    H247292   6.364   4.444   1.238 -0.5643 -0.2577  0.1818
 8601TIP3   OH247293   5.074   3.720  12.432 -0.1775 -0.2991 -0.4006
 8601TIP3    H147294   5.099   3.704  12.523  1.0258  0.3559 -0.5954
 8601TIP3    H247295   4.990   3.764  12.437  0.4965  0.9377  0.4585
 8602TIP3   OH247296   4.011   1.124   1.608  0.0047 -0.4698 -0.2787
 8602TIP3    H147297   3.982   1.087   1.691  2.8525 -1.4653  0.3815
 8602TIP3    H247298   4.007   1.219   1.621  0.1243 -0.6163  0.8811
 8603TIP3   OH247299   0.192   0.200   0.712 -0.1630 -0.4733 -0.4065
 8603TIP3    H147300   0.268   0.145   0.731  0.2520  0.1245 -0.3041
 8603TIP3    H247301   0.212   0.242   0.629  0.0070  0.3439  0.0374
 8604TIP3   OH247302   4.765   5.620   1.385 -0.3855  0.6158  0.5095
 8604TIP3    H147303   4.793   5.572   1.307 -0.0411  1.2852  0.2196
 8604TIP3    H247304   4.846   5.635   1.434 -0.5205  0.7294  0.6960
 8605TIP3   OH247305   0.720   3.812  12.089 -0.0740 -0.3765  0.4881
 8605TIP3    H147306   0.643   3.818  12.033  1.2269  0.4152 -1.3311
 8605TIP3    H247307   0.734   3.901  12.121  0.5706 -0.3267  0.0864
 8606TIP3   OH247308   4.056   2.111  13.292 -0.0161 -0.3161 -0.2667
 8606TIP3    H147309   4.035   2.062  13.213  1.5369 -1.8754  0.2334
 8606TIP3    H247310   4.034   2.052  13.364 -2.1405  1.3544  0.5769
 8607TIP3   OH247311   5.703   5.232  12.289 -0.5898 -0.4549  0.9088
 8607TIP3    H147312   5.786   5.211  12.246 -1.0276  0.0705 -0.2312
 8607TIP3    H247313   5.691   5.162  12.353 -1.3352 -3.0207 -1.7952
 8608TIP3   OH247314   5.076   6.349  15.469  0.3259  0.0904 -0.0532
 8608TIP3    H147315   5.155   6.309  15.433  0.5255  0.6716 -0.2671
 8608TIP3    H247316   5.107   6.423  15.521 -0.0072 -0.3341  0.7700
 8609TIP3   OH247317   6.221   6.241   1.221  0.4792 -0.4375 -0.0691
 8609TIP3    H147318   6.267   6.322   1.243 -0.1650  0.1367 -0.8055
 8609TIP3    H247319   6.282   6.171   1.246  1.3842  0.2870 -0.2142
 8610TIP3   OH247320   0.745   1.268  15.461 -0.0760  0.8752 -0.3366
 8610TIP3    H147321   0.765   1.222  15.543  1.9838  1.7201 -0.3233
 8610TIP3    H247322   0.655   1.242  15.441 -0.1913 -0.3441  1.5235
 8611TIP3   OH247323   5.034   3.286  14.458  0.3560 -0.2724 -0.5614
 8611TIP3    H147324   4.961   3.340  14.428 -0.6226 -1.2682 -0.0295
 8611TIP3    H247325   5.069   3.332  14.534 -0.3446 -0.2827 -0.2291
 8612TIP3   OH247326   0.757   6.278  16.706 -0.5881 -0.3550 -0.6885
 8612TIP3    H147327   0.847   6.302  16.683 -0.4428 -2.3804 -2.5403
 8612TIP3    H247328   0.759   6.183  16.715 -2.4262 -0.3705 -0.0910
 8613TIP3   OH247329   3.469   3.063   0.598  0.1415 -0.2009  0.2596
 8613TIP3    H147330   3.378   3.039   0.583  0.5902 -2.4896  0.8656
 8613TIP3    H247331   3.505   3.079   0.511 -0.3627 -1.2113 -0.1450
 8614TIP3   OH247332   1.642   6.629  11.979  0.0193 -0.6957 -0.2608
 8614TIP3    H147333   1.663   6.569  12.050  1.0853  0.5813  0.5705
 8614TIP3    H247334   1.723   6.677  11.965 -0.4235 -0.3674 -1.8027
 8615TIP3   OH247335   4.977   3.454  12.492  1.1516  0.6722  0.2129
 8615TIP3    H147336   4.953   3.545  12.474  1.8839  0.9290  0.4742
 8615TIP3    H247337   4.983   3.450  12.588  0.9839  0.3129  0.2093
 8616TIP3   OH247338   6.518   0.249  16.945 -0.2392 -0.1341  0.8588
 8616TIP3    H147339   6.445   0.209  16.897 -0.7088  0.9344  0.6506
 8616TIP3    H247340   6.560   0.306  16.881  1.1276 -1.1271  0.8272
 8617TIP3   OH247341   3.049   0.298   5.498  0.3301  0.1004 -0.2204
 8617TIP3    H147342   3.121   0.294   5.435  0.4796 -2.2946  0.0153
 8617TIP3    H247343   3.077   0.241   5.570 -1.1096  0.4305  0.6476
 8618TIP3   OH247344   6.498   5.654   2.450 -0.2600  0.2585 -0.0680
 8618TIP3    H147345   6.538   5.738   2.426 -1.3652  0.8899  0.2202
 8618TIP3    H247346   6.443   5.632   2.375 -0.2972  0.0036  0.0342
 8619TIP3   OH247347   2.307   0.923  13.809  0.5383 -0.0946 -0.1122
 8619TIP3    H147348   2.334   1.010  13.778  0.3279  0.2749  0.7184
 8619TIP3    H247349   2.242   0.894  13.745 -0.5163  1.0255  0.3935
 8620TIP3   OH247350   5.233   6.211  16.518  0.0136  0.2677 -0.6246
 8620TIP3    H147351   5.204   6.138  16.572 -1.7939  0.8340 -0.7543
 8620TIP3    H247352   5.161   6.225  16.456  0.2948  2.1397 -0.5902
 8621TIP3   OH247353   1.270   4.472   0.508  0.7180  0.2130  0.2995
 8621TIP3    H147354   1.356   4.453   0.546  2.4944  2.0220 -2.5003
 8621TIP3    H247355   1.264   4.568   0.508 -2.0587  0.1480  1.8148
 8622TIP3   OH247356   6.235   6.099   3.089  0.2268  0.4187 -0.1729
 8622TIP3    H147357   6.219   6.112   3.182  1.8370  1.6390 -0.0316
 8622TIP3    H247358   6.172   6.156   3.045 -0.1365  0.2889  0.1729
 8623TIP3   OH247359   4.270   4.295   5.984 -0.2447 -0.1772  0.0222
 8623TIP3    H147360   4.230   4.365   6.036 -0.6530  0.6564 -1.3291
 8623TIP3    H247361   4.364   4.306   5.998 -0.1818  1.7771 -1.4400
 8624TIP3   OH247362   3.389   2.349  15.981 -0.6433  0.3668 -0.0496
 8624TIP3    H147363   3.305   2.358  16.027 -0.0227  0.6143  1.0754
 8624TIP3    H247364   3.434   2.278  16.028 -0.3895 -0.0744 -0.9301
 8625TIP3   OH247365   3.793   6.259  16.116 -0.2423  0.4208  0.3137
 8625TIP3    H147366   3.761   6.322  16.051 -1.0635 -1.0387 -0.7503
 8625TIP3    H247367   3.758   6.291  16.199  0.4742  2.0907  0.0167
 8626TIP3   OH247368   0.941   2.723   2.089  0.0605  0.1881  0.3520
 8626TIP3    H147369   1.016   2.782   2.101 -0.4615  0.9848 -0.2195
 8626TIP3    H247370   0.969   2.641   2.128  0.9282  0.7202  0.8829
 8627TIP3   OH247371   0.949   1.822   1.378 -0.1908  0.1792 -0.2035
 8627TIP3    H147372   1.018   1.793   1.439 -1.9360  1.2553  2.4977
 8627TIP3    H247373   0.943   1.752   1.314  2.1567 -0.8007  0.5101
 8628TIP3   OH247374   1.305   3.183   4.789  0.3385  0.2447 -0.1221
 8628TIP3    H147375   1.211   3.171   4.799  0.0689  1.9947 -0.2035
 8628TIP3    H247376   1.315   3.220   4.701  1.0102  0.8746  0.2092
 8629TIP3   OH247377   3.482   5.247  13.727  0.7898 -0.0764 -0.2193
 8629TIP3    H147378   3.468   5.334  13.765  0.3457 -0.0989 -0.3309
 8629TIP3    H247379   3.405   5.197  13.753  1.7478 -0.9147  1.1828
 8630TIP3   OH247380   5.758   5.752  16.774  1.0541  0.2734 -0.6329
 8630TIP3    H147381   5.806   5.816  16.827 -0.2902 -0.7121  1.9508
 8630TIP3    H247382   5.807   5.670  16.786  0.6132 -0.0093 -0.7571
 8631TIP3   OH247383   5.754   5.586  13.941 -0.4746 -0.2475 -0.4361
 8631TIP3    H147384   5.817   5.606  14.011  0.9844 -0.5997 -1.5891
 8631TIP3    H247385   5.800   5.523  13.885 -2.0254 -0.8257 -1.1234
 8632TIP3   OH247386   4.306   4.830   2.951 -0.7341  0.0668  0.6823
 8632TIP3    H147387   4.311   4.766   2.881  1.6741  2.2028 -1.3181
 8632TIP3    H247388   4.295   4.779   3.031 -0.0176 -2.7089 -0.8918
 8633TIP3   OH247389   1.648   4.549   2.094  0.1127  0.4711  0.0099
 8633TIP3    H147390   1.701   4.524   2.170  1.4040 -0.3617 -1.1008
 8633TIP3    H247391   1.622   4.465   2.055  2.2189  0.7448 -2.2568
 8634TIP3   OH247392   5.466   6.203  11.821 -0.0259 -0.3619 -0.2670
 8634TIP3    H147393   5.538   6.255  11.856 -0.5339  0.3164 -0.2085
 8634TIP3    H247394   5.455   6.234  11.731 -1.0090  0.3881  0.0945
 8635TIP3   OH247395   0.056   0.501  14.903  0.1677 -0.6329  0.5126
 8635TIP3    H147396  -0.005   0.574  14.916  0.5240  0.2570 -2.1544
 8635TIP3    H247397   0.008   0.424  14.933 -1.3326  0.3578  0.7595
 8636TIP3   OH247398   2.501   4.330  12.126 -0.2298  0.0042  0.7726
 8636TIP3    H147399   2.523   4.362  12.038 -2.4279  0.1353  0.2049
 8636TIP3    H247400   2.480   4.409  12.176 -0.7421 -0.1954  0.8767
 8637TIP3   OH247401   0.367   5.488  12.737 -0.2631 -0.4300  0.0961
 8637TIP3    H147402   0.275   5.464  12.731 -0.1559 -0.6291 -1.0755
 8637TIP3    H247403   0.403   5.434  12.807 -1.2294  0.2976  1.1705
 8638TIP3   OH247404   5.567   4.156   3.688  0.0855  0.4157 -0.4240
 8638TIP3    H147405   5.572   4.252   3.685  0.2067  0.3911 -1.3925
 8638TIP3    H247406   5.606   4.133   3.773 -1.6806  1.3092  0.6912
 8639TIP3   OH247407   3.774   1.278  16.518  0.0907  0.1725  0.3626
 8639TIP3    H147408   3.681   1.296  16.531  0.0797 -0.1690  0.7783
 8639TIP3    H247409   3.787   1.189  16.552  0.1908 -0.5468 -1.4179
 8640TIP3   OH247410   2.876   5.909  12.588 -0.1461  0.1939  0.5957
 8640TIP3    H147411   2.899   5.939  12.676  0.1879  1.6023  0.0529
 8640TIP3    H247412   2.942   5.842  12.568 -0.4211 -0.3870  1.5180
 8641TIP3   OH247413   4.026   4.138   0.653 -0.1267 -0.1254  0.1760
 8641TIP3    H147414   4.096   4.139   0.718 -0.2427 -1.6987  0.3421
 8641TIP3    H247415   3.988   4.226   0.658  2.0841  0.9340 -0.2314
 8642TIP3   OH247416   4.951   3.550  14.867 -0.3076  0.4035 -0.3283
 8642TIP3    H147417   4.866   3.585  14.839 -0.5177 -0.6965 -1.1425
 8642TIP3    H247418   4.966   3.475  14.809 -0.2090 -1.2644  1.7031
 8643TIP3   OH247419   5.313   5.474  15.690 -0.6888 -0.2175  0.1067
 8643TIP3    H147420   5.260   5.551  15.670 -0.4457 -0.6455 -2.5839
 8643TIP3    H247421   5.395   5.509  15.723 -1.3366  0.5705  0.9336
 8644TIP3   OH247422   3.436   4.043   0.672  0.1161  0.0467  0.5634
 8644TIP3    H147423   3.344   4.064   0.687 -0.0008 -0.7225  0.9838
 8644TIP3    H247424   3.450   3.961   0.719  1.1540  0.4220  0.9445
 8645TIP3   OH247425   4.896   1.097   4.187 -0.4921 -0.1540  0.0620
 8645TIP3    H147426   4.825   1.115   4.124 -0.8303 -0.3378  0.3864
 8645TIP3    H247427   4.853   1.050   4.258 -0.0607 -0.1637  0.3177
 8646TIP3   OH247428   0.033   2.461  14.072  0.7360  0.2459  0.0535
 8646TIP3    H147429   0.072   2.544  14.046 -0.0733  0.6826  0.2029
 8646TIP3    H247430   0.017   2.415  13.989  0.8630  0.3895 -0.0495
 8647TIP3   OH247431   0.003   3.972  16.061  0.7906  0.3104 -0.5618
 8647TIP3    H147432   0.059   3.903  16.097  0.0661 -0.1519 -0.3233
 8647TIP3    H247433  -0.007   4.035  16.132 -0.1093 -0.2830 -0.1544
 8648TIP3   OH247434   3.130   2.521  12.040 -0.7618 -0.4846  0.4403
 8648TIP3    H147435   3.074   2.457  11.995 -1.1139  0.0715  0.0682
 8648TIP3    H247436   3.115   2.603  11.992  0.5765 -0.3769  0.1732
 8649TIP3   OH247437   3.121   5.767   3.157  0.2877  0.2103  0.3196
 8649TIP3    H147438   3.174   5.697   3.119  1.2159  1.1458 -0.1875
 8649TIP3    H247439   3.031   5.736   3.150  0.5737 -0.3918 -1.0832
 8650TIP3   OH247440   3.947   0.163   6.434  0.1079  0.2596 -0.1515
 8650TIP3    H147441   3.968   0.236   6.492  0.8945 -0.3598  0.3736
 8650TIP3    H247442   4.021   0.103   6.443 -0.1119 -0.2057 -1.2337
 8651TIP3   OH247443   1.320   0.409  14.922 -0.6634  0.7815 -0.3537
 8651TIP3    H147444   1.248   0.450  14.874 -1.5711 -0.2552  0.0586
 8651TIP3    H247445   1.284   0.325  14.951  0.9395 -0.0561 -0.6831
 8652TIP3   OH247446   1.712   1.961   0.143 -0.5537  0.0512 -0.4268
 8652TIP3    H147447   1.771   1.896   0.105 -0.2037  0.1003  0.0262
 8652TIP3    H247448   1.656   1.912   0.203 -2.5604 -0.4134 -2.5210
 8653TIP3   OH247449   4.226   2.713   1.887  0.3074 -0.2096  0.3596
 8653TIP3    H147450   4.194   2.715   1.797 -0.3363  0.8232  0.5868
 8653TIP3    H247451   4.170   2.649   1.930 -0.3569  0.3379  0.3446
 8654TIP3   OH247452   2.024   3.873   2.183 -0.2521  0.0483  0.6285
 8654TIP3    H147453   2.050   3.806   2.120 -1.3610 -1.9260  2.1764
 8654TIP3    H247454   2.001   3.949   2.129  3.6628  0.2948 -1.0908
 8655TIP3   OH247455   3.348   1.687   1.008 -0.1794  0.1876  0.3314
 8655TIP3    H147456   3.436   1.681   1.046 -0.2808 -0.3982  0.4822
 8655TIP3    H247457   3.354   1.759   0.945  0.0646  0.9904  1.2539
 8656TIP3   OH247458   1.854   5.632  11.953 -0.3988  0.2595  0.4863
 8656TIP3    H147459   1.871   5.653  11.861  0.0583  0.3918  0.5978
 8656TIP3    H247460   1.852   5.536  11.956  1.8963  0.1581  0.7154
 8657TIP3   OH247461   0.693   6.449   1.966  0.1768  0.4647 -0.3195
 8657TIP3    H147462   0.619   6.400   2.002  2.4809 -3.0415  0.0683
 8657TIP3    H247463   0.734   6.489   2.043  1.1648 -1.3578  0.1691
 8658TIP3   OH247464   5.077   0.261  14.254  0.2867  0.6191 -0.7644
 8658TIP3    H147465   5.004   0.209  14.289  1.4692 -0.8781 -0.4309
 8658TIP3    H247466   5.039   0.348  14.239 -1.4369  0.0194 -0.1491
 8659TIP3   OH247467   5.040   5.076   0.146 -0.3859 -0.5216  0.0263
 8659TIP3    H147468   5.007   4.994   0.110 -0.3996 -0.5389  0.0779
 8659TIP3    H247469   5.077   5.053   0.231  1.7573 -0.8899 -0.9499
 8660TIP3   OH247470   4.469   1.277   0.988  0.1588 -0.4801 -0.1147
 8660TIP3    H147471   4.484   1.199   0.935 -0.3735  0.1369 -1.1942
 8660TIP3    H247472   4.506   1.255   1.074  1.4687 -1.3266 -0.8594
 8661TIP3   OH247473   5.013   3.017   2.358 -0.3052 -0.2393  0.5373
 8661TIP3    H147474   5.074   3.046   2.426  1.0152  0.0973 -0.7231
 8661TIP3    H247475   5.053   2.938   2.321  0.4210  1.0352 -1.5859
 8662TIP3   OH247476   4.016   2.332  11.928 -0.0644 -0.5742 -0.8563
 8662TIP3    H147477   4.026   2.405  11.866  0.8721 -0.2585 -0.3671
 8662TIP3    H247478   4.104   2.321  11.965 -0.5302 -0.9822  0.1599
 8663TIP3   OH247479   0.120   2.358  15.426  0.2346  0.3005  0.2738
 8663TIP3    H147480   0.039   2.393  15.391  0.4385  1.1490  0.6361
 8663TIP3    H247481   0.177   2.350  15.349  0.1890  0.7727  0.1887
 8664TIP3   OH247482   3.968   1.739   1.764  0.2928 -0.1910 -0.3153
 8664TIP3    H147483   4.003   1.816   1.809  1.5093 -1.2676  0.6662
 8664TIP3    H247484   3.998   1.747   1.674  0.4450  0.4510 -0.2105
 8665TIP3   OH247485   2.315   1.751   2.329 -0.2973 -0.2677  0.2945
 8665TIP3    H147486   2.291   1.665   2.293 -1.2679  0.5482 -1.1215
 8665TIP3    H247487   2.384   1.783   2.271 -1.7943  1.0152 -0.8818
 8666TIP3   OH247488   0.531   4.078  12.593  0.5703  0.4966  0.4639
 8666TIP3    H147489   0.524   4.042  12.681  0.5130  1.1817  0.7505
 8666TIP3    H247490   0.443   4.072  12.557  0.2328  1.6508  1.0465
 8667TIP3   OH247491   5.063   4.825  11.355  0.0885 -0.2682 -0.2033
 8667TIP3    H147492   5.069   4.788  11.443  1.2018  0.7029  0.1613
 8667TIP3    H247493   5.155   4.841  11.330 -0.1048 -1.6686 -2.0451
 8668TIP3   OH247494   5.360   5.321  17.052 -0.1578 -0.4648  0.4112
 8668TIP3    H147495   5.306   5.265  17.108  0.3644 -0.4790  0.9195
 8668TIP3    H247496   5.391   5.391  17.110 -0.2125 -0.0566 -0.0426
 8669TIP3   OH247497   6.711   3.593  14.601 -0.0233  0.0882 -0.3088
 8669TIP3    H147498   6.696   3.667  14.543  2.9487  0.5432 -0.6752
 8669TIP3    H247499   6.777   3.540  14.557 -3.0972 -3.7742 -0.7914
 8670TIP3   OH247500   2.981   1.344  10.966 -0.0505 -0.6850  0.6334
 8670TIP3    H147501   2.912   1.408  10.985  1.6266  1.0548  1.2248
 8670TIP3    H247502   2.934   1.267  10.935 -2.1461  1.0333 -0.7562
 8671TIP3   OH247503   3.573   3.431  13.274 -0.0286 -0.3761 -0.0896
 8671TIP3    H147504   3.546   3.498  13.211 -1.0461 -0.2597  0.4491
 8671TIP3    H247505   3.605   3.481  13.349  1.8868 -0.5131 -0.7757
 8672TIP3   OH247506   4.777   4.626   1.359 -0.4052 -0.1439  0.1019
 8672TIP3    H147507   4.844   4.691   1.339 -1.9837  1.5924  0.2217
 8672TIP3    H247508   4.695   4.666   1.330 -1.6714 -1.2833  1.9087
 8673TIP3   OH247509   1.641   1.810  13.216 -0.1689  0.4838 -0.3220
 8673TIP3    H147510   1.632   1.747  13.287  0.6025 -0.1482 -0.7580
 8673TIP3    H247511   1.574   1.876  13.232 -0.5178 -0.0759  0.5425
 8674TIP3   OH247512   1.877   3.451   2.026  0.3239  0.2699 -0.2553
 8674TIP3    H147513   1.921   3.366   2.035  3.1326  1.7159  0.6798
 8674TIP3    H247514   1.870   3.484   2.115  2.6476  2.5626 -0.8226
 8675TIP3   OH247515   4.938   4.016  12.645 -0.4771  0.4329  0.2851
 8675TIP3    H147516   5.023   4.007  12.602 -0.4940 -0.3796  0.4098
 8675TIP3    H247517   4.878   4.042  12.575 -0.4132 -0.4238 -0.0945
 8676TIP3   OH247518   2.689   0.476  14.477  0.6653  0.4460 -0.0527
 8676TIP3    H147519   2.615   0.484  14.538  1.7088  0.7302  1.2211
 8676TIP3    H247520   2.673   0.392  14.433 -0.4082  0.4916  0.2006
 8677TIP3   OH247521   6.234   0.366  13.759  0.1326  0.9122 -0.6754
 8677TIP3    H147522   6.269   0.421  13.689 -1.2579  2.2806 -0.3622
 8677TIP3    H247523   6.144   0.397  13.771 -0.0182 -0.0372  0.9550
 8678TIP3   OH247524   4.774   4.263   3.995  0.2368  0.4050 -0.5299
 8678TIP3    H147525   4.854   4.254   3.942 -0.5241 -0.7178 -1.5368
 8678TIP3    H247526   4.755   4.174   4.024  1.3570  1.1091  2.8281
 8679TIP3   OH247527   3.014   6.257  13.025  0.8346 -0.3821 -0.0421
 8679TIP3    H147528   2.986   6.175  13.065 -0.1508 -0.4269 -0.7959
 8679TIP3    H247529   2.988   6.324  13.089  0.4733 -0.5549 -0.0049
 8680TIP3   OH247530   6.419   5.033   2.653 -0.3593 -0.0833  0.1805
 8680TIP3    H147531   6.395   5.002   2.566 -0.3077 -1.3458  0.5848
 8680TIP3    H247532   6.499   5.083   2.640 -0.8588  0.5274 -0.6135
 8681TIP3   OH247533   3.029   3.343  15.964  0.0835  0.3984  0.0133
 8681TIP3    H147534   3.094   3.406  15.934  1.9058 -1.7539 -0.9005
 8681TIP3    H247535   2.985   3.314  15.884 -1.1149  0.8461  0.4805
 8682TIP3   OH247536   6.605   3.462   5.379  0.1993  0.3662 -0.8974
 8682TIP3    H147537   6.607   3.367   5.388 -0.8456  0.2675 -1.5284
 8682TIP3    H247538   6.542   3.478   5.308 -1.1589  1.5888  0.4939
 8683TIP3   OH247539   0.654   2.426   3.911  0.2547  0.3758  0.1239
 8683TIP3    H147540   0.627   2.412   3.820  0.0222  0.0349  0.2428
 8683TIP3    H247541   0.712   2.502   3.907  1.1104 -0.2762 -0.4642
 8684TIP3   OH247542   4.968   6.193   1.483 -0.7077  0.3577  0.1990
 8684TIP3    H147543   4.933   6.202   1.571  2.0440  0.9614  1.3252
 8684TIP3    H247544   5.035   6.261   1.476  0.4349 -0.8502 -1.6918
 8685TIP3   OH247545   2.409   2.981  14.053 -0.0114 -0.3979  0.4436
 8685TIP3    H147546   2.390   2.920  13.981  2.3220 -1.2579  0.4706
 8685TIP3    H247547   2.458   3.052  14.012  0.9659 -0.6806  1.0941
 8686TIP3   OH247548   1.450   3.698   4.441  0.1622 -0.5067 -0.4532
 8686TIP3    H147549   1.535   3.654   4.429  0.1690  0.0664 -2.8040
 8686TIP3    H247550   1.436   3.747   4.361 -0.0988  3.4857  1.7612
 8687TIP3   OH247551   6.297   3.194  15.323 -0.4636  0.0755  0.1177
 8687TIP3    H147552   6.252   3.269  15.284  1.1252  0.5584 -0.9262
 8687TIP3    H247553   6.376   3.183  15.269  1.6051  0.3896  2.8503
 8688TIP3   OH247554   2.755   4.896   2.441  0.3447 -0.1450 -0.0759
 8688TIP3    H147555   2.838   4.887   2.487  0.4862 -0.5327 -0.3999
 8688TIP3    H247556   2.725   4.985   2.462  1.2003  0.2674 -0.5349
 8689TIP3   OH247557   2.613   3.911   0.476  0.2633 -0.4741  0.4746
 8689TIP3    H147558   2.683   3.879   0.533  1.3459 -1.4052 -1.2968
 8689TIP3    H247559   2.597   3.839   0.414 -0.9707  0.4307 -0.3251
 8690TIP3   OH247560   6.330   4.328   5.769 -0.1674 -0.0898 -0.0502
 8690TIP3    H147561   6.277   4.354   5.845 -1.3193  0.8126 -1.1233
 8690TIP3    H247562   6.396   4.396   5.762 -0.8869  0.5600 -0.6374
 8691TIP3   OH247563   4.371   0.021   1.520 -0.1888 -0.3318 -0.3857
 8691TIP3    H147564   4.337   0.067   1.443 -1.0260 -2.0624 -1.1277
 8691TIP3    H247565   4.321  -0.061   1.522  1.2569 -1.2384  0.8189
 8692TIP3   OH247566   3.292   4.806   5.449  0.0136  0.0523 -0.9283
 8692TIP3    H147567   3.357   4.873   5.472 -0.2081 -0.4577  1.4543
 8692TIP3    H247568   3.272   4.763   5.532 -0.9878 -1.9781 -2.1451
 8693TIP3   OH247569   0.896   3.652   2.804 -0.3682  0.2877 -0.5300
 8693TIP3    H147570   0.848   3.735   2.813  0.2647  0.4165  2.7550
 8693TIP3    H247571   0.969   3.673   2.745 -0.6154  1.8791 -0.3159
 8694TIP3   OH247572   2.653   3.155  14.225  0.1623  0.3079  0.9768
 8694TIP3    H147573   2.701   3.133  14.145 -0.8665  1.7162 -0.0776
 8694TIP3    H247574   2.593   3.082  14.237 -0.1354  0.3791  0.0633
 8695TIP3   OH247575   0.349   4.669   3.356 -0.1451 -0.1684  0.1137
 8695TIP3    H147576   0.339   4.588   3.305  2.4396 -0.1164 -0.6319
 8695TIP3    H247577   0.323   4.645   3.445 -3.3857 -0.6483 -0.8455
 8696TIP3   OH247578   6.253   4.952   0.118 -0.1737  0.5385  0.4846
 8696TIP3    H147579   6.242   4.866   0.157 -1.3240  0.6795  0.5039
 8696TIP3    H247580   6.271   4.935   0.026 -1.1366  0.2725  0.3300
 8697TIP3   OH247581   0.049   2.451   6.207  0.2959 -0.5119 -0.0223
 8697TIP3    H147582  -0.011   2.509   6.160  0.0826 -0.6492  0.0811
 8697TIP3    H247583  -0.008   2.398   6.263  0.5930  0.1659  0.9583
 8698TIP3   OH247584   0.694   2.015   1.795 -1.0827 -0.3543 -0.0478
 8698TIP3    H147585   0.724   2.081   1.857 -0.5759  0.8691 -1.5216
 8698TIP3    H247586   0.743   2.033   1.715 -1.9257 -1.6834 -0.9090
 8699TIP3   OH247587   6.294   2.713  14.443 -0.0301  0.7149  0.0756
 8699TIP3    H147588   6.268   2.805  14.444  0.9510  0.9988  0.4173
 8699TIP3    H247589   6.332   2.700  14.356  2.2873  1.3721  0.9155
 8700TIP3   OH247590   4.584   5.886   2.053  0.2327 -0.3124 -1.0578
 8700TIP3    H147591   4.541   5.903   1.969  0.1855  0.4844 -0.8753
 8700TIP3    H247592   4.514   5.892   2.118  0.5559  0.7477 -0.7871
 8701TIP3   OH247593   1.653   2.253  16.347 -0.2478  0.2130 -0.3094
 8701TIP3    H147594   1.588   2.260  16.417  0.5570 -0.1820  0.5051
 8701TIP3    H247595   1.708   2.331  16.358 -0.7785  0.7187 -1.2034
 8702TIP3   OH247596   3.590   6.763   1.550 -0.1839  0.2318 -0.2742
 8702TIP3    H147597   3.623   6.766   1.460  0.4998  1.6513 -0.0073
 8702TIP3    H247598   3.568   6.854   1.570 -1.5813 -0.2737  0.5595
 8703TIP3   OH247599   4.276   5.582  14.002 -0.2905 -0.3530  0.2135
 8703TIP3    H147600   4.292   5.662  13.952 -0.0545  1.2949  2.7408
 8703TIP3    H247601   4.182   5.568  13.996 -0.3356  0.1020 -0.2411
 8704TIP3   OH247602   1.721   4.718   0.136  0.4515 -0.0255 -0.2232
 8704TIP3    H147603   1.732   4.752   0.048 -0.4191  0.1007 -0.2885
 8704TIP3    H247604   1.633   4.680   0.137  1.0262 -1.4328  0.1228
 8705TIP3   OH247605   4.808   3.878  13.990 -0.2710  0.1634 -0.0198
 8705TIP3    H147606   4.875   3.812  13.971  1.0738  1.1255  1.2272
 8705TIP3    H247607   4.732   3.850  13.939  0.3267 -2.2311  0.2735
 8706TIP3   OH247608   1.601   2.897   5.454  0.0498  0.6384 -0.4077
 8706TIP3    H147609   1.598   2.931   5.364 -0.9373  1.4252 -0.0888
 8706TIP3    H247610   1.685   2.927   5.488  0.0394  1.0953 -0.7745
 8707TIP3   OH247611   3.903   4.842  15.724 -0.4064 -0.2221  0.2423
 8707TIP3    H147612   3.831   4.874  15.669 -2.0768 -2.1236  1.1752
 8707TIP3    H247613   3.873   4.757  15.755  1.5052 -0.2829  2.1604
 8708TIP3   OH247614   4.110   4.317  16.546  0.2572 -0.0939 -0.0607
 8708TIP3    H147615   4.132   4.281  16.632  0.8664  0.7364  0.1466
 8708TIP3    H247616   4.185   4.295  16.491  0.4381  0.4567 -0.0431
 8709TIP3   OH247617   6.508   4.058   3.223  0.0026 -0.8872  0.2194
 8709TIP3    H147618   6.545   3.993   3.164 -0.0647  0.5300 -1.4627
 8709TIP3    H247619   6.425   4.084   3.182 -0.5396 -0.5722  1.4593
 8710TIP3   OH247620   5.798   4.206  12.426  0.3201 -0.0861 -0.6057
 8710TIP3    H147621   5.817   4.159  12.508  3.7765  1.9653 -0.0357
 8710TIP3    H247622   5.755   4.287  12.455 -0.1906 -0.1943 -1.0455
 8711TIP3   OH247623   3.957   4.032  14.459  0.3177 -0.2632  0.1310
 8711TIP3    H147624   3.987   4.119  14.483 -0.0694 -0.3185  0.8248
 8711TIP3    H247625   3.946   3.986  14.542  0.1297 -0.8434 -0.2074
 8712TIP3   OH247626   5.701   1.137  10.665 -0.5933  0.1290  0.0861
 8712TIP3    H147627   5.722   1.203  10.599 -1.9788  0.6939  0.1751
 8712TIP3    H247628   5.764   1.067  10.651  2.3868  2.3496  1.3607
 8713TIP3   OH247629   1.350   1.598   3.561 -0.4984  0.6748  0.1190
 8713TIP3    H147630   1.407   1.566   3.632  1.3664  2.0827 -0.6506
 8713TIP3    H247631   1.326   1.519   3.512  0.6193 -0.0009  0.6087
 8714TIP3   OH247632   1.479   4.615   2.507 -0.4908  0.1194 -0.2744
 8714TIP3    H147633   1.502   4.537   2.558 -0.9752  0.3856  0.3691
 8714TIP3    H247634   1.432   4.580   2.432 -1.1303 -0.1949  0.2560
 8715TIP3   OH247635   4.252   2.728   5.494  0.4394 -0.1680  0.0292
 8715TIP3    H147636   4.295   2.643   5.487 -0.0706 -0.3393 -1.2276
 8715TIP3    H247637   4.301   2.785   5.434 -1.4078 -0.5291 -1.9350
 8716TIP3   OH247638   6.100   5.164  12.300  0.3798  0.3928 -0.7357
 8716TIP3    H147639   6.059   5.198  12.379  0.3921  0.7780 -0.8917
 8716TIP3    H247640   6.147   5.086  12.329 -0.2283  0.1036 -0.5058
 8717TIP3   OH247641   5.421   5.897   5.576 -0.1680  0.3233 -0.5426
 8717TIP3    H147642   5.474   5.972   5.548  2.9137 -0.9231  1.4154
 8717TIP3    H247643   5.402   5.915   5.668 -0.4029 -0.7877 -0.3643
 8718TIP3   OH247644   3.186   6.454  11.664 -0.4387  0.8445  0.1525
 8718TIP3    H147645   3.280   6.452  11.644 -0.4802 -2.4023 -0.2497
 8718TIP3    H247646   3.146   6.400  11.595 -2.3358  0.5062  1.4388
 8719TIP3   OH247647   0.754   2.042   3.813 -0.0917  0.5294 -0.3037
 8719TIP3    H147648   0.819   2.111   3.821  0.2790  0.5014 -2.4282
 8719TIP3    H247649   0.722   2.049   3.723 -0.2202 -1.8679 -0.5307
 8720TIP3   OH247650   1.354   0.622   0.818  0.1553  0.1119  0.3541
 8720TIP3    H147651   1.276   0.579   0.782 -0.1300  1.3427 -0.5508
 8720TIP3    H247652   1.320   0.689   0.877  0.4961  0.9138 -0.3342
 8721TIP3   OH247653   6.219   4.181   2.507  0.1766 -0.1094  0.0454
 8721TIP3    H147654   6.142   4.227   2.473  0.9554  0.3335 -1.1787
 8721TIP3    H247655   6.187   4.092   2.526 -0.4305 -0.2459 -1.4304
 8722TIP3   OH247656   0.231   0.111  12.421 -0.2299  0.1105  0.6371
 8722TIP3    H147657   0.191   0.111  12.334 -0.3195 -1.3664  0.6617
 8722TIP3    H247658   0.205   0.195  12.459 -2.3497 -0.3129  0.2125
 8723TIP3   OH247659   4.232   0.151  12.270  0.3837  0.3134 -0.1680
 8723TIP3    H147660   4.237   0.099  12.190  3.0692 -0.4166  0.4068
 8723TIP3    H247661   4.265   0.237  12.245 -0.2252  0.5512 -0.1755
 8724TIP3   OH247662   1.947   0.973   1.482 -0.1549 -0.1568 -0.0710
 8724TIP3    H147663   1.958   1.010   1.569  1.3470  1.0127 -0.7029
 8724TIP3    H247664   1.981   0.884   1.489 -0.8038 -0.3549  0.7081
 8725TIP3   OH247665   6.029   4.242  12.707  0.6659  0.1107 -0.5211
 8725TIP3    H147666   5.994   4.153  12.707 -0.5807  0.5220 -2.7812
 8725TIP3    H247667   6.002   4.278  12.791 -0.2921 -1.1109 -0.2717
 8726TIP3   OH247668   2.530   5.303  12.102  0.3884  0.0652  0.1719
 8726TIP3    H147669   2.446   5.330  12.140  1.2340  1.2003  1.3195
 8726TIP3    H247670   2.555   5.375  12.045  1.0784  0.2108  0.6491
 8727TIP3   OH247671   2.474   0.077  11.549 -0.0624 -0.2971  0.1750
 8727TIP3    H147672   2.516   0.026  11.479 -0.2269 -1.6845  1.0624
 8727TIP3    H247673   2.380   0.062  11.536 -0.0755 -0.9933  0.9864
 8728TIP3   OH247674   2.010   6.579  14.928  0.3698 -0.0288  0.5190
 8728TIP3    H147675   1.996   6.502  14.873 -0.9849 -0.0948  0.9192
 8728TIP3    H247676   1.987   6.653  14.873  0.0490 -0.0249  0.6560
 8729TIP3   OH247677   6.825   0.550  13.017 -0.4052 -0.0739  0.2961
 8729TIP3    H147678   6.800   0.626  13.070 -1.2673 -0.7927  0.9541
 8729TIP3    H247679   6.845   0.482  13.082  0.4953 -0.3658 -0.2842
 8730TIP3   OH247680   2.035   3.159  14.675 -0.0580  0.0561  0.1679
 8730TIP3    H147681   2.107   3.110  14.715 -0.3905  0.0593  0.7735
 8730TIP3    H247682   2.076   3.206  14.602  0.3406 -0.7989 -0.1712
 8731TIP3   OH247683   2.159   5.926  13.803 -0.5438 -0.2187 -0.0048
 8731TIP3    H147684   2.151   5.938  13.897 -2.5978  0.9214 -0.2810
 8731TIP3    H247685   2.212   5.846  13.793  0.0243 -0.1458  2.0726
 8732TIP3   OH247686   3.990   3.164   3.293  0.0073 -0.2362 -0.8450
 8732TIP3    H147687   3.998   3.201   3.381 -0.1217  1.3552 -1.4637
 8732TIP3    H247688   4.079   3.161   3.260  0.0782 -1.0230 -0.6089
 8733TIP3   OH247689   0.107   0.292  10.522 -0.1911 -0.2876 -0.3631
 8733TIP3    H147690   0.073   0.338  10.599 -0.3438  0.5351 -0.9102
 8733TIP3    H247691   0.038   0.229  10.500 -0.1086 -0.5928  0.2126
 8734TIP3   OH247692   1.087   3.339   4.099 -0.2840  0.0522 -0.7501
 8734TIP3    H147693   0.992   3.332   4.098 -0.5906  1.0438  2.9842
 8734TIP3    H247694   1.104   3.433   4.095  0.1950  0.1753  2.0699
 8735TIP3   OH247695   0.894   6.445  14.962 -0.0345 -0.4636  0.8620
 8735TIP3    H147696   0.839   6.370  14.940  2.1315 -1.6117 -1.0684
 8735TIP3    H247697   0.965   6.409  15.015  1.0811  0.1297 -0.1564
 8736TIP3   OH247698   6.225   4.317   4.665 -0.1961  0.4326  0.4594
 8736TIP3    H147699   6.186   4.234   4.636  0.4845  0.1469  0.3552
 8736TIP3    H247700   6.319   4.302   4.662 -0.0529  1.3891 -0.0774
 8737TIP3   OH247701   2.832   0.607  12.968  0.3683 -0.2934 -0.0469
 8737TIP3    H147702   2.784   0.527  12.988 -0.0095 -0.5427 -1.8322
 8737TIP3    H247703   2.806   0.668  13.038  0.2102 -1.5101  1.0004
 8738TIP3   OH247704   4.098   5.509  16.912  0.1449  1.1072  0.1634
 8738TIP3    H147705   4.117   5.447  16.842  0.8986  2.2108 -0.6456
 8738TIP3    H247706   4.039   5.573  16.872 -0.8328  0.8060  1.0579
 8739TIP3   OH247707   0.308   2.678   4.751 -0.5104 -0.3626 -0.1130
 8739TIP3    H147708   0.230   2.639   4.711 -0.0835 -1.0799 -0.2650
 8739TIP3    H247709   0.381   2.642   4.700 -0.1712  2.8529 -2.2346
 8740TIP3   OH247710   1.174   0.956   3.468 -0.2973 -0.0699 -0.0214
 8740TIP3    H147711   1.181   0.886   3.532 -3.9247 -2.0204 -1.4436
 8740TIP3    H247712   1.118   0.920   3.399  0.0143  3.2891 -2.2589
 8741TIP3   OH247713   0.598   5.510  14.099 -0.4704 -0.1310  0.2847
 8741TIP3    H147714   0.575   5.548  14.184 -0.4300 -0.6005  0.5132
 8741TIP3    H247715   0.527   5.537  14.040 -0.5857  0.0565  0.5090
 8742TIP3   OH247716   3.393   4.006  16.405  0.6410  0.7026  0.2006
 8742TIP3    H147717   3.440   4.079  16.444  0.7945  0.9598 -0.4408
 8742TIP3    H247718   3.336   4.048  16.340  1.1790  0.2039 -0.6021
 8743TIP3   OH247719   1.758   4.990  11.562  0.2358  0.1138 -0.7557
 8743TIP3    H147720   1.695   5.038  11.510 -0.5143  2.2245  1.8832
 8743TIP3    H247721   1.841   4.999  11.514  0.0554  3.8070 -0.6529
 8744TIP3   OH247722   5.107   6.181  15.108  0.2270 -0.2973  0.2067
 8744TIP3    H147723   5.154   6.171  15.191 -0.6479 -1.3890  0.5938
 8744TIP3    H247724   5.068   6.269  15.114 -0.4945 -0.6645  1.3202
 8745TIP3   OH247725   3.483   0.010  16.906 -0.7865 -0.4140 -0.2486
 8745TIP3    H147726   3.541  -0.053  16.863 -0.4835 -0.7329  0.6156
 8745TIP3    H247727   3.432  -0.043  16.968 -0.2297  0.2461  0.7925
 8746TIP3   OH247728   3.571   6.095   0.099 -0.1914 -0.3330  0.3389
 8746TIP3    H147729   3.499   6.107   0.038  0.6796 -0.3493 -0.7353
 8746TIP3    H247730   3.576   6.000   0.111  2.0485 -0.7630 -2.7145
 8747TIP3   OH247731   5.938   3.045   5.115  0.0424  0.5895 -0.2055
 8747TIP3    H147732   5.915   3.109   5.183 -0.9096 -0.3650  0.4098
 8747TIP3    H247733   5.976   3.097   5.045 -3.0447  2.1892 -0.8459
 8748TIP3   OH247734   6.283   4.992   3.943  0.2769 -0.4460 -0.3536
 8748TIP3    H147735   6.379   4.992   3.938  0.2439 -1.1097 -1.3562
 8748TIP3    H247736   6.260   4.899   3.953 -0.2710 -0.2995 -0.2226
 8749TIP3   OH247737   2.655   0.057  13.013 -0.4453  0.1113 -0.2559
 8749TIP3    H147738   2.635   0.089  12.925  0.2496  1.0506 -0.0914
 8749TIP3    H247739   2.626  -0.034  13.013  3.0305 -1.2151 -2.7503
 8750TIP3   OH247740   0.502   5.044   1.518  0.2931  0.7254 -0.1344
 8750TIP3    H147741   0.473   4.984   1.450  0.0197  1.8948 -1.0838
 8750TIP3    H247742   0.594   5.061   1.497  0.9517 -0.8348  1.2684
 8751TIP3   OH247743   1.758   6.297  11.078 -0.0709 -0.2466  0.5202
 8751TIP3    H147744   1.717   6.262  10.999 -1.7855  1.2438  0.6990
 8751TIP3    H247745   1.804   6.376  11.049  0.1688 -0.2570  0.8523
 8752TIP3   OH247746   5.017   0.019  12.808 -0.0537 -0.1417 -0.2076
 8752TIP3    H147747   5.105   0.006  12.772  0.1112 -0.1038  0.1766
 8752TIP3    H247748   4.971   0.071  12.742 -0.4708 -1.9526 -1.4120
 8753TIP3   OH247749   4.156   6.821  14.025  0.1600 -0.6194  0.0398
 8753TIP3    H147750   4.189   6.743  14.070 -0.2678 -1.6887 -1.4273
 8753TIP3    H247751   4.221   6.840  13.958 -0.5776 -0.7772 -0.7428
 8754TIP3   OH247752   3.045   6.043   5.344 -0.3053 -0.3072 -0.3401
 8754TIP3    H147753   3.107   6.072   5.278  1.0848 -1.7134  0.2872
 8754TIP3    H247754   2.992   5.976   5.300 -0.7716  0.2189 -0.5973
 8755TIP3   OH247755   2.165   0.634  12.129 -0.5064 -0.3446 -0.2657
 8755TIP3    H147756   2.256   0.611  12.111  0.1634  2.4146 -0.8725
 8755TIP3    H247757   2.117   0.604  12.051  0.2076 -0.1135 -0.8031
 8756TIP3   OH247758   0.912   1.365   0.875 -0.6101  0.0732 -0.1693
 8756TIP3    H147759   0.819   1.346   0.888 -0.3488 -2.1883 -1.1807
 8756TIP3    H247760   0.952   1.279   0.858  2.0530  0.6400  2.3458
 8757TIP3   OH247761   3.012   2.089  16.664  0.2383 -0.3153  0.6924
 8757TIP3    H147762   2.979   2.009  16.622  0.0444 -0.3461  0.8996
 8757TIP3    H247763   3.014   2.068  16.757  2.0955 -0.7630  0.5920
 8758TIP3   OH247764   4.304   5.520  12.352  0.7638 -0.5138  0.4641
 8758TIP3    H147765   4.208   5.522  12.350  0.7691 -0.0492 -1.6055
 8758TIP3    H247766   4.329   5.596  12.405 -0.0445  1.9592 -2.4101
 8759TIP3   OH247767   1.149   2.631  13.817 -0.0740  0.6697  0.0387
 8759TIP3    H147768   1.105   2.713  13.793  1.3544  1.4009 -0.1657
 8759TIP3    H247769   1.236   2.658  13.846  0.4736 -0.7912 -0.1674
 8760TIP3   OH247770   3.622   2.564   0.560  0.1197 -0.1382 -0.1209
 8760TIP3    H147771   3.637   2.656   0.538 -0.4622 -0.0884 -0.3327
 8760TIP3    H247772   3.527   2.558   0.572 -0.1399 -1.1311 -2.1426
 8761TIP3   OH247773   3.697   4.303   1.288  0.0692 -0.6452  0.6439
 8761TIP3    H147774   3.655   4.290   1.203  0.9146 -0.1650  0.1344
 8761TIP3    H247775   3.782   4.342   1.267  0.3685 -0.6884  1.7015
 8762TIP3   OH247776   1.025   5.326   4.617 -0.0142 -0.3633  0.1182
 8762TIP3    H147777   1.052   5.379   4.692 -1.1743 -0.7244  0.8107
 8762TIP3    H247778   1.079   5.359   4.544  1.6020 -0.4518  1.2307
 8763TIP3   OH247779   6.509   6.318   2.229 -0.0279 -0.5021  0.0020
 8763TIP3    H147780   6.553   6.254   2.286 -1.4466 -1.0341  0.5577
 8763TIP3    H247781   6.453   6.265   2.173 -1.0486  0.2253  0.3034
 8764TIP3   OH247782   5.686   4.637  14.661  0.2389 -0.3175  0.6713
 8764TIP3    H147783   5.604   4.587  14.660 -0.4873  0.8554 -0.0891
 8764TIP3    H247784   5.753   4.571  14.643 -0.6841 -1.0674 -0.1728
 8765TIP3   OH247785   6.488   2.813   3.387  0.2671 -0.0816  0.2564
 8765TIP3    H147786   6.536   2.826   3.469  3.6780 -1.2843 -1.3933
 8765TIP3    H247787   6.554   2.821   3.318 -2.4733  1.0301 -2.4849
 8766TIP3   OH247788   3.221   0.667  11.836  0.2439  0.0357 -0.1782
 8766TIP3    H147789   3.275   0.703  11.907 -1.8280  0.6958  1.1412
 8766TIP3    H247790   3.193   0.743  11.785 -0.3595 -0.1783 -0.1732
 8767TIP3   OH247791   3.674   5.606   2.335 -0.0043  0.0114 -0.2375
 8767TIP3    H147792   3.731   5.547   2.385  2.7129  2.0609 -0.6628
 8767TIP3    H247793   3.679   5.574   2.245  0.3172  0.0756 -0.2421
 8768TIP3   OH247794   5.814   4.109   5.506  0.0520  0.0148 -0.1816
 8768TIP3    H147795   5.736   4.156   5.538 -0.0049 -0.4499  0.3687
 8768TIP3    H247796   5.778   4.040   5.451  0.0380 -0.6119  0.6045
 8769TIP3   OH247797   3.339   5.223  16.719  0.0296  0.4739  0.6604
 8769TIP3    H147798   3.328   5.280  16.795 -0.2913 -0.2414  1.1647
 8769TIP3    H247799   3.293   5.267  16.648  0.9974  1.5334  0.6722
 8770TIP3   OH247800   2.935   5.403  13.460 -0.7496 -0.1220  0.0231
 8770TIP3    H147801   2.983   5.325  13.488  1.1117  0.9444  0.0143
 8770TIP3    H247802   2.851   5.370  13.428  0.4458 -2.2640 -1.1727
 8771TIP3   OH247803   4.973   3.223  14.934 -0.2594  0.4140  0.6065
 8771TIP3    H147804   4.976   3.140  14.982  0.2635  0.9342  1.5101
 8771TIP3    H247805   4.882   3.233  14.908  0.1550 -1.8861 -2.1717
 8772TIP3   OH247806   4.672   6.065  13.755 -0.1376  0.1804  0.1571
 8772TIP3    H147807   4.694   6.084  13.663  2.3410  0.0732  0.6402
 8772TIP3    H247808   4.691   6.147  13.801  0.6497 -0.3517  0.8217
 8773TIP3   OH247809   1.417   5.825  13.360 -0.0654 -0.4682 -0.5125
 8773TIP3    H147810   1.371   5.909  13.360  0.1984 -0.3218 -0.8199
 8773TIP3    H247811   1.450   5.816  13.449 -0.9359 -0.7140 -0.1989
 8774TIP3   OH247812   0.035   2.269   1.306 -0.2351  0.0217  0.3435
 8774TIP3    H147813   0.043   2.174   1.293 -0.3531  0.0961 -0.3081
 8774TIP3    H247814   0.078   2.285   1.390 -1.0085 -0.7256  0.8984
 8775TIP3   OH247815   6.255   1.516  11.230  0.3368 -0.3520  0.3975
 8775TIP3    H147816   6.174   1.464  11.232  0.2755 -0.3571 -1.0525
 8775TIP3    H247817   6.268   1.535  11.138  0.1531  2.5643  0.8875
 8776TIP3   OH247818   3.652   1.649  10.749  0.1727 -0.3283 -0.0857
 8776TIP3    H147819   3.646   1.719  10.814 -0.1457  1.3059 -1.8031
 8776TIP3    H247820   3.722   1.677  10.690 -0.0857 -1.3822 -0.9271
 8777TIP3   OH247821   0.708   4.699  12.950  0.0083  0.2676  0.4635
 8777TIP3    H147822   0.628   4.649  12.968 -1.1802  1.5354 -1.0157
 8777TIP3    H247823   0.686   4.788  12.975  1.1786  0.5352  0.5756
 8778TIP3   OH247824   2.717   6.039  15.236  0.1912  0.3156  0.0748
 8778TIP3    H147825   2.684   6.114  15.286  1.1146  0.1586  0.9520
 8778TIP3    H247826   2.663   6.037  15.157 -1.3081  0.5766  1.0586
 8779TIP3   OH247827   1.095   3.724   2.604 -0.2431 -0.2585  0.0355
 8779TIP3    H147828   1.098   3.669   2.526  0.1667  0.1687 -0.2511
 8779TIP3    H247829   1.179   3.709   2.647  0.1304  0.6179 -0.3743
 8780TIP3   OH247830   2.040   4.935   1.031 -0.0025  0.0052  0.4426
 8780TIP3    H147831   2.033   4.841   1.048 -0.6394  0.4490  3.1530
 8780TIP3    H247832   2.062   4.941   0.938 -0.1439 -2.7979  0.1332
 8781TIP3   OH247833   4.939   5.336   3.044 -0.3196 -0.2949 -0.4729
 8781TIP3    H147834   4.853   5.347   3.002 -0.8993  1.4335  1.0073
 8781TIP3    H247835   4.975   5.425   3.048 -0.3163 -0.3321  2.6030
 8782TIP3   OH247836   2.871   5.505   0.798 -0.1772  0.0316  0.1541
 8782TIP3    H147837   2.955   5.472   0.768  1.3888  1.7443  2.3209
 8782TIP3    H247838   2.867   5.482   0.890 -3.1285 -1.8572 -0.3201
 8783TIP3   OH247839   4.695   5.253   0.025  0.0283  0.1818  0.1786
 8783TIP3    H147840   4.673   5.321  -0.038 -0.0415  0.3265  0.3583
 8783TIP3    H247841   4.779   5.280   0.062 -1.2056  1.5370  2.1284
 8784TIP3   OH247842   3.403   6.665   6.210  0.2271  0.2736  0.2192
 8784TIP3    H147843   3.450   6.600   6.261 -0.4666 -0.3429  0.0874
 8784TIP3    H247844   3.362   6.722   6.275  1.7327  1.2641  0.3366
 8785TIP3   OH247845   5.616   6.744  16.386 -0.7731 -0.2703 -0.4784
 8785TIP3    H147846   5.623   6.827  16.433 -0.8124 -0.4930 -0.0755
 8785TIP3    H247847   5.668   6.683  16.437 -0.2348 -0.3524 -1.1171
 8786TIP3   OH247848   2.759   1.522  13.517 -0.2727  0.4694  0.7042
 8786TIP3    H147849   2.716   1.511  13.432 -0.7825 -0.6612  1.0868
 8786TIP3    H247850   2.824   1.590  13.502  0.4078 -0.4672 -0.8856
 8787TIP3   OH247851   0.879   0.185   0.638  0.0197  0.6766  0.4731
 8787TIP3    H147852   0.840   0.127   0.704  0.8903 -1.0498 -0.4465
 8787TIP3    H247853   0.971   0.191   0.664  0.4209 -0.2014 -0.6664
 8788TIP3   OH247854   1.814   4.492  15.963  0.1203  0.0847 -0.0175
 8788TIP3    H147855   1.812   4.512  15.869  0.7605  2.8298  0.4779
 8788TIP3    H247856   1.902   4.456  15.978 -0.7726 -2.7389 -0.7764
 8789TIP3   OH247857   4.651   1.441  15.696 -0.5647  0.3903  0.3501
 8789TIP3    H147858   4.580   1.378  15.701 -0.0459 -0.1926  0.5307
 8789TIP3    H247859   4.718   1.406  15.755  0.6550 -0.0829 -1.2667
 8790TIP3   OH247860   2.894   4.620  10.724  0.1697  0.3023  0.5054
 8790TIP3    H147861   2.898   4.686  10.654  0.1351 -0.7596 -0.5221
 8790TIP3    H247862   2.857   4.543  10.682 -1.8337  0.2622  2.2165
 8791TIP3   OH247863   4.648   2.975  15.119 -0.1253 -0.4020  0.4232
 8791TIP3    H147864   4.629   3.016  15.035 -1.2497 -0.5387  0.5894
 8791TIP3    H247865   4.562   2.963  15.160  0.4336  0.2487  1.8702
 8792TIP3   OH247866   1.471   2.009   2.642 -0.0646 -0.0235 -0.0702
 8792TIP3    H147867   1.465   1.914   2.632  0.9343 -0.1682  0.6105
 8792TIP3    H247868   1.562   2.030   2.623 -0.5488  0.9956 -1.5471
 8793TIP3   OH247869   0.228   1.483   4.286  0.1153 -0.3637  0.2678
 8793TIP3    H147870   0.261   1.564   4.248 -0.0167 -0.6369 -0.4327
 8793TIP3    H247871   0.171   1.511   4.358 -0.5816  0.1765 -0.4935
 8794TIP3   OH247872   0.817   1.376  11.634 -0.1625  0.4167 -0.0205
 8794TIP3    H147873   0.854   1.356  11.548  0.1218  1.9396 -0.2841
 8794TIP3    H247874   0.722   1.372  11.622 -0.1253 -0.7393 -0.0409
 8795TIP3   OH247875   1.669   5.142  16.629 -0.3904 -0.3213 -0.0826
 8795TIP3    H147876   1.625   5.114  16.549 -0.0525 -0.1056 -0.3488
 8795TIP3    H247877   1.757   5.168  16.600  0.5415 -2.3905  0.6867
 8796TIP3   OH247878   0.576   6.274  13.964  0.0530 -0.0006 -0.4177
 8796TIP3    H147879   0.565   6.185  13.931  1.5393 -0.8172  1.1410
 8796TIP3    H247880   0.629   6.318  13.896 -0.7063 -0.2742 -1.2010
 8797TIP3   OH247881   1.936   0.151   0.618  0.2321 -0.1538 -0.1056
 8797TIP3    H147882   1.901   0.063   0.600  1.2541 -0.8528  1.1122
 8797TIP3    H247883   1.958   0.148   0.711 -0.8487  1.8263  0.2573
 8798TIP3   OH247884   2.562   3.346   3.404 -0.7064  0.0114  0.1041
 8798TIP3    H147885   2.628   3.314   3.465 -2.2339 -1.7487  0.9636
 8798TIP3    H247886   2.545   3.436   3.432  1.7065  0.7512 -0.5640
 8799TIP3   OH247887   6.547   4.041  13.313  0.2404  0.4718 -0.3127
 8799TIP3    H147888   6.600   4.096  13.371 -0.9396  0.2901  0.9949
 8799TIP3    H247889   6.461   4.038  13.356  0.2316 -2.3329 -0.3706
 8800TIP3   OH247890   1.888   4.978   1.247 -0.4984 -0.4750  0.2102
 8800TIP3    H147891   1.943   4.947   1.175 -0.3007 -1.0035  0.5773
 8800TIP3    H247892   1.858   5.065   1.219  1.0204  0.0984  0.2481
 8801TIP3   OH247893   6.419   1.908   2.855  0.3775 -0.2780 -0.1212
 8801TIP3    H147894   6.507   1.941   2.873  0.9249 -1.6830 -0.1058
 8801TIP3    H247895   6.425   1.814   2.872 -0.1638 -1.0319 -3.4879
 8802TIP3   OH247896   3.377   5.549  14.322  0.2472 -0.4004  0.0824
 8802TIP3    H147897   3.305   5.499  14.284 -1.2546  1.6238  0.0825
 8802TIP3    H247898   3.431   5.574  14.248  1.0885 -2.0582  0.0961
 8803TIP3   OH247899   0.608   0.813  13.808 -0.5606 -0.1922 -0.3536
 8803TIP3    H147900   0.643   0.895  13.843 -0.2760  0.1241 -1.3488
 8803TIP3    H247901   0.572   0.768  13.884  2.6813 -0.9210  0.8936
 8804TIP3   OH247902   5.104   1.391   0.061  0.5200 -0.3215 -0.4334
 8804TIP3    H147903   5.051   1.344   0.126  1.1023 -0.3734  0.0103
 8804TIP3    H247904   5.164   1.325   0.026  0.3778 -0.2345 -0.8454
 8805TIP3   OH247905   3.761   3.240   3.072  0.0104 -0.1299 -0.1481
 8805TIP3    H147906   3.812   3.225   3.152  0.3165 -0.6210 -0.4221
 8805TIP3    H247907   3.714   3.158   3.058  1.9060 -1.0326 -1.8226
 8806TIP3   OH247908   2.115   3.244   0.300 -0.0125  0.1108  0.2508
 8806TIP3    H147909   2.031   3.204   0.320 -0.7493  0.3466 -2.0956
 8806TIP3    H247910   2.179   3.176   0.318 -0.8511 -0.6165  0.5686
 8807TIP3   OH247911   3.115   2.471   5.224 -0.3596 -0.6074 -0.4643
 8807TIP3    H147912   3.096   2.475   5.130  0.6203 -0.3864 -0.6593
 8807TIP3    H247913   3.070   2.546   5.261 -0.0629 -0.2147 -0.8876
 8808TIP3   OH247914   5.343   5.398  12.433  0.3453  0.6278  0.1656
 8808TIP3    H147915   5.334   5.467  12.368 -0.5453  1.5722  1.2519
 8808TIP3    H247916   5.334   5.442  12.518  2.4067 -0.4118  1.0024
 8809TIP3   OH247917   6.358   5.337  14.077  0.4506  0.1824  0.1149
 8809TIP3    H147918   6.419   5.346  14.004  1.2593  0.3626  0.7945
 8809TIP3    H247919   6.283   5.392  14.052  1.3967  1.5401  0.1046
 8810TIP3   OH247920   1.775   6.409  11.822  0.6944  0.1881  0.5289
 8810TIP3    H147921   1.755   6.370  11.907 -2.5670  1.2949  0.4021
 8810TIP3    H247922   1.746   6.344  11.758 -1.0214  1.0879  0.3303
 8811TIP3   OH247923   0.278   1.556   6.154  0.2707 -0.1577 -0.3748
 8811TIP3    H147924   0.290   1.501   6.231 -1.4260  0.2288  0.2102
 8811TIP3    H247925   0.192   1.530   6.119 -0.0242  1.2800 -0.7768
 8812TIP3   OH247926   4.315   6.069   4.262  0.1451 -0.1622 -0.2472
 8812TIP3    H147927   4.354   6.118   4.190  1.0938 -1.2607 -0.5170
 8812TIP3    H247928   4.264   6.000   4.220 -1.5736  0.8298  0.1181
 8813TIP3   OH247929   6.829   5.950   2.602  0.0665 -0.1672  0.6887
 8813TIP3    H147930   6.750   5.999   2.627  0.6116  0.4636  1.2359
 8813TIP3    H247931   6.901   6.012   2.617  0.5730 -0.2835 -1.0114
 8814TIP3   OH247932   2.817   3.283   0.841 -0.3990  0.3117  0.0200
 8814TIP3    H147933   2.822   3.214   0.775  0.0547 -0.9073  1.2846
 8814TIP3    H247934   2.855   3.244   0.920  0.3509  2.1835  0.6448
 8815TIP3   OH247935   2.558   5.752   3.479 -0.3835  0.0865 -0.1428
 8815TIP3    H147936   2.520   5.703   3.406 -0.6145  2.0569 -1.4236
 8815TIP3    H247937   2.506   5.727   3.555 -0.3246 -1.7954 -0.6775
 8816TIP3   OH247938   4.231   0.332   4.443  0.2957  0.1943  0.6987
 8816TIP3    H147939   4.292   0.383   4.390 -0.5733 -1.2214 -1.8681
 8816TIP3    H247940   4.273   0.245   4.449 -0.2771 -0.0554  1.1298
 8817TIP3   OH247941   3.842   3.438  13.844 -0.1130  0.3434  0.1130
 8817TIP3    H147942   3.905   3.490  13.893 -0.7860  1.3027 -0.0242
 8817TIP3    H247943   3.762   3.439  13.897 -0.9559  1.6684 -1.1182
 8818TIP3   OH247944   3.156   0.993   5.347 -0.1598  0.2890 -0.3533
 8818TIP3    H147945   3.136   1.057   5.415  1.1978  0.6571 -0.2785
 8818TIP3    H247946   3.164   1.044   5.266  1.1146  0.2692 -0.2615
 8819TIP3   OH247947   4.782   2.065   1.994 -0.1408  0.3789 -0.1754
 8819TIP3    H147948   4.806   2.049   2.086 -0.3831  1.3602  0.0693
 8819TIP3    H247949   4.787   2.160   1.984  1.6536  0.1672 -1.6876
 8820TIP3   OH247950   6.253   3.213   5.586 -0.1937 -0.0980 -0.4977
 8820TIP3    H147951   6.249   3.280   5.517  0.0950  0.0903 -0.3381
 8820TIP3    H247952   6.260   3.264   5.667 -0.1983 -0.3214 -0.3582
 8821TIP3   OH247953   1.367   4.104   1.344  0.3242 -0.7264 -0.5107
 8821TIP3    H147954   1.318   4.178   1.378 -0.9773 -0.8116 -2.0928
 8821TIP3    H247955   1.301   4.043   1.311  1.3772 -2.4174  0.3587
 8822TIP3   OH247956   2.723   0.392   5.054  0.1698 -0.3921 -0.3092
 8822TIP3    H147957   2.763   0.317   5.011  0.7697 -0.4987  0.4109
 8822TIP3    H247958   2.784   0.416   5.124  0.5167  1.4383 -1.1809
 8823TIP3   OH247959   1.644   5.531  14.269  0.1624 -0.1395  0.5885
 8823TIP3    H147960   1.647   5.436  14.282  0.2638 -0.1161  0.7384
 8823TIP3    H247961   1.672   5.568  14.353 -1.5713  0.0522  1.1311
 8824TIP3   OH247962   1.086   0.217  16.656 -0.2431  0.0735 -0.2281
 8824TIP3    H147963   1.148   0.290  16.644 -1.0095  0.8907  0.6253
 8824TIP3    H247964   1.001   0.260  16.665 -0.5855 -0.8501  1.3037
 8825TIP3   OH247965   4.262   0.011   0.798  0.2873  0.1682  0.0620
 8825TIP3    H147966   4.257  -0.077   0.836  0.2481  0.0175 -0.2966
 8825TIP3    H247967   4.340   0.050   0.837  0.3696 -0.0672  0.1307
 8826TIP3   OH247968   3.093   5.132   5.989 -0.5918  0.1962  0.1593
 8826TIP3    H147969   3.187   5.125   5.973 -0.9605  0.4541 -2.6375
 8826TIP3    H247970   3.075   5.067   6.057  1.2840 -1.3729 -0.7580
 8827TIP3   OH247971   5.689   2.768   4.409 -0.0043  0.0979  0.3743
 8827TIP3    H147972   5.762   2.830   4.413 -0.2397  0.5254 -1.2711
 8827TIP3    H247973   5.616   2.819   4.373 -0.7036 -0.7043  0.6060
 8828TIP3   OH247974   0.451   2.408   0.133  0.0251  0.4283  0.7671
 8828TIP3    H147975   0.475   2.370   0.217 -1.2190  0.5535  1.2013
 8828TIP3    H247976   0.371   2.362   0.109  0.4325  0.3055 -0.4176
 8829TIP3   OH247977   6.001   6.215  10.429 -0.2753 -0.7094  0.4209
 8829TIP3    H147978   5.946   6.218  10.350  0.6767  1.3787 -0.2392
 8829TIP3    H247979   6.083   6.176  10.399  0.1830  0.3344  0.3009
 8830TIP3   OH247980   2.121   0.060   0.443  0.1651 -0.0678  0.1171
 8830TIP3    H147981   2.176  -0.006   0.485  0.6580  0.5877  0.5072
 8830TIP3    H247982   2.086   0.112   0.515  0.9544  1.0138 -0.2507
 8831TIP3   OH247983   5.248   3.447  13.070  0.0127  0.3830  0.0973
 8831TIP3    H147984   5.233   3.381  13.138  0.8241 -0.9270 -0.9459
 8831TIP3    H247985   5.170   3.502  13.072 -0.8626 -0.8437  0.7305
 8832TIP3   OH247986   6.737   2.462   3.588 -0.3642  0.5547  0.1118
 8832TIP3    H147987   6.776   2.393   3.641 -0.0522 -0.9838 -1.9522
 8832TIP3    H247988   6.658   2.422   3.552 -0.0580  1.1682 -1.3133
 8833TIP3   OH247989   0.403   0.189  11.328  0.9374  0.3212 -0.2609
 8833TIP3    H147990   0.320   0.203  11.374  0.1653 -1.6940 -0.9373
 8833TIP3    H247991   0.449   0.274  11.334 -1.4502  1.7149 -0.4765
 8834TIP3   OH247992   5.054   4.964   0.862 -0.0142  0.2030 -0.6703
 8834TIP3    H147993   5.089   4.881   0.895  0.2168  0.5992  0.1231
 8834TIP3    H247994   5.075   4.964   0.769 -2.3448 -1.8191 -1.3209
 8835TIP3   OH247995   1.400   6.124   2.786 -0.0547  0.1339 -0.2947
 8835TIP3    H147996   1.392   6.156   2.696 -0.7235 -0.1307 -0.3367
 8835TIP3    H247997   1.395   6.029   2.777 -1.2528  0.1484  0.1269
 8836TIP3   OH247998   3.328   0.638  13.323 -0.1426  0.0044 -0.3402
 8836TIP3    H147999   3.327   0.702  13.394  0.3348 -1.7103  1.3093
 8836TIP3    H248000   3.238   0.636  13.292 -0.0634  1.8111 -0.8006
 8837TIP3   OH248001   3.178   3.453   0.125  0.4491 -0.0209  0.4536
 8837TIP3    H148002   3.085   3.453   0.100  0.5489 -0.4776  0.0802
 8837TIP3    H248003   3.184   3.521   0.193 -0.2033 -0.1496  0.6490
 8838TIP3   OH248004   5.222   4.857  16.688 -0.4046  0.0809 -0.1558
 8838TIP3    H148005   5.215   4.906  16.770 -0.5359 -0.9759  0.4899
 8838TIP3    H248006   5.309   4.877  16.655 -0.1865  0.1844  0.4685
 8839TIP3   OH248007   3.713   0.753   4.845  0.1655 -0.4156  0.3813
 8839TIP3    H148008   3.782   0.769   4.909 -0.4051 -0.0483  0.9272
 8839TIP3    H248009   3.644   0.816   4.868 -0.7927 -1.4818  0.5234
 8840TIP3   OH248010   0.194   3.761   6.172 -0.0116 -0.1621 -0.2023
 8840TIP3    H148011   0.288   3.776   6.161  0.2432 -1.6187 -0.1539
 8840TIP3    H248012   0.183   3.667   6.159 -1.4588 -0.0223 -0.1247
 8841TIP3   OH248013   4.251   1.588  14.731 -0.3672  0.2323 -0.8966
 8841TIP3    H148014   4.327   1.564  14.785 -0.6949 -0.2747 -0.6559
 8841TIP3    H248015   4.280   1.574  14.641 -0.5171 -0.9656 -0.7653
 8842TIP3   OH248016   5.994   5.920  16.789 -0.1087  0.3815  0.1053
 8842TIP3    H148017   6.008   5.834  16.751  0.6306  0.5962 -0.1302
 8842TIP3    H248018   6.064   5.974  16.753 -1.5258  1.5269 -1.0974
 8843TIP3   OH248019   5.956   1.921  13.216 -0.5545 -0.7043 -0.1281
 8843TIP3    H148020   6.032   1.863  13.217 -0.1301 -0.1566  0.8665
 8843TIP3    H248021   5.959   1.966  13.300 -1.1175  0.4358 -0.6903
 8844TIP3   OH248022   6.140   0.934  13.992 -0.3128  0.7273 -0.0333
 8844TIP3    H148023   6.221   0.963  13.950  1.4182 -1.8732  1.2430
 8844TIP3    H248024   6.107   1.012  14.036 -0.5763  2.7855 -3.5313
 8845TIP3   OH248025   2.305   4.013  14.672 -0.2626  0.6381  0.9155
 8845TIP3    H148026   2.219   3.975  14.656 -0.7312  2.3578 -1.1251
 8845TIP3    H248027   2.320   4.072  14.597  3.7397 -1.3790 -0.1856
 8846TIP3   OH248028   0.512   6.045   2.274 -0.2499  0.2891  0.4608
 8846TIP3    H148029   0.443   5.988   2.309 -0.1643 -0.0637  0.0633
 8846TIP3    H248030   0.501   6.041   2.179  0.3430  0.1982  0.3918
 8847TIP3   OH248031   3.563   0.527  13.498  0.4823 -0.4233 -0.0307
 8847TIP3    H148032   3.507   0.575  13.436  0.5469 -1.4657 -0.9168
 8847TIP3    H248033   3.623   0.477  13.443  1.9658  0.2472  0.8966
 8848TIP3   OH248034   0.073   6.783   0.004 -0.6716 -0.0972  0.0764
 8848TIP3    H148035   0.147   6.798  -0.054 -0.1511  0.5478  0.8888
 8848TIP3    H248036   0.002   6.837  -0.032 -0.6677 -0.5021 -0.5428
 8849TIP3   OH248037   5.341   6.250  11.562 -0.1197  0.1003  0.2722
 8849TIP3    H148038   5.382   6.316  11.506  2.3045 -1.8301 -0.3864
 8849TIP3    H248039   5.260   6.292  11.592  0.3786  2.6474 -1.5633
 8850TIP3   OH248040   5.685   3.704   2.102 -0.3121  0.5360  0.4063
 8850TIP3    H148041   5.644   3.787   2.079 -2.3396 -0.0320  1.7315
 8850TIP3    H248042   5.740   3.724   2.178  0.4406  0.9359 -0.2275
 8851TIP3   OH248043   0.671   4.703  16.413  0.3764 -0.0578  0.1800
 8851TIP3    H148044   0.753   4.719  16.460 -0.6048  1.2610  1.5444
 8851TIP3    H248045   0.624   4.786  16.417 -1.5298 -1.0750  0.4906
 8852TIP3   OH248046   0.977   1.316  11.852  0.0844 -0.0247  0.1732
 8852TIP3    H148047   1.065   1.281  11.841  0.3121  0.3461  0.7737
 8852TIP3    H248048   0.943   1.324  11.763  0.3770 -0.8733 -0.0206
 8853TIP3   OH248049   3.877   0.462  13.099  0.0041 -0.4585 -0.0202
 8853TIP3    H148050   3.900   0.520  13.171 -1.2622  1.4907 -1.0933
 8853TIP3    H248051   3.959   0.445  13.053  0.1584  2.4644 -1.0285
 8854TIP3   OH248052   0.798   0.743   6.549 -0.7952  0.8526 -0.1582
 8854TIP3    H148053   0.780   0.702   6.465  0.7631  0.6120 -0.3907
 8854TIP3    H248054   0.737   0.817   6.553 -0.4538  1.2682 -1.7954
 8855TIP3   OH248055   5.826   3.986  16.404  0.3665 -0.7629 -0.4054
 8855TIP3    H148056   5.851   3.924  16.335  3.4437 -1.1980  0.9112
 8855TIP3    H248057   5.737   4.012  16.382  0.4044 -2.5792 -3.2546
 8856TIP3   OH248058   5.484   0.509  16.121  0.1835  0.2425  0.1367
 8856TIP3    H148059   5.451   0.575  16.182  0.2384  0.9756 -0.6019
 8856TIP3    H248060   5.563   0.476  16.163 -0.4097 -0.1040  0.9967
 8857TIP3   OH248061   3.036   2.463   1.574  0.0715  0.4266  0.0451
 8857TIP3    H148062   3.041   2.372   1.546  0.3670  0.2343  0.7016
 8857TIP3    H248063   2.954   2.495   1.537  1.1536  0.6662 -2.4022
 8858TIP3   OH248064   2.054   6.649   3.316 -0.0175 -0.1801 -0.4195
 8858TIP3    H148065   2.063   6.651   3.411 -1.8811  0.0158 -0.1982
 8858TIP3    H248066   2.059   6.557   3.293  2.5358 -0.0975 -0.4241
 8859TIP3   OH248067   3.652   2.440  12.308  0.0551 -0.2532  0.4492
 8859TIP3    H148068   3.741   2.460  12.278  0.4248  0.5416  1.9838
 8859TIP3    H248069   3.624   2.366  12.253  1.2146  0.2100 -0.8247
 8860TIP3   OH248070   5.698   5.325  17.003  0.3837  0.4546 -0.1519
 8860TIP3    H148071   5.680   5.233  17.022  0.9191 -0.3190 -2.9221
 8860TIP3    H248072   5.789   5.337  17.028 -0.2535  0.9158  2.2266
 8861TIP3   OH248073   6.133   4.898   2.982  0.5991 -0.1109 -0.0346
 8861TIP3    H148074   6.167   4.839   3.050  0.6925 -0.3129 -0.2566
 8861TIP3    H248075   6.187   4.880   2.905 -0.1301 -0.5623 -0.4452
 8862TIP3   OH248076   2.756   5.626   5.742  0.6085  0.0807  0.3953
 8862TIP3    H148077   2.678   5.582   5.707  1.5777 -1.0737 -0.3767
 8862TIP3    H248078   2.786   5.570   5.813  0.1659  1.0608  1.3809
 8863TIP3   OH248079   2.125   4.422  13.007 -0.3237  0.0237 -0.4686
 8863TIP3    H148080   2.043   4.472  13.004 -0.5639 -0.3898 -1.2174
 8863TIP3    H248081   2.115   4.365  13.083 -0.5976  0.2118 -0.3626
 8864TIP3   OH248082   6.135   6.541  16.681 -0.4299  0.2624  0.2916
 8864TIP3    H148083   6.198   6.552  16.610 -0.7695 -1.8796 -0.4178
 8864TIP3    H248084   6.135   6.447  16.698 -0.7535  0.6627  2.7971
 8865TIP3   OH248085   4.521   5.221   0.842 -0.2626  0.2212  0.0703
 8865TIP3    H148086   4.604   5.256   0.807 -0.7681  1.6260  0.2304
 8865TIP3    H248087   4.504   5.144   0.788  0.6377  0.4926 -0.6403
 8866TIP3   OH248088   6.790   3.293  15.236  0.2371 -0.6230  0.0608
 8866TIP3    H148089   6.708   3.336  15.259  0.5156  1.4035 -2.2325
 8866TIP3    H248090   6.848   3.365  15.209  2.2840 -2.1014  0.2264
 8867TIP3   OH248091   0.283   5.940   5.829  0.1067  0.2566  0.6888
 8867TIP3    H148092   0.231   5.969   5.904 -1.7834 -0.9616 -0.0736
 8867TIP3    H248093   0.286   5.844   5.837 -1.3867 -0.0513 -1.4955
 8868TIP3   OH248094   3.226   3.991   2.349 -0.5162 -0.8834 -0.0206
 8868TIP3    H148095   3.248   4.081   2.371  1.2404 -1.6860  1.7709
 8868TIP3    H248096   3.134   3.982   2.371  0.3046 -0.6904  4.1994
 8869TIP3   OH248097   0.217   5.758   1.889 -0.2573  0.1216  0.0638
 8869TIP3    H148098   0.230   5.685   1.950 -0.8351  0.9727  1.2426
 8869TIP3    H248099   0.138   5.735   1.841  0.6472 -0.9396 -0.9742
 8870TIP3   OH248100   4.383   5.681  13.478  0.0267  0.1864  0.0240
 8870TIP3    H148101   4.431   5.762  13.497  0.8603  0.0642 -1.4166
 8870TIP3    H248102   4.329   5.704  13.402 -1.2266 -0.0698  0.8069
 8871TIP3   OH248103   4.676   2.153  14.557 -0.0454 -0.6932  0.0495
 8871TIP3    H148104   4.768   2.143  14.532 -0.7349 -0.7236 -2.8421
 8871TIP3    H248105   4.647   2.231  14.510 -1.8133 -1.4158 -0.1240
 8872TIP3   OH248106   3.997   0.818  11.494  0.1761  0.3097  0.1163
 8872TIP3    H148107   3.944   0.846  11.420 -1.1554 -0.5645  0.7140
 8872TIP3    H248108   3.934   0.795  11.562  1.3009 -1.1154  0.7217
 8873TIP3   OH248109   6.316   6.488  15.796 -0.5408  0.1180  0.7833
 8873TIP3    H148110   6.316   6.581  15.815  0.4536 -0.0329  1.5846
 8873TIP3    H248111   6.400   6.471  15.753 -0.0914 -0.6328  1.9093
 8874TIP3   OH248112   3.316   3.997   2.080 -0.8107 -0.2517  0.1602
 8874TIP3    H148113   3.323   3.952   2.165  0.1564  0.6715  0.6020
 8874TIP3    H248114   3.304   4.089   2.103  1.6128  0.3489 -0.6236
 8875TIP3   OH248115   0.410   4.499   4.577 -0.4344 -0.0903  0.5088
 8875TIP3    H148116   0.361   4.526   4.500  0.6172  0.5199  0.0356
 8875TIP3    H248117   0.422   4.405   4.566  0.5724  0.1482 -0.5892
 8876TIP3   OH248118   0.948   0.859  11.835  0.2405  0.2397  0.3792
 8876TIP3    H148119   0.937   0.928  11.770  0.3179  1.1516  1.3146
 8876TIP3    H248120   0.914   0.780  11.792 -1.8628  1.2643  0.0599
 8877TIP3   OH248121   2.358   4.304   5.081  0.3075  0.4386 -0.6801
 8877TIP3    H148122   2.442   4.260   5.068  0.6864  1.5520 -2.2388
 8877TIP3    H248123   2.357   4.375   5.017 -1.7668  0.5398 -0.6208
 8878TIP3   OH248124   5.778   4.204   1.311  0.7345  0.4835 -0.3202
 8878TIP3    H148125   5.718   4.251   1.253 -1.2491  0.2792  1.4557
 8878TIP3    H248126   5.862   4.250   1.300 -0.3696  2.4981 -0.9507
 8879TIP3   OH248127   3.544   5.724   2.040 -0.1301 -0.3837 -0.8727
 8879TIP3    H148128   3.588   5.772   2.110  1.1362  0.0966 -1.9621
 8879TIP3    H248129   3.458   5.766   2.033  0.5267  0.9908 -1.0257
 8880TIP3   OH248130   0.404   3.937  15.429 -0.1518  0.1429 -0.1473
 8880TIP3    H148131   0.429   3.970  15.343  1.9847  1.6730  0.9697
 8880TIP3    H248132   0.487   3.924  15.475 -1.2281  1.7177  2.4823
 8881TIP3   OH248133   3.547   2.508   5.938 -0.1609 -0.2991 -0.1338
 8881TIP3    H148134   3.570   2.439   6.000 -3.5921 -0.6307  0.9786
 8881TIP3    H248135   3.580   2.588   5.978  0.5346 -0.8791  0.4855
 8882TIP3   OH248136   3.557   4.764  14.044 -0.3392 -0.0102  0.6907
 8882TIP3    H148137   3.598   4.763  14.131 -1.1994  0.7966  1.1197
 8882TIP3    H248138   3.512   4.848  14.039 -0.7212 -0.2575 -0.3471
 8883TIP3   OH248139   5.003   2.924  14.937  0.2953  0.2945  0.0142
 8883TIP3    H148140   5.079   2.887  14.893  0.7047  0.2821  0.7380
 8883TIP3    H248141   4.964   2.852  14.985 -1.1148 -0.1030 -1.5883
 8884TIP3   OH248142   2.292   4.179   2.943 -0.4159  0.2563  0.2441
 8884TIP3    H148143   2.334   4.093   2.937 -1.2478 -0.1623  0.2332
 8884TIP3    H248144   2.291   4.211   2.853 -1.4364 -0.3940  0.0014
 8885TIP3   OH248145   5.664   0.546  12.877  0.1709 -0.0969 -0.0851
 8885TIP3    H148146   5.728   0.481  12.848 -0.9243 -2.4241  2.2833
 8885TIP3    H248147   5.690   0.627  12.833  2.1547 -1.8804 -2.5182
 8886TIP3   OH248148   4.725   4.163   1.969  0.0773 -0.1553 -0.1136
 8886TIP3    H148149   4.749   4.104   1.897 -0.3488 -0.3916 -0.0655
 8886TIP3    H248150   4.630   4.151   1.978  0.4512 -2.1118  2.2075
 8887TIP3   OH248151   3.057   5.178   1.550 -0.2939 -1.0352 -0.3966
 8887TIP3    H148152   2.987   5.208   1.492 -0.4287  0.2086  0.3642
 8887TIP3    H248153   3.094   5.259   1.587 -0.1061 -1.7681  1.1069
 8888TIP3   OH248154   1.895   3.257   3.369  0.2191  0.1418 -0.2114
 8888TIP3    H148155   1.911   3.193   3.439 -0.3985 -1.2960 -1.3307
 8888TIP3    H248156   1.857   3.332   3.414 -0.2746 -0.7892  0.9990
 8889TIP3   OH248157   5.736   0.930  15.687  0.2363  0.1699  0.1533
 8889TIP3    H148158   5.736   0.851  15.742 -0.6184  0.8013  1.1057
 8889TIP3    H248159   5.696   0.901  15.605  1.7863 -0.8560 -0.2900
 8890TIP3   OH248160   1.781   0.762  11.208  0.2906 -0.5495  0.6086
 8890TIP3    H148161   1.781   0.814  11.289  0.9736  1.3925 -0.5597
 8890TIP3    H248162   1.870   0.730  11.199  0.0779 -1.2245  0.9017
 8891TIP3   OH248163   1.843   1.838  13.022 -0.0355  0.2797 -0.1330
 8891TIP3    H148164   1.790   1.802  13.093  0.6856  0.7587  0.6696
 8891TIP3    H248165   1.795   1.815  12.942 -0.7169 -0.5113  0.4845
 8892TIP3   OH248166   6.421   0.952   1.725  0.1888  0.3944 -0.2424
 8892TIP3    H148167   6.443   0.912   1.640 -1.0134 -0.6367 -0.1015
 8892TIP3    H248168   6.342   0.905   1.753 -0.4617  1.9337  0.6157
 8893TIP3   OH248169   5.731   1.357  15.170 -0.1289  0.9647  0.4612
 8893TIP3    H148170   5.713   1.444  15.133 -0.6190  1.0441  0.8763
 8893TIP3    H248171   5.743   1.373  15.263  1.7244  0.8561  0.2871
 8894TIP3   OH248172   2.373   1.647  16.508  0.2554 -0.0433 -0.3543
 8894TIP3    H148173   2.312   1.620  16.439  1.4503 -0.9708 -1.0944
 8894TIP3    H248174   2.344   1.598  16.585 -0.1670 -0.1887 -0.6036
 8895TIP3   OH248175   2.397   2.000  12.842  0.0712 -0.3743 -0.0523
 8895TIP3    H148176   2.408   2.044  12.927  0.6708 -0.0929 -0.2688
 8895TIP3    H248177   2.432   2.062  12.778  0.4136 -0.9360 -0.4172
 8896TIP3   OH248178   0.327   5.571  15.206 -0.0278  0.1508  0.4730
 8896TIP3    H148179   0.293   5.580  15.295  1.0774 -0.1273  0.9475
 8896TIP3    H248180   0.417   5.541  15.218  0.1920  0.2675 -0.7425
 8897TIP3   OH248181   0.769   5.532  16.017  0.5719  0.2736  0.5942
 8897TIP3    H148182   0.808   5.552  16.102  0.6023 -1.6722  1.0912
 8897TIP3    H248183   0.687   5.581  16.015 -0.2256 -0.9046  2.4690
 8898TIP3   OH248184   4.234   2.648   0.506  0.4262  0.0835  0.1906
 8898TIP3    H148185   4.261   2.715   0.444 -0.1499  0.3512  0.2304
 8898TIP3    H248186   4.158   2.607   0.466  0.9959 -0.8173 -0.0155
 8899TIP3   OH248187   2.082   2.438   1.373 -0.2254  0.1107 -0.0687
 8899TIP3    H148188   2.132   2.362   1.344  0.6458  0.1428  1.2821
 8899TIP3    H248189   1.995   2.403   1.393  0.5545 -0.8673  1.8956
 8900TIP3   OH248190   1.059   5.358  15.481 -0.1250  0.4691 -0.2724
 8900TIP3    H148191   1.111   5.409  15.543 -0.3881  2.3011 -1.4791
 8900TIP3    H248192   1.000   5.307  15.536  1.2298  0.2287  1.0402
 8901TIP3   OH248193   2.228   4.914   4.380  0.6511 -0.1486  0.2180
 8901TIP3    H148194   2.160   4.896   4.315  0.6055 -0.1024  0.2525
 8901TIP3    H248195   2.186   4.898   4.464  0.0010  1.9356  0.3540
 8902TIP3   OH248196   5.918   5.694   2.192 -0.2244  0.2131 -0.4701
 8902TIP3    H148197   5.980   5.749   2.240 -2.2656  0.5394  1.9696
 8902TIP3    H248198   5.850   5.755   2.163 -0.1368 -0.3448 -1.9227
 8903TIP3   OH248199   3.412   4.287  13.715 -0.2176  0.0030 -0.4764
 8903TIP3    H148200   3.320   4.265  13.706 -0.5780  1.1232  0.2153
 8903TIP3    H248201   3.442   4.301  13.626 -0.2574 -1.9841 -0.8530
 8904TIP3   OH248202   2.000   0.285  13.289  0.3700 -0.5158 -0.6387
 8904TIP3    H148203   1.951   0.203  13.298  1.5274 -1.4618 -2.5306
 8904TIP3    H248204   2.090   0.258  13.271  1.2206  1.2004  0.6705
 8905TIP3   OH248205   5.127   0.060  15.089 -0.4277 -0.0062  0.0052
 8905TIP3    H148206   5.087   0.084  15.005  1.0454 -1.2519 -1.1293
 8905TIP3    H248207   5.222   0.069  15.073 -0.1497  1.5079  2.1397
 8906TIP3   OH248208   1.900   1.146  14.713 -0.4310  0.1728  0.2369
 8906TIP3    H148209   1.958   1.166  14.786  0.0159 -2.3766  0.6973
 8906TIP3    H248210   1.940   1.190  14.638  2.0838 -1.3157  0.5728
 8907TIP3   OH248211   6.834   4.764   2.211 -0.2092 -0.8029 -0.5397
 8907TIP3    H148212   6.789   4.846   2.234 -0.4479 -0.6029 -1.6703
 8907TIP3    H248213   6.794   4.699   2.269 -1.0156 -0.3716 -0.5834
 8908TIP3   OH248214   3.123   0.670   5.978  0.1020  0.4812 -0.0859
 8908TIP3    H148215   3.080   0.679   6.063 -0.2799 -0.6262 -0.1420
 8908TIP3    H248216   3.088   0.742   5.926  1.5577  2.1630  1.1568
 8909TIP3   OH248217   1.714   1.948  14.740  0.4681 -0.4659 -0.0996
 8909TIP3    H148218   1.793   1.927  14.789  1.0396 -1.1740 -1.2748
 8909TIP3    H248219   1.745   2.003  14.668 -0.3592  0.6089  0.3345
 8910TIP3   OH248220   6.807   3.822  12.324  0.6231  0.2932 -0.7149
 8910TIP3    H148221   6.769   3.752  12.271 -1.4462 -0.8296  1.9597
 8910TIP3    H248222   6.731   3.870  12.358  1.8342  1.3329  0.6529
 8911TIP3   OH248223   4.945   1.798  14.351 -0.0921 -0.2239 -0.1178
 8911TIP3    H148224   4.866   1.835  14.390 -0.4739 -1.0356 -0.0967
 8911TIP3    H248225   4.932   1.703  14.357  0.6401 -0.3605 -0.6144
 8912TIP3   OH248226   6.595   2.596  16.558  0.3173  0.9710  0.3577
 8912TIP3    H148227   6.614   2.524  16.498  0.7270  0.9120  0.5491
 8912TIP3    H248228   6.554   2.663  16.504  0.1502  0.6880  0.1302
 8913TIP3   OH248229   5.389   5.970   4.086  0.5536 -0.1841  0.0020
 8913TIP3    H148230   5.448   5.896   4.073  1.8445  0.6222  0.9573
 8913TIP3    H248231   5.440   6.031   4.140 -1.3751  0.2930  1.3699
 8914TIP3   OH248232   2.047   6.624   3.600  0.5558  0.1088  0.3007
 8914TIP3    H148233   2.077   6.572   3.674  0.9854  1.7479  1.3396
 8914TIP3    H248234   1.965   6.663   3.630  1.0291  1.2475  0.1573
 8915TIP3   OH248235   3.329   2.928  17.075  0.2125 -0.7097 -0.1054
 8915TIP3    H148236   3.367   3.002  17.028 -1.1617 -0.3129 -0.6440
 8915TIP3    H248237   3.255   2.965  17.123  0.8082 -1.3481  1.3613
 8916TIP3   OH248238   4.438   2.861   2.719 -0.3281  0.4332  0.5383
 8916TIP3    H148239   4.522   2.889   2.681 -0.5521  1.6722  0.9020
 8916TIP3    H248240   4.372   2.888   2.655 -0.4290 -1.1456 -0.0650
 8917TIP3   OH248241   0.693   2.340  15.169 -0.4810  0.1922 -0.1849
 8917TIP3    H148242   0.701   2.314  15.261 -0.0073  0.8142 -0.0434
 8917TIP3    H248243   0.652   2.426  15.172  0.9996  0.9385 -0.4482
 8918TIP3   OH248244   5.396   6.603  15.100  0.4944  0.2583 -0.2716
 8918TIP3    H148245   5.462   6.567  15.041  0.2172 -2.2355  0.8423
 8918TIP3    H248246   5.313   6.586  15.056  0.3525 -0.6934  0.3319
 8919TIP3   OH248247   0.800   1.258   6.313 -0.2567  0.3482  0.0791
 8919TIP3    H148248   0.725   1.304   6.352  0.4686  0.3128  1.6127
 8919TIP3    H248249   0.877   1.304   6.348  0.4520 -0.2060 -0.7052
 8920TIP3   OH248250   5.437   2.222  13.109 -0.0573  0.2019  0.1629
 8920TIP3    H148251   5.431   2.234  13.014 -1.2604  0.8593  0.2949
 8920TIP3    H248252   5.416   2.129  13.123 -1.0860  0.3696 -0.1473
 8921TIP3   OH248253   5.749   2.837  14.739 -0.1575  0.1524 -0.0427
 8921TIP3    H148254   5.776   2.880  14.821  0.6051 -0.4498  0.0353
 8921TIP3    H248255   5.764   2.744  14.755 -0.0796  0.0225 -0.8382
 8922TIP3   OH248256   2.538   6.377   2.174 -0.5706  0.1168 -0.3967
 8922TIP3    H148257   2.485   6.336   2.106 -1.6130  2.6616 -1.2266
 8922TIP3    H248258   2.586   6.446   2.129 -0.7140  1.4039  1.3237
 8923TIP3   OH248259   2.110   0.287   3.753 -0.2756  0.4894 -0.1339
 8923TIP3    H148260   2.114   0.194   3.777  1.8700  0.2071 -1.3475
 8923TIP3    H248261   2.039   0.292   3.689  1.3912 -0.9141 -2.1998
 8924TIP3   OH248262   5.186   4.130   1.622 -0.5831  0.5372  0.9934
 8924TIP3    H148263   5.096   4.135   1.591 -0.4393  2.3909  0.7870
 8924TIP3    H248264   5.208   4.219   1.649  1.3704  0.2544  0.5243
 8925TIP3   OH248265   2.906   5.025  15.767  0.1534 -0.2629  0.4210
 8925TIP3    H148266   2.910   5.059  15.856 -0.8414  0.0533  0.3543
 8925TIP3    H248267   2.813   5.029  15.744  0.2405 -1.4970 -0.1918
 8926TIP3   OH248268   1.108   4.427  11.867  0.0883  0.0984  0.0183
 8926TIP3    H148269   1.044   4.497  11.854  0.4131  0.6594  1.2815
 8926TIP3    H248270   1.176   4.466  11.923  0.1906 -1.2591  0.9060
 8927TIP3   OH248271   4.591   1.760  11.142 -0.1262 -0.0775 -0.1059
 8927TIP3    H148272   4.679   1.777  11.174  0.4460 -3.6272  0.6372
 8927TIP3    H248273   4.537   1.759  11.221 -0.5960  0.7256 -0.4081
 8928TIP3   OH248274   0.379   1.687   4.771  0.1356  0.2118  0.0791
 8928TIP3    H148275   0.356   1.763   4.824  0.0054 -0.7458  1.4375
 8928TIP3    H248276   0.382   1.614   4.833  2.7048 -0.4688 -0.7245
 8929TIP3   OH248277   4.394   6.351   5.729  0.1461  0.0447 -0.9316
 8929TIP3    H148278   4.402   6.426   5.788  0.1493 -0.6821  0.0290
 8929TIP3    H248279   4.326   6.297   5.770  1.5766 -1.4763 -0.4669
 8930TIP3   OH248280   3.184   0.320   6.706 -0.1268  0.3414  0.3313
 8930TIP3    H148281   3.094   0.291   6.695  0.2368 -0.3834 -0.9333
 8930TIP3    H248282   3.232   0.280   6.634  1.3062  0.3676  1.2142
 8931TIP3   OH248283   6.262   4.795   2.775  0.2159  0.0604 -0.4107
 8931TIP3    H148284   6.291   4.706   2.755 -0.2957 -0.3896  0.7547
 8931TIP3    H248285   6.317   4.851   2.721  0.0936 -0.9896 -1.6756
 8932TIP3   OH248286   1.940   6.432   5.690 -0.2121 -0.2582  0.1906
 8932TIP3    H148287   1.885   6.412   5.614 -0.6735  0.9775  0.1770
 8932TIP3    H248288   1.880   6.434   5.764 -0.0448  0.1741  0.3215
 8933TIP3   OH248289   2.954   4.350   3.612 -0.6446 -0.1468 -0.5488
 8933TIP3    H148290   2.977   4.401   3.690 -1.7475 -0.9401  0.3435
 8933TIP3    H248291   3.004   4.269   3.622 -1.6304 -0.7123 -0.0594
 8934TIP3   OH248292   5.454   1.251   3.932 -0.3871  0.1499 -0.3342
 8934TIP3    H148293   5.549   1.247   3.926 -0.3692 -2.9461  0.2603
 8934TIP3    H248294   5.437   1.264   4.026 -0.5731  1.1997 -0.5055
 8935TIP3   OH248295   2.984   2.716  13.160 -0.0485  0.0346 -1.3043
 8935TIP3    H148296   2.961   2.808  13.169  1.3410  0.2066  2.4006
 8935TIP3    H248297   2.900   2.670  13.153 -1.1395  1.3327  1.5677
 8936TIP3   OH248298   2.392   3.823   5.314 -0.4136  0.1698 -0.8541
 8936TIP3    H148299   2.335   3.782   5.250  1.3198 -1.4062 -1.4958
 8936TIP3    H248300   2.479   3.822   5.273  0.1741  2.1481  0.2007
 8937TIP3   OH248301   4.605   1.373   3.475  0.1088 -0.0314 -0.6243
 8937TIP3    H148302   4.673   1.434   3.447  0.0495  0.1471 -0.3838
 8937TIP3    H248303   4.527   1.401   3.427 -0.0716  0.4752 -0.0400
 8938TIP3   OH248304   6.057   3.945   3.482  0.6353  0.1563  0.9350
 8938TIP3    H148305   6.048   3.933   3.577 -0.5963  1.8583  1.0699
 8938TIP3    H248306   6.005   3.875   3.444  1.9450 -1.1553  1.4700
 8939TIP3   OH248307   5.281   4.912   5.197  0.0726  0.8581  0.2882
 8939TIP3    H148308   5.232   4.853   5.141  0.8506  0.1173  0.3687
 8939TIP3    H248309   5.346   4.857   5.240  0.3407  1.6426  0.9212
 8940TIP3   OH248310   2.227   5.374  15.420 -0.3725 -0.3333  0.5069
 8940TIP3    H148311   2.319   5.395  15.405 -0.1719  0.0612  2.0794
 8940TIP3    H248312   2.207   5.415  15.504 -2.0218 -0.3195  0.1363
 8941TIP3   OH248313   0.461   6.334   3.305  0.4468  0.2978  0.2278
 8941TIP3    H148314   0.394   6.339   3.237 -1.5754  1.0963  2.1653
 8941TIP3    H248315   0.427   6.272   3.369  1.0331  1.5167  1.7928
 8942TIP3   OH248316   6.497   2.678  12.713  0.1065 -0.2179 -0.3338
 8942TIP3    H148317   6.462   2.744  12.773  3.7098  0.4880  1.3023
 8942TIP3    H248318   6.472   2.708  12.626 -1.3507  1.3558  0.5706
 8943TIP3   OH248319   0.111   5.877  14.487 -0.3843  0.3705  0.0893
 8943TIP3    H148320   0.032   5.849  14.533 -0.6712  1.1897  0.0956
 8943TIP3    H248321   0.079   5.931  14.415 -0.0091 -1.5102 -1.6014
 8944TIP3   OH248322   6.507   1.436   4.286  0.0044  0.3377 -0.4796
 8944TIP3    H148323   6.435   1.485   4.326 -0.3194  0.0081 -0.6547
 8944TIP3    H248324   6.533   1.488   4.211  0.5568  0.9176  0.0988
 8945TIP3   OH248325   3.280   0.520  11.440 -0.7097 -0.2006  0.0009
 8945TIP3    H148326   3.204   0.500  11.495  0.4675 -1.5565  1.2375
 8945TIP3    H248327   3.265   0.472  11.359 -0.0489 -2.6726  1.2229
 8946TIP3   OH248328   5.317   1.928   2.495 -0.7020  0.1096  0.1133
 8946TIP3    H148329   5.243   1.868   2.502 -1.8060  1.1457 -1.8110
 8946TIP3    H248330   5.276   2.015   2.496  0.3573  0.6866 -1.9656
 8947TIP3   OH248331   1.976   6.043   2.101  0.0650  0.5150  0.7865
 8947TIP3    H148332   1.926   5.962   2.088 -0.7665  1.2069 -0.5992
 8947TIP3    H248333   2.036   6.047   2.026 -0.0587  1.2673  0.7147
 8948TIP3   OH248334   3.741   3.255  14.848 -0.3650  0.0411  0.4047
 8948TIP3    H148335   3.647   3.239  14.857 -0.0872 -1.4433  1.1071
 8948TIP3    H248336   3.777   3.169  14.827  0.8969  0.4729  0.7312
 8949TIP3   OH248337   2.198   5.915   5.325  0.2849  0.2404 -0.0992
 8949TIP3    H148338   2.155   5.999   5.311 -0.0179  0.5757  2.4141
 8949TIP3    H248339   2.127   5.857   5.354  0.9925  0.0057  1.2370
 8950TIP3   OH248340   5.218   1.881  14.194 -0.0057 -0.0195  0.3942
 8950TIP3    H148341   5.210   1.876  14.098 -1.3514 -1.5541  0.5533
 8950TIP3    H248342   5.128   1.885  14.225  0.3055 -1.9298  1.6806
 8951TIP3   OH248343   4.438   3.412  10.814 -0.2010  0.4406 -0.0387
 8951TIP3    H148344   4.412   3.500  10.840 -1.3021  0.1109  0.0066
 8951TIP3    H248345   4.447   3.416  10.719  0.0919  0.6799 -0.0035
 8952TIP3   OH248346   0.174   2.969  17.087  0.2774 -0.3667 -0.2936
 8952TIP3    H148347   0.158   2.918  17.007  0.5732  0.4721 -0.9100
 8952TIP3    H248348   0.086   2.983  17.124  0.0400  0.0016 -0.9733
 8953TIP3   OH248349   5.188   0.570   4.581 -0.3162 -0.1397 -0.7097
 8953TIP3    H148350   5.111   0.613   4.544  0.7129  0.9110 -1.7048
 8953TIP3    H248351   5.190   0.484   4.539 -0.3385  0.2504 -1.5391
 8954TIP3   OH248352   0.297   3.368   1.599 -0.2117  0.0331  0.3735
 8954TIP3    H148353   0.253   3.348   1.516 -3.2274  4.0926  0.7240
 8954TIP3    H248354   0.246   3.321   1.665 -0.3543  0.0826  0.2982
 8955TIP3   OH248355   1.121   2.300  11.850 -0.3211  0.0204 -0.0407
 8955TIP3    H148356   1.063   2.236  11.889 -0.2954  0.3801  0.5973
 8955TIP3    H248357   1.096   2.383  11.889  0.6787  0.1702  0.3256
 8956TIP3   OH248358   3.371   3.707   5.207  1.1036 -0.1287 -0.5643
 8956TIP3    H148359   3.317   3.768   5.258  0.5290 -1.4082  0.4579
 8956TIP3    H248360   3.450   3.756   5.187  1.2010  0.5839  1.2837
 8957TIP3   OH248361   1.951   6.247  14.215  0.2187 -0.4266  0.2786
 8957TIP3    H148362   1.881   6.182  14.215 -1.2982  1.1010 -0.4217
 8957TIP3    H248363   1.938   6.295  14.297  0.0701  0.2009 -0.1015
 8958TIP3   OH248364   1.877   5.230   5.374 -0.7457  0.4081  0.6906
 8958TIP3    H148365   1.860   5.319   5.344  0.1043  0.7749  1.2818
 8958TIP3    H248366   1.880   5.178   5.293 -0.4432  1.0477  0.2848
 8959TIP3   OH248367   6.595   2.048  11.159 -0.0307  0.4161 -0.2055
 8959TIP3    H148368   6.573   2.082  11.072 -0.1132 -3.0124 -1.6900
 8959TIP3    H248369   6.513   2.008  11.190  0.9014 -1.7167 -0.3210
 8960TIP3   OH248370   1.339   3.868   2.520  0.3388  0.3135 -0.0836
 8960TIP3    H148371   1.418   3.865   2.466  0.8260 -2.0896  0.6484
 8960TIP3    H248372   1.350   3.797   2.583 -1.0761  1.7904  1.9931
 8961TIP3   OH248373   1.475   6.457   2.729 -0.9470  0.4378  0.1926
 8961TIP3    H148374   1.543   6.459   2.662 -0.9597  0.3237  0.1766
 8961TIP3    H248375   1.499   6.526   2.790 -0.7553  0.3202  0.2488
 8962TIP3   OH248376   4.898   0.646  14.669 -0.3570 -0.7961  0.2662
 8962TIP3    H148377   4.918   0.572  14.727  2.6640  0.3499  0.9123
 8962TIP3    H248378   4.912   0.612  14.581 -0.8166 -1.4682  0.4447
 8963TIP3   OH248379   4.826   6.351   4.635  0.0691  0.1033 -0.6178
 8963TIP3    H148380   4.807   6.339   4.728 -0.7041  0.6143 -0.7043
 8963TIP3    H248381   4.902   6.295   4.619 -0.4124 -0.7786  0.0900
 8964TIP3   OH248382   1.518   1.493   4.174  0.4532  0.3168 -0.9090
 8964TIP3    H148383   1.588   1.429   4.179  1.1272  1.0981  0.5873
 8964TIP3    H248384   1.558   1.574   4.206 -1.0476  0.8390 -0.2694
 8965TIP3   OH248385   4.367   2.511   3.206 -0.4199  1.0640  0.1491
 8965TIP3    H148386   4.295   2.568   3.181  0.1216  2.6829  1.9638
 8965TIP3    H248387   4.326   2.429   3.231 -1.3036  0.8884 -1.7688
 8966TIP3   OH248388   0.359   4.685   1.483 -0.8274  0.6561  0.3486
 8966TIP3    H148389   0.314   4.600   1.482  1.6014 -0.7129  0.4712
 8966TIP3    H248390   0.328   4.729   1.404 -0.9895 -0.9944 -0.5605
 8967TIP3   OH248391   6.743   3.928   1.919  0.1665 -0.2330  0.8038
 8967TIP3    H148392   6.801   3.870   1.868 -0.1975 -0.9440  1.1883
 8967TIP3    H248393   6.669   3.873   1.943 -0.2288  0.4234  1.1120
 8968TIP3   OH248394   2.217   3.285   3.566 -0.4630 -0.4099  0.3849
 8968TIP3    H148395   2.190   3.371   3.535  0.2262  0.6077  2.4567
 8968TIP3    H248396   2.308   3.297   3.593 -0.3094 -1.8418  0.6031
 8969TIP3   OH248397   5.712   3.769   1.507  0.3420 -0.0250  0.0936
 8969TIP3    H148398   5.648   3.717   1.556  0.5333 -0.7107 -0.3682
 8969TIP3    H248399   5.662   3.843   1.473  0.0155 -0.0237  0.5691
 8970TIP3   OH248400   5.349   2.786  10.994 -0.1229  0.3580 -0.0674
 8970TIP3    H148401   5.413   2.816  11.059 -0.0924  2.3937 -0.9615
 8970TIP3    H248402   5.392   2.799  10.910 -0.5071 -1.4002 -0.5885
 8971TIP3   OH248403   1.023   5.079  16.395  0.4726  0.0437  0.4740
 8971TIP3    H148404   0.976   5.108  16.317 -1.2955  0.3245  1.5817
 8971TIP3    H248405   1.095   5.025  16.362 -1.9888 -2.4539 -1.3158
 8972TIP3   OH248406   4.800   5.545  12.471 -0.2679 -0.6329 -0.7258
 8972TIP3    H148407   4.756   5.501  12.399 -0.5924 -1.2490 -0.1615
 8972TIP3    H248408   4.750   5.521  12.549  0.4920 -0.5604 -0.1973
 8973TIP3   OH248409   0.239   4.622  14.188  0.2864  0.1319  0.4556
 8973TIP3    H148410   0.183   4.545  14.182  0.7693 -0.3386  1.7887
 8973TIP3    H248411   0.216   4.662  14.272 -0.0843  1.5605 -0.2921
 8974TIP3   OH248412   5.175   1.841  12.274  0.4335 -0.1418 -0.3928
 8974TIP3    H148413   5.246   1.890  12.232  0.2053  0.5655  0.0224
 8974TIP3    H248414   5.173   1.873  12.364 -0.4704 -0.0737 -0.4238
 8975TIP3   OH248415   0.880   1.627   3.680 -0.2249 -0.3771  0.2521
 8975TIP3    H148416   0.816   1.688   3.643  0.9867  1.1208  0.5105
 8975TIP3    H248417   0.964   1.657   3.646  0.4679 -1.5568  0.8684
 8976TIP3   OH248418   0.501   1.214  10.068  0.3505  0.1630  0.1159
 8976TIP3    H148419   0.566   1.149  10.041 -0.5898  0.6099 -3.7041
 8976TIP3    H248420   0.554   1.288  10.100  1.6510 -0.4023 -0.6396
 8977TIP3   OH248421   6.646   6.257   5.332  0.2868 -0.6875 -0.0293
 8977TIP3    H148422   6.615   6.168   5.346 -1.3742 -0.1759 -0.1811
 8977TIP3    H248423   6.587   6.311   5.384  1.0233  0.3487 -0.2477
 8978TIP3   OH248424   3.500   2.909  12.743 -0.1901 -0.1033 -0.1439
 8978TIP3    H148425   3.426   2.853  12.718  1.5352 -2.5813 -0.1248
 8978TIP3    H248426   3.483   2.932  12.834 -0.3708 -1.7443  0.2768
 8979TIP3   OH248427   2.862   4.299  12.232 -0.2390  0.0137 -0.1901
 8979TIP3    H148428   2.782   4.248  12.217  0.7771 -1.1268 -2.0440
 8979TIP3    H248429   2.875   4.348  12.151  0.5844  0.7203  0.3490
 8980TIP3   OH248430   2.598   1.201  14.193  0.0579 -0.0721 -0.9993
 8980TIP3    H148431   2.635   1.190  14.280  0.2885  0.0636 -1.0791
 8980TIP3    H248432   2.561   1.289  14.193  0.5923  0.1599 -1.2306
 8981TIP3   OH248433   5.548   6.119   5.479 -0.1559  0.2879 -0.4904
 8981TIP3    H148434   5.599   6.083   5.408  0.4762 -0.0457  0.1251
 8981TIP3    H248435   5.528   6.209   5.452 -1.0232 -0.2339 -1.6495
 8982TIP3   OH248436   5.423   4.439  13.775  0.1834  0.2189  0.0506
 8982TIP3    H148437   5.400   4.495  13.701  0.1663 -0.2647 -0.3125
 8982TIP3    H248438   5.425   4.351  13.739 -0.9226 -0.1604  0.8512
 8983TIP3   OH248439   3.828   1.627  13.196  0.0259  0.3644  0.8816
 8983TIP3    H148440   3.767   1.699  13.214 -3.2833 -1.9123 -0.2904
 8983TIP3    H248441   3.840   1.629  13.101 -2.0464 -1.9174  0.4838
 8984TIP3   OH248442   4.428   3.133  13.744  0.5708 -0.1488  0.5288
 8984TIP3    H148443   4.436   3.190  13.668 -1.0891 -0.0726  0.3825
 8984TIP3    H248444   4.399   3.049  13.709  0.0609 -0.1942  1.0431
 8985TIP3   OH248445   3.838   3.926   0.814 -0.1768 -0.1184  0.5056
 8985TIP3    H148446   3.808   3.994   0.874  0.3777  1.7698 -1.2334
 8985TIP3    H248447   3.892   3.973   0.750  0.2474 -2.2153 -0.7682
 8986TIP3   OH248448   3.159   0.884  10.754  0.1963 -0.1821  0.4339
 8986TIP3    H148449   3.070   0.851  10.755 -0.6005  1.8234  1.5313
 8986TIP3    H248450   3.166   0.935  10.673 -0.2247  1.0002  1.1161
 8987TIP3   OH248451   1.015   3.104  11.995 -0.0707 -0.5428  0.3395
 8987TIP3    H148452   1.026   3.187  11.949  1.9499 -2.3394 -2.8490
 8987TIP3    H248453   0.931   3.070  11.965 -0.5065 -0.0367  0.9815
 8988TIP3   OH248454   3.090   3.634  13.968  0.0134  0.2570  0.8205
 8988TIP3    H148455   3.163   3.573  13.980 -1.4657 -1.5235  1.1696
 8988TIP3    H248456   3.058   3.651  14.057 -0.1764  0.8048  0.6497
 8989TIP3   OH248457   4.263   1.298  15.281  0.2713 -0.1328  0.8028
 8989TIP3    H148458   4.243   1.385  15.316  0.4225 -0.3800  1.5199
 8989TIP3    H248459   4.251   1.307  15.186 -1.4012  0.2241  1.0050
 8990TIP3   OH248460   2.896   4.607  12.362 -0.2100 -0.0196 -0.1652
 8990TIP3    H148461   2.811   4.629  12.324 -0.9024 -1.7076  0.3234
 8990TIP3    H248462   2.957   4.613  12.289 -0.6416  1.6463 -0.4325
 8991TIP3   OH248463   5.060   2.544   3.075  0.2494 -0.1381 -0.2018
 8991TIP3    H148464   5.138   2.593   3.050 -1.2305  1.8650 -1.1543
 8991TIP3    H248465   5.033   2.582   3.159 -2.1277  2.4256 -1.9430
 8992TIP3   OH248466   3.978   1.708   1.494  0.5682  0.3478 -0.0010
 8992TIP3    H148467   3.904   1.651   1.472 -0.3922  0.8863  1.5982
 8992TIP3    H248468   4.046   1.686   1.431 -0.2486 -1.6055 -0.2590
 8993TIP3   OH248469   2.577   3.697   1.809 -0.4479  0.9525  0.6102
 8993TIP3    H148470   2.632   3.753   1.863  0.3534 -0.2222  1.0471
 8993TIP3    H248471   2.638   3.646   1.756 -1.0067 -1.1005  1.8281
 8994TIP3   OH248472   4.356   4.455   5.742  0.3927 -0.2848  0.1584
 8994TIP3    H148473   4.324   4.411   5.821  0.7784 -0.5041  0.1946
 8994TIP3    H248474   4.449   4.469   5.759  0.4909 -0.3997 -0.2910
 8995TIP3   OH248475   6.262   1.379  11.882 -0.1285  0.1313 -0.6782
 8995TIP3    H148476   6.329   1.371  11.950 -2.0847  0.6830  1.4316
 8995TIP3    H248477   6.269   1.469  11.851 -1.4164  0.9775  1.3165
 8996TIP3   OH248478   4.852   3.972   2.741 -0.3675 -0.0587 -0.2819
 8996TIP3    H148479   4.849   4.063   2.768 -0.3535 -0.2723  0.4576
 8996TIP3    H248480   4.789   3.928   2.799  0.3479 -0.6837  0.0364
 8997TIP3   OH248481   3.820   4.476   4.409 -0.2295  0.2728 -0.5958
 8997TIP3    H148482   3.873   4.430   4.474 -1.8061  2.7300  2.7183
 8997TIP3    H248483   3.730   4.449   4.428 -0.6598  0.0303 -2.7481
 8998TIP3   OH248484   5.882   5.262  16.078  0.2500  0.7765  0.9756
 8998TIP3    H148485   5.864   5.168  16.068  1.8859  0.4891  0.4581
 8998TIP3    H248486   5.849   5.283  16.165  0.5529 -0.4675  1.4117
 8999TIP3   OH248487   5.916   1.433   0.166 -0.5289 -0.1799 -0.0096
 8999TIP3    H148488   5.912   1.338   0.155 -0.3511 -0.0943 -0.9415
 8999TIP3    H248489   5.994   1.448   0.220  0.0783 -0.5101 -0.7666
 9000TIP3   OH248490   1.421   5.876  14.901 -0.6297  0.3580 -0.3410
 9000TIP3    H148491   1.512   5.906  14.896 -0.5048  0.2339  0.9070
 9000TIP3    H248492   1.383   5.901  14.817  0.1871  1.6392 -0.3494
 9001TIP3   OH248493   4.492   3.975  14.174  0.1135 -0.3166  0.4225
 9001TIP3    H148494   4.566   4.035  14.162 -1.4446  1.4075 -1.3638
 9001TIP3    H248495   4.487   3.962  14.269  1.6790  0.8631  0.7077
 9002TIP3   OH248496   6.691   6.793  12.902  0.5364 -0.2353  0.2816
 9002TIP3    H148497   6.652   6.844  12.831  1.9288  1.0337  0.3629
 9002TIP3    H248498   6.744   6.727  12.857 -1.7381 -2.0964  0.1708
 9003TIP3   OH248499   5.195   2.249  16.945 -0.2873  0.2942 -0.1460
 9003TIP3    H148500   5.101   2.266  16.951 -0.4045 -0.3071 -0.2437
 9003TIP3    H248501   5.210   2.225  16.854 -0.2632 -0.8744  0.1457
 9004TIP3   OH248502   5.037   4.461   0.120 -0.2078 -0.3578  0.1188
 9004TIP3    H148503   5.118   4.471   0.070  0.1036 -1.9455  0.2397
 9004TIP3    H248504   5.006   4.551   0.135  1.3237  0.2634 -0.2520
 9005TIP3   OH248505   6.612   4.255   4.157  0.2466  0.5741 -0.3261
 9005TIP3    H148506   6.578   4.325   4.101  1.5699  1.4294 -0.0881
 9005TIP3    H248507   6.542   4.241   4.222 -0.1691  1.4496 -0.5657
 9006TIP3   OH248508   5.775   3.520  11.892  0.0066  0.6666  0.1681
 9006TIP3    H148509   5.848   3.503  11.831  0.7374  0.4204  1.0986
 9006TIP3    H248510   5.697   3.522  11.835  0.5170 -0.7009 -0.6356
 9007TIP3   OH248511   6.626   2.027   1.672 -0.0462  0.7133 -0.6089
 9007TIP3    H148512   6.613   1.989   1.585  2.0137 -1.5934 -0.0293
 9007TIP3    H248513   6.611   2.121   1.660 -0.1248  0.4216 -3.3577
 9008TIP3   OH248514   4.005   5.390  16.316 -0.4774 -0.0811  0.0249
 9008TIP3    H148515   3.922   5.386  16.364 -1.1742 -2.9117 -1.2015
 9008TIP3    H248516   4.071   5.365  16.381 -1.0848 -1.3538  0.1854
 9009TIP3   OH248517   5.271   1.061   0.744  0.1906 -0.1754  0.0589
 9009TIP3    H148518   5.265   1.014   0.827 -0.1088 -0.1135  0.0752
 9009TIP3    H248519   5.225   1.005   0.681 -1.8739  0.9458  0.4633
 9010TIP3   OH248520   4.424   0.644   4.931 -0.4131 -0.0279 -0.5962
 9010TIP3    H148521   4.489   0.678   4.871  0.8712 -0.3343  0.5709
 9010TIP3    H248522   4.467   0.571   4.975 -1.4569 -0.0876  0.3886
 9011TIP3   OH248523   2.504   4.340   0.020  0.0177 -0.0379 -0.0314
 9011TIP3    H148524   2.554   4.280  -0.036  0.1287 -2.1786  2.1841
 9011TIP3    H248525   2.418   4.345  -0.023 -0.2202 -2.4042 -0.0093
 9012TIP3   OH248526   3.591   1.389   4.633  0.1525  0.3735 -0.1562
 9012TIP3    H148527   3.543   1.467   4.663 -0.1918  0.1433 -0.1028
 9012TIP3    H248528   3.585   1.393   4.538  0.8109  0.8309 -0.1905
 9013TIP3   OH248529   0.693   0.794  12.328  0.8681 -0.2143  0.0943
 9013TIP3    H148530   0.711   0.864  12.265 -0.9035  1.2286  1.1148
 9013TIP3    H248531   0.730   0.825  12.410 -0.4957 -0.1138  0.7066
 9014TIP3   OH248532   1.793   0.718  13.993  0.0775  0.0177 -0.1807
 9014TIP3    H148533   1.864   0.674  14.040 -1.1579 -1.5847  0.2912
 9014TIP3    H248534   1.809   0.697  13.901 -0.0390 -0.7706 -0.0315
 9015TIP3   OH248535   2.886   3.562   3.935  0.0957  0.4511 -0.0493
 9015TIP3    H148536   2.929   3.543   3.852  0.6209  2.5930 -0.3133
 9015TIP3    H248537   2.891   3.479   3.984  0.4060 -0.6403 -1.8443
 9016TIP3   OH248538   3.870   4.324   4.803 -0.0344  0.0672  0.2681
 9016TIP3    H148539   3.799   4.370   4.757 -0.0780  1.4814  1.6555
 9016TIP3    H248540   3.918   4.280   4.734 -0.9051  0.9784 -0.9810
 9017TIP3   OH248541   1.307   6.667   1.604 -0.4155  0.2149 -0.2416
 9017TIP3    H148542   1.330   6.719   1.528 -0.9452  1.5668  0.4981
 9017TIP3    H248543   1.214   6.685   1.619 -0.1095  0.7080  1.2515
 9018TIP3   OH248544   2.854   2.223  12.160 -0.3241  0.6834 -0.0044
 9018TIP3    H148545   2.887   2.290  12.101 -0.3900 -0.7238 -1.7361
 9018TIP3    H248546   2.860   2.141  12.110 -0.6314 -0.5554  1.8554
 9019TIP3   OH248547   4.817   4.565   4.610 -0.2800  0.0831  0.3313
 9019TIP3    H148548   4.841   4.619   4.535 -0.9685  0.4129  0.3453
 9019TIP3    H248549   4.723   4.577   4.620 -0.2510 -0.2192  1.0414
 9020TIP3   OH248550   2.677   3.024   1.022  0.2872  0.0606  0.2531
 9020TIP3    H148551   2.655   2.935   1.051 -0.1779  0.1654  0.2277
 9020TIP3    H248552   2.596   3.058   0.985  1.1395 -0.5113 -2.3645
 9021TIP3   OH248553   3.814   6.601  12.475 -0.2170 -0.4833  0.0557
 9021TIP3    H148554   3.789   6.516  12.511 -1.2205 -1.4195 -2.6064
 9021TIP3    H248555   3.745   6.661  12.505 -2.1493 -1.6567 -1.8209
 9022TIP3   OH248556   6.007   1.284   4.382  0.3899 -0.0228  0.3828
 9022TIP3    H148557   6.046   1.227   4.449  0.4763  0.9866  1.2050
 9022TIP3    H248558   5.922   1.309   4.418  0.6799  0.9959  0.3892
 9023TIP3   OH248559   1.141   6.308   4.977  0.1836  0.0181  0.2092
 9023TIP3    H148560   1.070   6.371   4.962  0.6367  0.8905  1.5575
 9023TIP3    H248561   1.220   6.362   4.983  1.1414 -1.0059 -2.1094
 9024TIP3   OH248562   4.205   6.040   6.602 -0.0643 -0.0820 -0.2862
 9024TIP3    H148563   4.293   6.017   6.571  0.7716  2.9313 -0.4496
 9024TIP3    H248564   4.149   6.023   6.526  1.0121  1.4299 -1.4937
 9025TIP3   OH248565   4.085   5.032   5.489  0.7713  0.2349  0.2884
 9025TIP3    H148566   4.052   5.009   5.576 -0.7000 -2.2243 -0.8116
 9025TIP3    H248567   4.124   4.951   5.456  2.1970  1.3830 -1.0075
 9026TIP3   OH248568   2.307   5.504  10.558  0.4295 -0.7384  0.0803
 9026TIP3    H148569   2.379   5.456  10.599  0.5998 -0.5729 -0.0215
 9026TIP3    H248570   2.258   5.437  10.511  1.1899 -0.6882 -0.8200
 9027TIP3   OH248571   6.826   4.336   2.843 -0.1446 -0.2305 -0.5734
 9027TIP3    H148572   6.869   4.308   2.762  1.0087  0.8696 -0.3852
 9027TIP3    H248573   6.855   4.427   2.854 -0.3590 -0.3396  1.0193
 9028TIP3   OH248574   3.468   4.714   4.840  0.6488  0.3771 -0.2471
 9028TIP3    H148575   3.435   4.803   4.844  1.4570  0.6808 -0.1670
 9028TIP3    H248576   3.500   4.704   4.750  1.2436  0.4175 -0.0410
 9029TIP3   OH248577   4.776   1.234  10.223  0.3458 -0.1583 -0.0788
 9029TIP3    H148578   4.847   1.262  10.165  0.4415 -2.2340 -1.0641
 9029TIP3    H248579   4.811   1.156  10.267 -0.2067  0.6285  1.8424
 9030TIP3   OH248580   3.939   1.475   5.888 -0.4902  0.7435 -0.4094
 9030TIP3    H148581   3.846   1.497   5.892 -0.4317  0.8756  0.6538
 9030TIP3    H248582   3.978   1.528   5.957  0.3022  0.3257 -0.5304
 9031TIP3   OH248583   6.309   3.802  12.419  0.0016 -0.1408  0.0478
 9031TIP3    H148584   6.363   3.764  12.349  1.6905 -0.1097  1.2851
 9031TIP3    H248585   6.246   3.734  12.440 -0.9890  0.0847 -1.9207
 9032TIP3   OH248586   5.200   5.177  13.436  0.7952  0.1405 -0.8687
 9032TIP3    H148587   5.258   5.117  13.389  0.7577 -0.8255  0.2608
 9032TIP3    H248588   5.121   5.126  13.453  1.2844 -0.0082  1.3057
 9033TIP3   OH248589   3.761   5.925  13.958  0.7175  0.1752  0.4741
 9033TIP3    H148590   3.838   5.871  13.977 -0.1686 -1.3537 -0.1381
 9033TIP3    H248591   3.686   5.867  13.971 -0.3912  1.7180  1.4005
 9034TIP3   OH248592   1.621   0.965   2.593  0.0559  0.2097  0.0703
 9034TIP3    H148593   1.700   0.929   2.552 -1.2100 -1.5293 -0.9482
 9034TIP3    H248594   1.549   0.914   2.556 -1.4732  1.0080  1.7982
 9035TIP3   OH248595   1.383   4.868  12.661  0.0286 -0.0480  0.5646
 9035TIP3    H148596   1.311   4.916  12.621 -0.1201 -1.3793 -0.8485
 9035TIP3    H248597   1.462   4.911  12.628 -0.1003 -0.8791 -0.9138
 9036TIP3   OH248598   3.526   5.382  16.863 -0.2418 -0.7838  0.9460
 9036TIP3    H148599   3.593   5.314  16.876  1.5650  0.4623 -1.0985
 9036TIP3    H248600   3.517   5.388  16.768  0.9072  2.9175  0.9219
 9037TIP3   OH248601   6.662   3.734   2.803  0.1910 -0.0023 -0.3582
 9037TIP3    H148602   6.573   3.737   2.767  0.2324 -1.9308 -0.7553
 9037TIP3    H248603   6.687   3.642   2.795  1.5238  0.1528  1.4651
 9038TIP3   OH248604   2.434   1.148  10.550  0.4455 -0.6645 -0.1744
 9038TIP3    H148605   2.340   1.165  10.555  0.6561  0.1224  1.9779
 9038TIP3    H248606   2.442   1.053  10.562 -0.0899 -0.7986 -0.8542
 9039TIP3   OH248607   3.333   4.824   1.393  0.4188 -0.4133 -0.3058
 9039TIP3    H148608   3.412   4.852   1.440  2.4071 -1.1039 -3.0109
 9039TIP3    H248609   3.332   4.729   1.403  0.3512 -0.4750 -0.8909
 9040TIP3   OH248610   5.702   5.061   2.751 -0.5789  0.8145  0.6704
 9040TIP3    H148611   5.625   5.093   2.798 -0.2588  1.2775  0.8884
 9040TIP3    H248612   5.756   5.021   2.819 -1.2158 -0.7019  0.3250
 9041TIP3   OH248613   4.952   6.324  16.383  0.1003 -0.0057 -0.6126
 9041TIP3    H148614   4.898   6.300  16.307  0.5969 -1.4667 -0.5420
 9041TIP3    H248615   4.905   6.285  16.457  0.5933 -0.1918 -0.3992
 9042TIP3   OH248616   5.506   6.121   2.465  0.1830 -0.0067 -0.4196
 9042TIP3    H148617   5.518   6.028   2.449  0.8511  0.0562 -0.2827
 9042TIP3    H248618   5.416   6.127   2.499 -0.1797 -0.4876 -1.2649
 9043TIP3   OH248619   2.480   4.094  14.153  0.0891 -0.6309 -0.4443
 9043TIP3    H148620   2.521   4.039  14.085 -0.1233 -1.4421  0.0697
 9043TIP3    H248621   2.431   4.032  14.207 -1.6868  0.2752 -0.9299
 9044TIP3   OH248622   2.054   0.284  12.751  0.7113 -0.5744 -0.4499
 9044TIP3    H148623   2.141   0.246  12.758  0.8845 -0.3093 -1.1519
 9044TIP3    H248624   2.053   0.328  12.666  0.8406  1.8351  0.7410
 9045TIP3   OH248625   2.755   4.594   2.401 -0.0649 -0.0159 -0.1483
 9045TIP3    H148626   2.845   4.571   2.378 -0.4739 -1.6685 -0.2199
 9045TIP3    H248627   2.759   4.688   2.422  1.3012  0.3878 -1.9224
 9046TIP3   OH248628   4.117   5.041   6.171 -0.2699  0.1955  0.1980
 9046TIP3    H148629   4.115   4.989   6.251 -1.0769 -0.2064 -0.0761
 9046TIP3    H248630   4.126   5.131   6.201  1.2632 -0.0788  0.6761
 9047TIP3   OH248631   0.360   4.072  14.807 -0.2168  0.0727 -0.0161
 9047TIP3    H148632   0.325   4.070  14.896  0.1365 -0.5693  0.1149
 9047TIP3    H248633   0.284   4.092  14.751 -0.6627 -0.6734  0.3187
 9048TIP3   OH248634   1.578   0.198  12.624 -0.3171 -0.3991  0.4382
 9048TIP3    H148635   1.648   0.242  12.576 -1.0277 -0.6090 -0.8429
 9048TIP3    H248636   1.618   0.118  12.658  0.2807 -0.0939  0.4638
 9049TIP3   OH248637   4.945   3.061   1.204  0.4901  0.8796 -0.3407
 9049TIP3    H148638   4.974   3.132   1.262  1.0865  1.4584 -1.3086
 9049TIP3    H248639   4.994   2.985   1.233 -1.4671  0.3732  1.8736
 9050TIP3   OH248640   5.844   1.641   2.783  0.4887 -0.1518  1.2720
 9050TIP3    H148641   5.920   1.620   2.838  0.4967  0.3593  1.4599
 9050TIP3    H248642   5.871   1.618   2.694  0.7693 -0.2201  1.3758
 9051TIP3   OH248643   4.373   0.353   4.742  0.2335 -0.6909 -0.2575
 9051TIP3    H148644   4.302   0.417   4.745  1.0491  0.2077  0.9546
 9051TIP3    H248645   4.416   0.368   4.657 -1.2317 -1.5283 -1.1907
 9052TIP3   OH248646   6.480   6.404   0.207  0.4192 -0.4705 -0.2759
 9052TIP3    H148647   6.420   6.332   0.230  0.7461 -0.8278 -0.5379
 9052TIP3    H248648   6.423   6.473   0.173  0.1855 -0.9426 -0.8481
 9053TIP3   OH248649   3.477   4.751  15.890  0.1883 -0.0906  0.3481
 9053TIP3    H148650   3.392   4.792  15.904  0.1238  0.3242 -1.1423
 9053TIP3    H248651   3.540   4.822  15.900  0.4908 -0.5840  2.4512
 9054TIP3   OH248652   4.400   2.256  14.591 -0.3434 -0.0501  0.2828
 9054TIP3    H148653   4.479   2.221  14.551  0.7955 -0.7673  2.9243
 9054TIP3    H248654   4.423   2.346  14.615 -1.3994  0.7645 -1.5653
 9055TIP3   OH248655   3.807   4.249  12.894 -0.3158 -0.3348 -0.1242
 9055TIP3    H148656   3.867   4.197  12.841 -1.0466  0.5018 -1.8788
 9055TIP3    H248657   3.827   4.340  12.869 -1.6121 -0.0016  0.0002
 9056TIP3   OH248658   3.628   5.164   5.592  0.1164  0.2530  0.3528
 9056TIP3    H148659   3.708   5.113   5.584 -0.6274 -0.7916 -0.6766
 9056TIP3    H248660   3.609   5.165   5.686 -0.1517 -1.8714  0.3619
 9057TIP3   OH248661   1.385   1.539  15.203 -0.4147  0.0802  0.6158
 9057TIP3    H148662   1.377   1.451  15.239 -0.9856  0.0338  0.3951
 9057TIP3    H248663   1.341   1.534  15.117  0.5516  0.2907  0.1009
 9058TIP3   OH248664   0.191   0.505   3.280  0.1581 -0.5602 -0.0650
 9058TIP3    H148665   0.260   0.545   3.333  0.4837 -1.6292  0.3502
 9058TIP3    H248666   0.158   0.433   3.333 -0.4187 -0.8364 -0.7752
 9059TIP3   OH248667   0.145   5.958   1.639 -0.1060 -0.1796 -0.1064
 9059TIP3    H148668   0.206   5.986   1.708  0.1790 -2.2095  0.5600
 9059TIP3    H248669   0.061   5.997   1.663 -0.0762 -1.0601  1.5990
 9060TIP3   OH248670   0.137   4.892  13.821 -0.2910  0.4146  0.0807
 9060TIP3    H148671   0.058   4.924  13.776 -0.4469 -0.2318 -0.1175
 9060TIP3    H248672   0.188   4.849  13.753 -0.2177 -0.0016  0.3942
 9061TIP3   OH248673   0.515   4.781  16.864  0.0937  0.2351  0.3008
 9061TIP3    H148674   0.560   4.708  16.821  2.0735  1.5909 -0.0512
 9061TIP3    H248675   0.469   4.741  16.937 -2.1024 -1.9305 -2.0686
 9062TIP3   OH248676   6.405   6.014  13.533  0.1438  0.8573 -0.5309
 9062TIP3    H148677   6.342   6.081  13.559 -1.1526  0.1641 -1.7396
 9062TIP3    H248678   6.427   6.036  13.442 -0.4066 -0.4030 -0.9908
 9063TIP3   OH248679   1.966   2.361  10.920  0.2692  0.1876 -0.5945
 9063TIP3    H148680   1.920   2.364  11.004 -0.1157  1.2826 -0.8300
 9063TIP3    H248681   1.949   2.273  10.886 -0.6269  0.1625 -0.1083
 9064TIP3   OH248682   4.418   5.804   5.468 -0.8453 -0.0902 -0.0497
 9064TIP3    H148683   4.402   5.838   5.556 -0.7704 -1.2195  0.4094
 9064TIP3    H248684   4.419   5.709   5.478  0.2619 -0.2157 -1.0814
 9065TIP3   OH248685   1.639   3.606  10.991  0.2396 -0.1790  0.4938
 9065TIP3    H148686   1.721   3.638  11.028  0.3950 -0.2886  0.2451
 9065TIP3    H248687   1.662   3.526  10.945  0.2167  0.4064 -0.5816
 9066TIP3   OH248688   4.461   5.442  14.304  0.1144  0.5922 -0.6196
 9066TIP3    H148689   4.377   5.468  14.266 -0.2276 -1.9699 -1.8417
 9066TIP3    H248690   4.437   5.401  14.387  0.3043  1.0486 -0.3370
 9067TIP3   OH248691   0.679   4.411  15.795  0.9340  0.1710 -0.1826
 9067TIP3    H148692   0.728   4.433  15.874  0.1354 -0.4741  0.5095
 9067TIP3    H248693   0.662   4.495  15.753 -0.3197  0.7220  1.3432
 9068TIP3   OH248694   2.315   1.839  12.508  0.5079  0.1328 -0.0402
 9068TIP3    H148695   2.337   1.932  12.517  0.8438  0.2564 -1.8271
 9068TIP3    H248696   2.361   1.811  12.429 -0.7586 -1.1994 -0.3489
 9069TIP3   OH248697   1.795   2.676  17.087  0.3933 -0.0259  0.5576
 9069TIP3    H148698   1.867   2.669  17.149  0.8017 -0.9804 -0.0061
 9069TIP3    H248699   1.829   2.636  17.007 -0.8203 -0.6531  0.3380
 9070TIP3   OH248700   1.047   1.667  16.546 -0.1913 -0.0807 -0.4813
 9070TIP3    H148701   1.058   1.595  16.483 -1.0285 -3.3673  2.8281
 9070TIP3    H248702   0.953   1.674  16.558 -0.0386 -1.2147  2.0052
 9071TIP3   OH248703   3.428   4.518   0.988 -0.3933 -0.5121 -0.3078
 9071TIP3    H148704   3.513   4.516   1.032 -0.1508  0.3842 -0.7149
 9071TIP3    H248705   3.440   4.464   0.910  0.9043  2.3376 -2.2300
 9072TIP3   OH248706   0.048   4.842   2.542 -0.2852  0.5011 -0.6533
 9072TIP3    H148707   0.104   4.768   2.520  1.2342  1.6385 -0.7718
 9072TIP3    H248708   0.050   4.847   2.638 -0.3875  0.3930 -0.6454
 9073TIP3   OH248709   5.911   6.657   1.493  0.0946  0.5792  0.4783
 9073TIP3    H148710   6.003   6.678   1.509  0.3650 -0.7134  0.7116
 9073TIP3    H248711   5.913   6.574   1.445 -0.9313  0.9535 -0.2623
 9074TIP3   OH248712   2.286   6.457  14.246 -0.0447 -0.2767 -0.0866
 9074TIP3    H148713   2.259   6.377  14.290 -0.6745  0.4025  0.7895
 9074TIP3    H248714   2.223   6.523  14.274  1.4128  0.9246  0.5285
 9075TIP3   OH248715   4.698   6.760  16.263 -0.2912  0.1484 -0.2741
 9075TIP3    H148716   4.789   6.740  16.285  0.4220  1.1364 -2.1048
 9075TIP3    H248717   4.660   6.675  16.241  0.6950 -0.0942 -1.1501
 9076TIP3   OH248718   6.314   0.511  11.899  0.4700  0.5258  0.2628
 9076TIP3    H148719   6.230   0.489  11.860  1.8719  0.8059 -3.3815
 9076TIP3    H248720   6.324   0.605  11.883  1.8668  0.3008 -0.4319
 9077TIP3   OH248721   5.832   5.078   3.142 -0.4691 -0.2677  0.3345
 9077TIP3    H148722   5.916   5.049   3.175 -0.6601  0.0255  1.1054
 9077TIP3    H248723   5.834   5.057   3.048  0.1948 -0.8556  0.4725
 9078TIP3   OH248724   5.166   0.660  15.069  0.3486 -0.4641  0.4798
 9078TIP3    H148725   5.133   0.576  15.036 -1.2111  0.2119  0.2472
 9078TIP3    H248726   5.254   0.666  15.033  0.3074 -1.7724  0.0821
 9079TIP3   OH248727   4.499   2.558   1.159  0.4188  0.3339 -0.2271
 9079TIP3    H148728   4.518   2.565   1.066 -3.0830  1.3357 -0.9870
 9079TIP3    H248729   4.425   2.498   1.165 -1.3239  2.4963  1.5613
 9080TIP3   OH248730   4.452   6.393  11.188  0.6830  0.2558  0.3346
 9080TIP3    H148731   4.377   6.439  11.227 -0.1231  0.7144 -1.6431
 9080TIP3    H248732   4.429   6.301  11.195 -0.5647  0.4197 -1.0879
 9081TIP3   OH248733   4.677   4.832   1.759  0.6101 -0.7355  0.0459
 9081TIP3    H148734   4.728   4.913   1.760  1.6094 -1.3551  0.5457
 9081TIP3    H248735   4.592   4.858   1.724  1.6269  0.1030 -1.9726
 9082TIP3   OH248736   3.504   2.771  14.960 -0.9102 -0.1130 -0.5851
 9082TIP3    H148737   3.535   2.773  14.869 -3.2444 -0.9549 -1.4890
 9082TIP3    H248738   3.549   2.697  15.000  0.7546  0.7613 -0.7816
 9083TIP3   OH248739   5.876   1.575   5.887  0.0942  0.4891 -0.5947
 9083TIP3    H148740   5.873   1.535   5.800 -0.0074 -0.2892 -0.2458
 9083TIP3    H248741   5.803   1.534   5.935 -0.5912  1.7775 -0.5021
 9084TIP3   OH248742   2.945   5.057  13.501 -0.1046 -0.4170  0.5551
 9084TIP3    H148743   2.899   5.102  13.572 -1.2808 -0.5479 -0.1104
 9084TIP3    H248744   2.876   5.028  13.441  0.7534 -1.5984  0.0910
 9085TIP3   OH248745   1.917   0.094   2.546 -0.4178  0.0273  0.1012
 9085TIP3    H148746   1.964   0.017   2.515  0.4389  1.2422 -1.8504
 9085TIP3    H248747   1.938   0.100   2.639  0.1168 -1.6207  0.1232
 9086TIP3   OH248748   2.625   5.998   1.297  0.0895 -0.2460  0.2973
 9086TIP3    H148749   2.558   5.939   1.262  0.0288  0.2771 -0.4839
 9086TIP3    H248750   2.694   5.939   1.328 -0.5535 -0.7763  0.7537
 9087TIP3   OH248751   1.545   3.292   6.460 -0.2826 -0.8104 -0.1992
 9087TIP3    H148752   1.583   3.373   6.493 -2.7541 -0.4304  2.1252
 9087TIP3    H248753   1.499   3.318   6.380  2.3128 -0.8593 -1.8035
 9088TIP3   OH248754   0.723   2.749  12.776  0.2761  0.3032 -0.4351
 9088TIP3    H148755   0.767   2.800  12.709  0.0560  0.3397 -0.5544
 9088TIP3    H248756   0.787   2.740  12.846  0.9300 -0.7570 -1.1531
 9089TIP3   OH248757   4.979   1.405   4.703 -0.0753  0.5891  0.4892
 9089TIP3    H148758   5.046   1.364   4.758  2.0270  0.1253 -2.1852
 9089TIP3    H248759   5.028   1.449   4.633 -2.4315 -2.4027 -3.5173
 9090TIP3   OH248760   4.611   5.013   4.932  0.7479  0.7340 -0.1077
 9090TIP3    H148761   4.652   5.098   4.949 -0.7724  1.5014 -0.1440
 9090TIP3    H248762   4.525   5.018   4.975 -0.1958 -0.0304 -1.8034
 9091TIP3   OH248763   4.387   6.719   5.320  0.2342  0.6876  0.1522
 9091TIP3    H148764   4.306   6.771   5.317 -0.7982 -0.8654 -1.8301
 9091TIP3    H248765   4.365   6.644   5.375 -0.3707 -0.6448 -1.7805
 9092TIP3   OH248766   4.144   5.423  13.254  0.4346 -0.3395  0.0455
 9092TIP3    H148767   4.118   5.438  13.345 -0.8876  0.3521 -0.4164
 9092TIP3    H248768   4.083   5.356  13.223 -1.3839  1.7935 -1.2647
 9093TIP3   OH248769   1.638   5.954  15.349 -0.2575  0.7690 -0.3992
 9093TIP3    H148770   1.597   5.871  15.375  0.1357  0.3121 -1.2312
 9093TIP3    H248771   1.568   6.019  15.359 -0.5299  0.3722  0.3857
 9094TIP3   OH248772   1.056   3.243   2.236  0.1155 -0.1555 -0.3871
 9094TIP3    H148773   1.004   3.170   2.204 -1.8083  1.5566 -1.4375
 9094TIP3    H248774   1.025   3.259   2.325  0.9021 -0.8906  0.0359
 9095TIP3   OH248775   2.370   2.836   0.834  0.0476 -0.4390  0.0003
 9095TIP3    H148776   2.343   2.904   0.772  0.6609 -1.0703 -0.9768
 9095TIP3    H248777   2.439   2.788   0.789  1.5280 -0.0245  1.7317
 9096TIP3   OH248778   4.692   4.725  12.939 -0.3772  0.3976  0.0030
 9096TIP3    H148779   4.659   4.721  12.849  0.1985 -1.4576 -0.1695
 9096TIP3    H248780   4.786   4.712  12.931 -0.3771 -0.2600  0.8875
 9097TIP3   OH248781   6.026   1.176  11.818  0.2406  0.0003 -0.6313
 9097TIP3    H148782   5.992   1.242  11.757  2.1413  1.6233 -0.0450
 9097TIP3    H248783   6.086   1.124  11.765 -0.1113 -0.3053 -0.7372
 9098TIP3   OH248784   2.823   3.734   4.523 -0.4985 -0.6772 -0.8818
 9098TIP3    H148785   2.758   3.762   4.587 -2.5384 -0.4478 -2.9044
 9098TIP3    H248786   2.818   3.638   4.523  0.8114 -0.7711  0.5158
 9099TIP3   OH248787   5.012   3.851  11.937  0.0503 -0.5840 -0.8931
 9099TIP3    H148788   5.056   3.936  11.941 -0.0618 -0.5616  0.7329
 9099TIP3    H248789   4.939   3.865  11.877 -1.1220  1.1012  0.7824
 9100TIP3   OH248790   6.819   2.679  11.287  0.2945 -0.3365 -0.2055
 9100TIP3    H148791   6.899   2.706  11.241  0.8025  1.6218  1.6584
 9100TIP3    H248792   6.779   2.761  11.317 -1.6977 -1.3549  0.0952
 9101TIP3   OH248793   6.403   1.203  15.984  0.1678  0.0308 -0.0667
 9101TIP3    H148794   6.358   1.220  15.901 -0.9152 -1.5124  0.1731
 9101TIP3    H248795   6.338   1.222  16.051  0.8043  0.5404  0.4200
 9102TIP3   OH248796   3.542   2.394   2.438 -0.4638  0.0217  0.0391
 9102TIP3    H148797   3.519   2.482   2.467 -1.4021 -0.4596  0.7781
 9102TIP3    H248798   3.472   2.369   2.378 -0.1464 -0.1889 -0.2501
 9103TIP3   OH248799   1.798   4.215  12.614  0.5198  0.5557 -0.0620
 9103TIP3    H148800   1.851   4.159  12.670  0.7535 -0.5059 -1.2808
 9103TIP3    H248801   1.714   4.169  12.607  1.0064 -0.1578 -1.7735
 9104TIP3   OH248802   3.354   2.335   5.412  0.6962  0.3819 -0.2271
 9104TIP3    H148803   3.268   2.318   5.374 -0.5153  0.9428  2.0955
 9104TIP3    H248804   3.394   2.249   5.421  0.0940  0.0465 -0.6888
 9105TIP3   OH248805   5.428   3.135  16.360  0.3843 -0.1988 -0.2686
 9105TIP3    H148806   5.370   3.208  16.381  1.0850 -0.0612  1.3135
 9105TIP3    H248807   5.369   3.062  16.344 -0.2599 -0.0274  1.1627
 9106TIP3   OH248808   5.422   2.841  10.711 -0.4224 -0.1458 -0.2386
 9106TIP3    H148809   5.494   2.780  10.696  0.3275  0.6785 -0.0577
 9106TIP3    H248810   5.345   2.797  10.674  0.5794 -0.0287 -2.6479
 9107TIP3   OH248811   3.159   5.011  12.497  0.5550  0.7078  0.1706
 9107TIP3    H148812   3.232   5.010  12.434  0.4544 -0.6486  0.0488
 9107TIP3    H248813   3.145   4.918  12.518 -0.7191  1.0094  0.6851
 9108TIP3   OH248814   5.726   4.672  12.088  0.3680 -1.1260 -0.1213
 9108TIP3    H148815   5.718   4.767  12.085  2.8307 -0.8643 -1.6088
 9108TIP3    H248816   5.789   4.656  12.159  1.8908 -1.3882 -1.4753
 9109TIP3   OH248817   1.866   0.301   4.787 -0.5706 -0.2442 -0.3493
 9109TIP3    H148818   1.810   0.361   4.836  1.0583  0.2517  0.9746
 9109TIP3    H248819   1.868   0.221   4.841  0.1771 -0.1668 -0.2520
 9110TIP3   OH248820   5.004   0.039  10.845 -0.2241 -0.1123  0.0031
 9110TIP3    H148821   5.013   0.100  10.918  1.7387  0.6298 -0.7857
 9110TIP3    H248822   4.996   0.095  10.768  1.6014 -0.7950 -0.7380
 9111TIP3   OH248823   6.432   2.688  14.206 -0.0335  0.6953 -0.3809
 9111TIP3    H148824   6.499   2.744  14.246 -1.8332  1.4566  1.7890
 9111TIP3    H248825   6.478   2.608  14.182  1.7801  1.4302  0.4797
 9112TIP3   OH248826   5.181   6.057  12.597  0.1219  0.1093  0.6185
 9112TIP3    H148827   5.218   5.969  12.586 -0.7698 -0.4016  1.5176
 9112TIP3    H248828   5.150   6.059  12.687 -0.9302  0.9315  0.2617
 9113TIP3   OH248829   1.854   5.865  16.157 -0.4952  0.0165  0.1221
 9113TIP3    H148830   1.921   5.910  16.104  1.1508 -0.9810  1.2600
 9113TIP3    H248831   1.829   5.929  16.223  0.2198  0.0068  0.4071
 9114TIP3   OH248832   3.267   0.437   5.365 -0.4861  0.5942 -0.1103
 9114TIP3    H148833   3.338   0.477   5.316 -0.8753 -0.0482 -1.2402
 9114TIP3    H248834   3.249   0.498   5.437  1.4342  0.5867  0.4145
 9115TIP3   OH248835   3.408   3.922   6.471 -0.5547  0.1132  0.3301
 9115TIP3    H148836   3.445   3.839   6.441  0.6672  1.1760 -1.2755
 9115TIP3    H248837   3.326   3.931   6.422 -0.8558 -0.2677  0.7502
 9116TIP3   OH248838   4.818   5.419   3.441 -0.0722 -0.0113 -0.1934
 9116TIP3    H148839   4.885   5.481   3.411  1.8702 -0.7907  2.1722
 9116TIP3    H248840   4.737   5.450   3.402  1.0775  3.1226 -0.3693
 9117TIP3   OH248841   6.558   1.550   5.210 -0.2105  0.4525  0.6240
 9117TIP3    H148842   6.603   1.499   5.143 -0.0202  0.2929  0.8735
 9117TIP3    H248843   6.622   1.616   5.237  0.7417 -1.1776  2.6178
 9118TIP3   OH248844   0.372   0.334  16.583  0.2212  0.0649 -0.1303
 9118TIP3    H148845   0.283   0.302  16.567  0.6141 -2.0218  1.4274
 9118TIP3    H248846   0.359   0.414  16.634 -0.7863 -0.6711  0.8159
 9119TIP3   OH248847   4.036   3.654  11.952 -0.6045 -0.0903  0.2999
 9119TIP3    H148848   4.115   3.701  11.980 -1.4336  1.8051 -0.3681
 9119TIP3    H248849   4.049   3.638  11.859 -0.6787 -0.4594  0.3523
 9120TIP3   OH248850   3.725   1.474   6.779 -0.6256  0.8691 -0.6680
 9120TIP3    H148851   3.663   1.404   6.801 -0.0595  0.6812  0.3950
 9120TIP3    H248852   3.798   1.429   6.736  0.8304  0.3769  2.0537
 9121TIP3   OH248853   6.085   6.135   1.822  0.0612 -0.0666 -0.5807
 9121TIP3    H148854   6.100   6.045   1.853  1.5869  0.1442 -0.6151
 9121TIP3    H248855   6.026   6.173   1.886 -3.5890 -2.1130 -2.3954
 9122TIP3   OH248856   4.048   0.998   4.800 -0.0665  0.8571  0.5438
 9122TIP3    H148857   3.993   0.947   4.740  0.2072  1.0474  0.1205
 9122TIP3    H248858   3.988   1.028   4.868 -0.3597  0.5285  0.4356
 9123TIP3   OH248859   3.773   5.359  13.374 -0.1113 -0.4311 -0.3176
 9123TIP3    H148860   3.683   5.367  13.405 -0.0889 -0.5393 -0.2246
 9123TIP3    H248861   3.826   5.372  13.453 -0.0715 -1.7042 -0.1117
 9124TIP3   OH248862   2.666   1.657   3.177  0.0685 -0.0591 -0.5933
 9124TIP3    H148863   2.583   1.691   3.211  0.5286 -0.0778  0.6058
 9124TIP3    H248864   2.641   1.598   3.107 -0.9829 -0.5727  0.1911
 9125TIP3   OH248865   2.682   5.991   2.530 -0.2710  0.1174 -0.3209
 9125TIP3    H148866   2.702   6.074   2.487  0.9788 -1.0297 -2.1171
 9125TIP3    H248867   2.600   6.006   2.577  0.2455  2.5117 -0.0879
 9126TIP3   OH248868   1.263   6.442  13.477 -0.4930  0.4433  0.4850
 9126TIP3    H148869   1.281   6.389  13.555  0.1961  0.3170  0.2453
 9126TIP3    H248870   1.168   6.436  13.465 -0.2745 -2.2562 -0.6219
 9127TIP3   OH248871   2.275   3.800   3.334  0.2454 -0.1639 -0.1758
 9127TIP3    H148872   2.315   3.855   3.401 -1.9728 -0.5153  1.5684
 9127TIP3    H248873   2.206   3.854   3.296  0.7554 -0.3563 -1.4059
 9128TIP3   OH248874   1.574   3.142   4.897  0.1008  0.6697  0.3246
 9128TIP3    H148875   1.557   3.063   4.948 -0.5534  0.9502  0.5557
 9128TIP3    H248876   1.496   3.150   4.841  0.1667  1.1486  0.3018
 9129TIP3   OH248877   0.932   0.267   2.884 -0.1540 -0.1342  0.2314
 9129TIP3    H148878   0.948   0.205   2.956  0.2994 -0.3503 -0.0494
 9129TIP3    H248879   0.837   0.264   2.871 -0.0536 -1.4239 -0.3387
 9130TIP3   OH248880   3.398   6.066   2.385 -0.2956  0.2986 -0.2629
 9130TIP3    H148881   3.446   6.054   2.302 -1.3544 -1.2957 -0.6929
 9130TIP3    H248882   3.426   5.993   2.440  0.0082  1.0582  0.6202
 9131TIP3   OH248883   3.579   6.429  12.715 -0.2540  0.2564  0.4068
 9131TIP3    H148884   3.577   6.511  12.765 -0.5514  0.5553 -0.0879
 9131TIP3    H248885   3.661   6.434  12.666 -0.3618  0.3406  0.2365
 9132TIP3   OH248886   0.609   4.156  12.212  0.1406  0.2302 -0.1248
 9132TIP3    H148887   0.655   4.202  12.282 -1.3860 -0.0193  1.0857
 9132TIP3    H248888   0.523   4.135  12.249  0.8010 -3.8533 -0.4477
 9133TIP3   OH248889   0.201   2.505  14.911 -0.1617  0.3348 -0.2307
 9133TIP3    H148890   0.278   2.489  14.856 -1.2552 -0.8222 -1.4839
 9133TIP3    H248891   0.133   2.535  14.850 -0.6286  1.7483  0.9152
 9134TIP3   OH248892   3.126   0.277   4.459  0.2128 -0.2663 -0.8103
 9134TIP3    H148893   3.079   0.213   4.406  0.1552 -0.4831 -0.5020
 9134TIP3    H248894   3.077   0.358   4.449 -0.8508 -0.7384  0.3517
 9135TIP3   OH248895   0.919   3.232  16.507 -0.0118  0.2595 -0.6662
 9135TIP3    H148896   0.865   3.233  16.585 -0.8794 -0.0702 -1.2430
 9135TIP3    H248897   0.998   3.184  16.533 -0.7278 -0.7282 -0.2615
 9136TIP3   OH248898   0.056   3.165   3.615  0.1104  0.0526 -0.2386
 9136TIP3    H148899   0.118   3.232   3.644 -0.8148  1.2092 -0.8312
 9136TIP3    H248900   0.102   3.117   3.546  0.9181 -0.1797  0.4431
 9137TIP3   OH248901   5.843   1.303  16.760 -0.1384  0.2533 -0.2105
 9137TIP3    H148902   5.918   1.255  16.726 -0.7106 -0.4270 -0.5509
 9137TIP3    H248903   5.767   1.264  16.716 -0.7434  0.5369  0.5403
 9138TIP3   OH248904   1.532   1.678  13.715 -0.0298 -0.1492  0.2536
 9138TIP3    H148905   1.445   1.717  13.704 -0.1536 -0.1013  1.3559
 9138TIP3    H248906   1.515   1.586  13.734  0.2641 -0.8650 -2.4735
 9139TIP3   OH248907   3.060   0.636  16.873  0.0717 -0.3888 -0.0239
 9139TIP3    H148908   3.037   0.561  16.818  0.2643 -2.6155  2.7340
 9139TIP3    H248909   3.012   0.709  16.835 -1.0562 -2.1328 -2.1575
 9140TIP3   OH248910   2.164   1.057   4.905  0.2622  0.4131 -0.2540
 9140TIP3    H148911   2.112   1.118   4.853 -1.6035 -0.0865  0.9218
 9140TIP3    H248912   2.103   1.022   4.969  1.4026 -2.2196 -0.4624
 9141TIP3   OH248913   3.674   3.875   3.317 -0.2253 -0.1155 -0.2406
 9141TIP3    H148914   3.669   3.876   3.221  2.6407  0.3638 -0.4763
 9141TIP3    H248915   3.632   3.793   3.342 -1.4651 -0.0193 -1.8502
 9142TIP3   OH248916   4.051   0.534   1.834 -0.2635 -0.8118  0.2495
 9142TIP3    H148917   4.061   0.506   1.925 -0.6323 -0.1187  0.5125
 9142TIP3    H248918   4.088   0.622   1.832 -0.7413 -0.6143 -0.1424
 9143TIP3   OH248919   5.900   6.667   3.069  1.2053 -0.2846 -0.6015
 9143TIP3    H148920   5.972   6.615   3.033 -0.5629 -2.1640 -1.6664
 9143TIP3    H248921   5.821   6.622   3.039 -0.4323  1.4012  0.9186
 9144TIP3   OH248922   2.046   0.992  11.905 -0.0918  0.0271 -0.5853
 9144TIP3    H148923   2.005   1.067  11.948  1.4605  1.0386 -0.7714
 9144TIP3    H248924   2.084   0.941  11.977  0.4282  0.4174 -0.5795
 9145TIP3   OH248925   6.382   6.629   5.453  0.2173 -0.3926 -0.2804
 9145TIP3    H148926   6.388   6.649   5.547  0.0654  0.4219 -0.4360
 9145TIP3    H248927   6.399   6.535   5.447 -1.9851 -0.9145  0.8089
 9146TIP3   OH248928   0.997   6.354   3.543 -0.2271  0.2166 -0.2092
 9146TIP3    H148929   0.913   6.318   3.515  1.1079 -1.8173 -1.9033
 9146TIP3    H248930   1.030   6.402   3.467 -0.1017  1.5406  0.6479
 9147TIP3   OH248931   0.631   2.343   1.507 -0.4357 -0.3634 -0.7660
 9147TIP3    H148932   0.560   2.311   1.562  0.3068  0.0581  0.4757
 9147TIP3    H248933   0.706   2.349   1.566  0.0276  1.4716 -1.4746
 9148TIP3   OH248934   2.674   2.936  12.557  0.1951  0.0326  0.0674
 9148TIP3    H148935   2.729   2.883  12.615 -0.0237 -0.0949  0.1554
 9148TIP3    H248936   2.594   2.951  12.607  0.3055  0.5606  0.0995
 9149TIP3   OH248937   3.549   0.478  11.416 -0.2087 -0.0653 -0.1617
 9149TIP3    H148938   3.463   0.491  11.456  0.8688  0.3782  2.1548
 9149TIP3    H248939   3.582   0.566  11.400  0.2463 -0.2255 -0.1080
 9150TIP3   OH248940   5.758   2.102  13.641  0.4860 -0.3854 -0.1893
 9150TIP3    H148941   5.718   2.038  13.583  1.8814  0.3000 -2.0352
 9150TIP3    H248942   5.685   2.153  13.676 -0.6122 -2.6384  0.9852
 9151TIP3   OH248943   0.700   6.660   1.035 -0.3821 -0.3735 -0.4355
 9151TIP3    H148944   0.645   6.737   1.027  0.3281  0.0176 -2.1061
 9151TIP3    H248945   0.787   6.695   1.057 -0.3520 -0.8076  0.1461
 9152TIP3   OH248946   2.826   2.796  14.435  0.2625  0.4550 -0.5419
 9152TIP3    H148947   2.833   2.840  14.520  0.0197 -1.2167  0.3767
 9152TIP3    H248948   2.732   2.783  14.423  0.3905 -1.7746  0.3093
 9153TIP3   OH248949   1.077   3.162   2.811 -0.0316  0.3366  0.0878
 9153TIP3    H148950   1.002   3.205   2.852  0.0278 -1.4356  2.2442
 9153TIP3    H248951   1.151   3.220   2.829 -0.1349 -0.0531  2.0104
 9154TIP3   OH248952   5.714   2.979   4.747 -0.0317  0.2003 -0.1570
 9154TIP3    H148953   5.729   2.962   4.840 -1.1130  0.0630 -0.0004
 9154TIP3    H248954   5.692   2.893   4.710 -0.0732  0.3345 -0.4478
 9155TIP3   OH248955   1.335   4.649   4.551 -0.1033 -0.2139 -0.1225
 9155TIP3    H148956   1.267   4.709   4.520 -0.6211 -0.3813  0.6520
 9155TIP3    H248957   1.417   4.696   4.539 -0.5218  0.7256  0.6724
 9156TIP3   OH248958   3.975   4.965  13.246  0.0302  0.0207 -0.2778
 9156TIP3    H148959   3.948   4.964  13.338 -0.0248  0.1979 -0.2920
 9156TIP3    H248960   3.977   5.058  13.223  1.6595  0.0978  0.0284
 9157TIP3   OH248961   0.741   4.237  12.433 -0.2352  0.2235 -0.1373
 9157TIP3    H148962   0.774   4.306  12.490 -0.4026  0.3293 -0.1678
 9157TIP3    H248963   0.670   4.197  12.484 -0.9867  0.9102 -0.6392
 9158TIP3   OH248964   5.877   5.507  14.419 -0.3108  0.6847  0.0659
 9158TIP3    H148965   5.970   5.482  14.422 -0.4984 -0.6817 -2.4721
 9158TIP3    H248966   5.870   5.581  14.480  2.1673  0.0629  1.2464
 9159TIP3   OH248967   2.410   3.781  11.729 -0.3363  0.5818  0.5352
 9159TIP3    H148968   2.353   3.714  11.692 -0.0212  0.3365  0.4843
 9159TIP3    H248969   2.487   3.781  11.673  1.0348 -1.1959  2.2609
 9160TIP3   OH248970   4.039   0.850  12.708  0.3766 -0.6730  0.0205
 9160TIP3    H148971   4.070   0.929  12.664 -0.6666 -0.8698 -1.1403
 9160TIP3    H248972   4.116   0.793  12.712  0.7081 -0.2978 -0.7811
 9161TIP3   OH248973   2.427   4.987   2.696  0.0833 -0.0673 -0.0338
 9161TIP3    H148974   2.442   5.033   2.779  0.6255  0.5155 -0.4420
 9161TIP3    H248975   2.337   4.955   2.702  0.6068 -1.4128  1.4277
 9162TIP3   OH248976   6.055   5.126  11.887  0.4254 -0.2540  0.8925
 9162TIP3    H148977   6.078   5.046  11.934 -1.3021 -0.0395  2.2036
 9162TIP3    H248978   6.074   5.106  11.796 -0.6992 -2.4731  1.0715
 9163TIP3   OH248979   0.397   2.588   1.053  0.2044 -0.0371 -0.2203
 9163TIP3    H148980   0.340   2.626   1.119 -1.3023  0.1388 -1.5693
 9163TIP3    H248981   0.375   2.494   1.053  2.3495 -0.6297  1.5630
 9164TIP3   OH248982   3.481   6.461  15.332  0.2294 -0.9265 -0.1906
 9164TIP3    H148983   3.574   6.447  15.349  0.3060 -0.4019 -0.1583
 9164TIP3    H248984   3.472   6.556  15.323 -0.4431 -0.9078  0.6167
 9165TIP3   OH248985   5.657   0.384   2.460 -0.0987  0.7174 -0.5195
 9165TIP3    H148986   5.737   0.375   2.409 -0.7495 -1.1383 -1.2869
 9165TIP3    H248987   5.600   0.315   2.427 -1.0766  0.3530  1.7956
 9166TIP3   OH248988   1.911   4.230   2.672  0.0283  0.4920  0.1170
 9166TIP3    H148989   1.818   4.214   2.685  0.5424 -1.7359  1.6792
 9166TIP3    H248990   1.934   4.294   2.740 -0.3151  0.9109 -0.1572
 9167TIP3   OH248991   1.139   2.126  14.472  0.2969 -0.1311  0.2853
 9167TIP3    H148992   1.082   2.057  14.438  1.9394 -0.4065 -2.1720
 9167TIP3    H248993   1.088   2.207  14.460 -1.3078 -0.7377  2.4228
 9168TIP3   OH248994   6.374   2.782  15.265 -0.2356 -0.7236 -0.5423
 9168TIP3    H148995   6.440   2.832  15.217 -0.0218 -0.6863 -0.2121
 9168TIP3    H248996   6.402   2.690  15.256  0.7417 -0.5975  0.8997
 9169TIP3   OH248997   6.693   2.955  13.818 -0.3537  0.2954 -0.1465
 9169TIP3    H148998   6.760   2.971  13.884 -0.5567  2.0234 -0.3210
 9169TIP3    H248999   6.629   2.898  13.862  0.6416 -0.4518  0.3738
 9170TIP3   OH249000   6.388   3.466   2.239  0.0019 -0.5722 -0.3525
 9170TIP3    H149001   6.425   3.554   2.237 -0.7902 -0.2470 -1.0072
 9170TIP3    H249002   6.457   3.412   2.279  1.1588  0.0355 -1.4390
 9171TIP3   OH249003   2.170   4.711  15.118 -0.0874  0.0954  0.5598
 9171TIP3    H149004   2.237   4.677  15.058  0.4844  2.3532 -0.2051
 9171TIP3    H249005   2.159   4.643  15.184  0.7285 -1.6358 -1.0015
 9172TIP3   OH249006   1.369   1.001   5.807 -0.0005  0.2791  0.3303
 9172TIP3    H149007   1.385   0.989   5.901 -1.6054 -2.7128  0.3757
 9172TIP3    H249008   1.274   0.992   5.799  0.1574  0.0504 -1.6294
 9173TIP3   OH249009   6.681   1.046  11.463  0.4272 -0.0396 -0.5000
 9173TIP3    H149010   6.668   0.965  11.413  0.9047  0.8774 -2.2048
 9173TIP3    H249011   6.596   1.063  11.503  0.5502 -1.8273  0.6329
 9174TIP3   OH249012   1.556   0.688  10.648 -0.3962 -0.3189  0.3070
 9174TIP3    H149013   1.512   0.736  10.578  0.6986  0.2200 -0.0314
 9174TIP3    H249014   1.551   0.747  10.723  1.1765  0.4752 -0.1774
 9175TIP3   OH249015   3.494   0.757  11.307 -0.5827  0.5548  0.0711
 9175TIP3    H149016   3.481   0.825  11.241  0.2305  0.9630  0.3262
 9175TIP3    H249017   3.411   0.756  11.356 -1.2142  0.2056 -0.9795
 9176TIP3   OH249018   0.012   2.634  13.518  0.2334 -0.2274 -0.6872
 9176TIP3    H149019  -0.035   2.552  13.507  0.2424 -0.0135 -2.4887
 9176TIP3    H249020   0.096   2.620  13.475  0.4392  0.5587 -0.5625
 9177TIP3   OH249021   3.447   2.151  16.374 -0.3169  0.2825 -0.2249
 9177TIP3    H149022   3.432   2.172  16.466 -0.6812  2.8598 -0.8043
 9177TIP3    H249023   3.496   2.069  16.377 -0.2280  0.3300  2.2634
 9178TIP3   OH249024   3.465   2.540   4.866  0.1122  0.1910 -0.1770
 9178TIP3    H149025   3.542   2.596   4.875 -0.6967  1.3701 -0.2792
 9178TIP3    H249026   3.440   2.517   4.956 -0.7533  1.7371  0.0086
 9179TIP3   OH249027   0.268   4.311  16.986  0.5244  0.0994  0.5765
 9179TIP3    H149028   0.333   4.339  16.922  0.8897 -1.9476 -0.0173
 9179TIP3    H249029   0.204   4.261  16.936 -1.4066  1.7683  1.1990
 9180TIP3   OH249030   0.286   4.348   2.721 -0.2105  0.0566  0.2790
 9180TIP3    H149031   0.366   4.315   2.681 -0.8763  0.0571 -1.0878
 9180TIP3    H249032   0.263   4.426   2.670  0.7255  2.1187  2.7484
 9181TIP3   OH249033   1.728   4.092  14.767  0.5246  0.5784 -0.0026
 9181TIP3    H149034   1.663   4.081  14.698  0.8989  0.8453 -0.4010
 9181TIP3    H249035   1.779   4.168  14.740 -0.1261  1.4741  1.2053
 9182TIP3   OH249036   3.770   3.884  10.987  0.0057  0.1420 -0.0287
 9182TIP3    H149037   3.855   3.881  11.031  0.3192  0.0154 -0.6292
 9182TIP3    H249038   3.725   3.958  11.026  2.2293  3.3687 -2.9649
 9183TIP3   OH249039   5.472   5.513   1.444 -0.2455  0.2829 -0.2243
 9183TIP3    H149040   5.483   5.450   1.373  0.4586  0.3847 -0.2186
 9183TIP3    H249041   5.438   5.591   1.402  1.6482  0.8791 -0.7421
 9184TIP3   OH249042   2.816   5.762   5.077  0.2575  0.6608 -0.1821
 9184TIP3    H149043   2.791   5.734   4.989  0.2494  2.0257 -0.6463
 9184TIP3    H249044   2.737   5.800   5.113  0.5188  1.0249  0.0167
 9185TIP3   OH249045   2.884   5.656   4.172 -0.2554  0.0484  0.2000
 9185TIP3    H149046   2.908   5.587   4.111 -1.0051 -0.2804  0.2711
 9185TIP3    H249047   2.825   5.614   4.234 -0.6820  0.7429  0.2730
 9186TIP3   OH249048   3.058   2.005  15.772  0.2726  0.2468 -0.6533
 9186TIP3    H149049   3.017   2.036  15.691  0.9221 -1.1379 -1.5412
 9186TIP3    H249050   3.092   2.084  15.813 -1.1672  1.1273 -1.0899
 9187TIP3   OH249051   0.943   5.004  15.949  0.3747 -0.1313 -0.3150
 9187TIP3    H149052   0.866   4.960  15.915  0.4011 -0.1377 -0.3671
 9187TIP3    H249053   0.987   4.939  16.004 -0.3122  0.2521  0.7233
 9188TIP3   OH249054   5.497   3.252  12.271  0.4130 -0.0459  0.1209
 9188TIP3    H149055   5.439   3.319  12.307  0.1470 -0.3332  0.2346
 9188TIP3    H249056   5.562   3.301  12.220  0.7460  0.3546  0.9188
 9189TIP3   OH249057   2.482   6.585   5.802  0.7301 -0.0519 -1.0401
 9189TIP3    H149058   2.520   6.512   5.853  0.5422 -1.6705 -3.0907
 9189TIP3    H249059   2.556   6.623   5.756  0.7728  0.9129 -0.2220
 9190TIP3   OH249060   2.614   2.277   2.000 -0.2859  0.2338 -0.0247
 9190TIP3    H149061   2.623   2.372   2.000  1.1770  0.1597 -2.1113
 9190TIP3    H249062   2.627   2.252   2.091  0.0941  1.9654  0.4406
 9191TIP3   OH249063   5.396   3.722   1.537 -0.6669 -0.0676 -0.3967
 9191TIP3    H149064   5.437   3.665   1.602 -0.6674 -0.1767 -0.4911
 9191TIP3    H249065   5.357   3.662   1.474 -1.5979  0.0229  0.0744
 9192TIP3   OH249066   1.387   2.076  11.996  0.6567 -0.4504 -0.3473
 9192TIP3    H149067   1.338   2.038  11.923  2.2307 -0.6512 -1.3472
 9192TIP3    H249068   1.336   2.053  12.074 -0.6233 -0.9553 -1.3032
 9193TIP3   OH249069   1.185   4.285  15.078  0.3299  0.3246  0.3107
 9193TIP3    H149070   1.242   4.362  15.077  2.7053 -1.3499 -0.3687
 9193TIP3    H249071   1.121   4.302  15.009  0.6892  1.7577  0.2984
 9194TIP3   OH249072   4.916   3.191  11.788 -0.1218  0.3438  0.1766
 9194TIP3    H149073   4.963   3.189  11.871  0.4411 -1.9363 -0.1138
 9194TIP3    H249074   4.854   3.118  11.794 -1.2381  1.1776 -0.7796
 9195TIP3   OH249075   0.427   3.649  11.161  0.0525 -0.2528 -0.1869
 9195TIP3    H149076   0.389   3.737  11.155  0.6663  0.0098 -0.4003
 9195TIP3    H249077   0.420   3.625  11.253 -1.6681 -0.6995 -0.4091
 9196TIP3   OH249078   6.546   0.172   4.600  0.3869 -0.0923 -0.0280
 9196TIP3    H149079   6.496   0.184   4.519  0.7123  1.4693 -0.0182
 9196TIP3    H249080   6.537   0.079   4.619 -1.1788 -0.1543 -0.8947
 9197TIP3   OH249081   0.780   5.298  14.100  0.1119  0.3424  0.1247
 9197TIP3    H149082   0.728   5.378  14.096 -0.3824 -0.0247 -1.2445
 9197TIP3    H249083   0.728   5.238  14.155  0.7678  1.1252  1.6580
 9198TIP3   OH249084   1.700   6.823  12.724  0.6633  0.1524 -0.6589
 9198TIP3    H149085   1.670   6.748  12.673 -2.3559  0.1960  0.8332
 9198TIP3    H249086   1.779   6.792  12.768 -0.1571 -2.0057 -0.5542
 9199TIP3   OH249087   0.134   4.647  13.918 -0.3115  0.2793 -0.3884
 9199TIP3    H149088   0.123   4.742  13.906  2.4683  0.5333 -1.5786
 9199TIP3    H249089   0.166   4.638  14.008 -0.4628  0.4842 -0.3128
 9200TIP3   OH249090   2.747   6.513  15.539  0.4243 -0.3163  0.1068
 9200TIP3    H149091   2.733   6.548  15.627  1.6022  2.2803 -0.6423
 9200TIP3    H249092   2.678   6.554  15.486  0.5919 -0.7188 -0.4280
 9201TIP3   OH249093   5.592   2.250  13.824 -0.0834 -0.3188  0.6895
 9201TIP3    H149094   5.536   2.256  13.902  0.5959  0.1812  1.1535
 9201TIP3    H249095   5.572   2.330  13.774  1.1331  0.5362  1.5057
 9202TIP3   OH249096   1.030   0.466   3.790 -0.3569  0.0560  0.0370
 9202TIP3    H149097   1.090   0.449   3.863  0.8380  2.5588 -0.2873
 9202TIP3    H249098   0.960   0.518   3.829 -0.2710  0.4822 -0.3740
 9203TIP3   OH249099   0.987   1.518   1.623  0.5791  0.2723 -0.0226
 9203TIP3    H149100   1.044   1.443   1.644  2.7619  1.2821 -1.9418
 9203TIP3    H249101   0.898   1.481   1.624  1.4742 -2.0750  0.1366
 9204TIP3   OH249102   1.714   4.654  13.933 -0.1752  0.1647 -0.5413
 9204TIP3    H149103   1.652   4.720  13.964  0.5387 -0.2940  2.1483
 9204TIP3    H249104   1.666   4.606  13.865 -2.1487  0.8826  0.2605
 9205TIP3   OH249105   0.860   0.881   4.806  0.5154 -0.3295  0.1795
 9205TIP3    H149106   0.796   0.945   4.837  0.1773 -1.1232  1.1477
 9205TIP3    H249107   0.817   0.838   4.731 -0.0956 -0.8500  0.8176
 9206TIP3   OH249108   1.287   4.663  11.256 -0.1036 -0.1037  0.1212
 9206TIP3    H149109   1.337   4.726  11.308 -0.1016 -0.3077  0.3683
 9206TIP3    H249110   1.198   4.669  11.290 -0.5785  1.2666 -1.2400
 9207TIP3   OH249111   6.316   5.428  11.708  0.0853 -0.1521 -0.0323
 9207TIP3    H149112   6.377   5.493  11.675 -1.3564  1.6231  0.6189
 9207TIP3    H249113   6.349   5.344  11.676  0.8336  1.0856 -2.7150
 9208TIP3   OH249114   0.329   1.306  12.277 -0.2470  0.1310 -0.2491
 9208TIP3    H149115   0.320   1.264  12.362  0.3293  0.7069  0.1078
 9208TIP3    H249116   0.331   1.400  12.296 -0.4138  0.2808 -0.9240
 9209TIP3   OH249117   3.600   3.495  15.632  0.8587  0.3466  0.4771
 9209TIP3    H149118   3.527   3.477  15.572  0.7403 -1.5400  1.1273
 9209TIP3    H249119   3.670   3.438  15.603  1.8632  1.6205  0.3180
 9210TIP3   OH249120   3.317   4.548   1.503  0.5131  0.3912 -0.5498
 9210TIP3    H149121   3.254   4.518   1.437  0.5296 -0.9858  0.0111
 9210TIP3    H249122   3.307   4.485   1.575 -0.1109  2.3216  1.1482
 9211TIP3   OH249123   2.813   5.175   4.243 -0.1415 -0.6257 -0.3564
 9211TIP3    H149124   2.803   5.117   4.318  0.5109 -0.1208  0.1336
 9211TIP3    H249125   2.825   5.117   4.168  1.9015 -1.1531  0.3104
 9212TIP3   OH249126   2.613   3.684   2.635 -0.1194  0.1154  0.0781
 9212TIP3    H149127   2.581   3.642   2.555  1.6274 -1.5692  0.1833
 9212TIP3    H249128   2.579   3.773   2.631  0.5443  0.3534 -2.9554
 9213TIP3   OH249129   6.105   2.942   5.467 -0.2280  0.1146  0.3172
 9213TIP3    H149130   6.121   3.014   5.528 -0.5242  0.4419  0.0081
 9213TIP3    H249131   6.011   2.925   5.474 -0.1497 -0.2885  0.4365
 9214TIP3   OH249132   5.482   2.160  15.399 -0.1900 -0.1233  0.6081
 9214TIP3    H149133   5.393   2.158  15.365  0.5270 -0.2046 -1.4064
 9214TIP3    H249134   5.501   2.252  15.414 -0.1035  0.0541 -0.4937
 9215TIP3   OH249135   6.093   1.998  12.080 -0.0126 -0.4666 -0.2966
 9215TIP3    H149136   6.103   2.090  12.055 -2.2071 -0.2562 -0.6401
 9215TIP3    H249137   5.998   1.985  12.084  0.1956 -3.1510 -1.8551
 9216TIP3   OH249138   0.449   3.703   5.253  0.0788 -0.3366  0.1608
 9216TIP3    H149139   0.543   3.688   5.262  0.3849  0.6752 -1.0522
 9216TIP3    H249140   0.422   3.740   5.337  1.3738  2.0742 -0.3696
 9217TIP3   OH249141   0.079   5.295  13.734 -0.1972 -0.1735 -0.2403
 9217TIP3    H149142   0.099   5.388  13.748 -3.5734  0.8691 -1.3152
 9217TIP3    H249143  -0.008   5.284  13.773 -0.9877 -2.2382 -2.3773
 9218TIP3   OH249144   4.720   1.694  12.508  0.3382 -0.3078 -0.2388
 9218TIP3    H149145   4.800   1.717  12.554  2.3805  1.1156 -4.0022
 9218TIP3    H249146   4.744   1.618  12.454 -0.1815  1.0683 -2.5845
 9219TIP3   OH249147   5.343   0.296   1.366 -0.6179 -0.1510  0.0641
 9219TIP3    H149148   5.432   0.268   1.345 -0.7069 -1.2139  1.0559
 9219TIP3    H249149   5.350   0.392   1.373  0.0518 -0.0338 -1.6240
 9220TIP3   OH249150   4.072   1.810  15.987 -0.1958 -0.0365 -0.2888
 9220TIP3    H149151   4.168   1.804  15.981 -0.1893  0.3179 -0.5727
 9220TIP3    H249152   4.055   1.904  15.992 -0.7005  0.1172 -3.3088
 9221TIP3   OH249153   3.472   1.338   1.600  0.8055 -0.6678 -0.0662
 9221TIP3    H149154   3.486   1.338   1.695 -1.7963 -2.3195  0.4340
 9221TIP3    H249155   3.387   1.381   1.588  0.7507 -1.1395 -1.5617
 9222TIP3   OH249156   5.262   3.087   3.291 -0.5017  0.1326  0.1962
 9222TIP3    H149157   5.219   3.127   3.216 -1.1438 -1.0007 -0.0602
 9222TIP3    H249158   5.209   3.114   3.366 -0.9641 -0.2668  0.0189
 9223TIP3   OH249159   0.236   2.063   1.709  0.1119  0.2390  0.2520
 9223TIP3    H149160   0.185   2.027   1.636 -1.2533 -0.6399  1.5964
 9223TIP3    H249161   0.283   2.137   1.670  0.3397 -0.9017 -1.7864
 9224TIP3   OH249162   4.871   6.120   1.193  0.1450  0.2809 -0.2521
 9224TIP3    H149163   4.904   6.148   1.278 -1.6951  2.0843 -0.0258
 9224TIP3    H249164   4.818   6.042   1.212  1.0562 -0.2868 -0.0180
 9225TIP3   OH249165   0.837   6.034   3.869 -0.1823  0.6950  0.1451
 9225TIP3    H149166   0.837   5.940   3.884 -0.5108  0.3672 -1.7086
 9225TIP3    H249167   0.745   6.056   3.856 -0.0992  1.2662  0.4897
 9226TIP3   OH249168   2.775   4.911   0.706 -0.4730 -0.1316  0.1240
 9226TIP3    H149169   2.769   5.004   0.724 -0.2883 -0.2502  0.8227
 9226TIP3    H249170   2.684   4.881   0.703 -0.5213  0.0028  0.2711
 9227TIP3   OH249171   2.681   4.062   1.777  0.1297  0.3001  1.0417
 9227TIP3    H149172   2.772   4.076   1.750 -0.0846 -1.7153 -1.0024
 9227TIP3    H249173   2.687   4.011   1.857  0.7882  0.6663  1.2326
 9228TIP3   OH249174   6.367   2.133  16.094  0.2888 -0.2894 -0.0053
 9228TIP3    H149175   6.401   2.203  16.151  3.1363 -1.2241 -0.3727
 9228TIP3    H249176   6.330   2.179  16.019 -0.3681  0.8634  0.9916
 9229TIP3   OH249177   1.778   3.616  16.732 -0.8449  0.7303 -0.2997
 9229TIP3    H149178   1.744   3.657  16.811 -0.9269  1.8638 -0.9085
 9229TIP3    H249179   1.705   3.562  16.700 -0.2040 -1.2553  1.3780
 9230TIP3   OH249180   6.556   6.426   5.105  0.3944 -0.0313 -0.2976
 9230TIP3    H149181   6.585   6.370   5.177  2.2331 -0.7165 -1.4995
 9230TIP3    H249182   6.617   6.407   5.034  0.2265  2.4882 -1.2146
 9231TIP3   OH249183   5.411   3.348  14.525  0.0231 -0.2377 -0.0627
 9231TIP3    H149184   5.328   3.393  14.544  0.7190  0.7857  0.7022
 9231TIP3    H249185   5.436   3.381  14.438  0.1547  0.2818  0.1690
 9232TIP3   OH249186   4.184   0.622  16.602  0.0051 -0.7888  0.3208
 9232TIP3    H149187   4.132   0.569  16.542 -0.2866 -0.3774  0.2078
 9232TIP3    H249188   4.190   0.708  16.559  0.5412 -0.7475  0.4599
 9233TIP3   OH249189   3.274   4.063  13.401  0.2864  0.5952  0.1967
 9233TIP3    H149190   3.266   4.035  13.493  2.0710  1.7427  0.7734
 9233TIP3    H249191   3.210   4.133  13.392 -0.0908  0.2933  0.4880
 9234TIP3   OH249192   4.885   6.723  14.519 -0.3908  0.0140 -1.2841
 9234TIP3    H149193   4.937   6.658  14.566  1.7984  1.7372 -1.1726
 9234TIP3    H249194   4.867   6.682  14.434 -0.3300 -1.2753 -0.7056
 9235TIP3   OH249195   5.045   0.855   2.302 -0.2460 -0.2026 -0.2509
 9235TIP3    H149196   4.981   0.918   2.334 -0.9867 -1.7980  1.6252
 9235TIP3    H249197   4.997   0.802   2.238 -0.7240 -1.0953  0.8082
 9236TIP3   OH249198   1.890   1.091  11.605 -0.1505  0.0187  0.0218
 9236TIP3    H149199   1.926   1.069  11.520  1.2725  0.5738  0.4361
 9236TIP3    H249200   1.877   1.186  11.602  0.6217  0.1590  0.6547
 9237TIP3   OH249201   3.045   5.985  12.787 -0.2720  0.0281 -0.5546
 9237TIP3    H149202   3.092   6.048  12.733  1.0400 -0.3072  0.1316
 9237TIP3    H249203   3.114   5.925  12.819 -0.9517  0.2838  1.5493
 9238TIP3   OH249204   3.345   4.529  12.168 -0.4999  0.4529 -0.1391
 9238TIP3    H149205   3.322   4.440  12.195  2.8336  0.2123  2.4660
 9238TIP3    H249206   3.417   4.517  12.105  0.2466  1.2891  0.5345
 9239TIP3   OH249207   6.310   0.374  13.210  0.0009  0.1040 -0.2935
 9239TIP3    H149208   6.321   0.291  13.258  1.1896  0.4944  0.1495
 9239TIP3    H249209   6.217   0.377  13.189 -0.1581 -1.1033  0.1377
 9240TIP3   OH249210   1.524   2.286  12.333 -0.3069 -0.1340  0.7095
 9240TIP3    H149211   1.496   2.268  12.423 -0.9365 -2.3777  0.1372
 9240TIP3    H249212   1.453   2.338  12.296 -1.2809 -1.3621  0.8012
 9241TIP3   OH249213   2.156   5.870  14.524 -0.3962  0.7945 -0.5875
 9241TIP3    H149214   2.127   5.918  14.602 -1.9154  0.3179 -0.8408
 9241TIP3    H249215   2.080   5.869  14.467 -0.4377 -1.9405 -0.5950
 9242TIP3   OH249216   2.688   1.565   0.728 -0.1314  0.2143  0.0542
 9242TIP3    H149217   2.614   1.558   0.789 -0.6266  0.2678 -0.5378
 9242TIP3    H249218   2.743   1.634   0.766  0.6864 -1.2101  1.6088
 9243TIP3   OH249219   4.961   3.934   5.204 -0.1841 -0.2944  0.1218
 9243TIP3    H149220   4.956   3.927   5.299 -0.7195 -0.4132  0.0866
 9243TIP3    H249221   4.952   4.027   5.186 -1.3656 -0.3876  0.1240
 9244TIP3   OH249222   3.251   2.438  15.277 -0.1488 -0.3452  0.0628
 9244TIP3    H149223   3.330   2.491  15.282  0.1200 -0.6870 -0.4489
 9244TIP3    H249224   3.180   2.502  15.266  0.2808 -0.1122 -1.6535
 9245TIP3   OH249225   1.938   6.686   5.543  0.4559  0.1532  0.7430
 9245TIP3    H149226   1.972   6.647   5.623  0.6357  0.0832  0.6339
 9245TIP3    H249227   1.903   6.771   5.570  1.8706  0.7986  0.6655
 9246TIP3   OH249228   1.960   0.555  12.321  0.2510 -0.0789  0.0974
 9246TIP3    H149229   2.018   0.600  12.259  2.5374 -0.2248  1.9869
 9246TIP3    H249230   1.903   0.502  12.266  1.0595  1.0382 -1.9459
 9247TIP3   OH249231   1.463   3.114  12.621 -0.4990 -0.6671  0.7428
 9247TIP3    H149232   1.520   3.160  12.558 -0.7966  0.9649  1.5949
 9247TIP3    H249233   1.384   3.094  12.571 -0.0909 -0.8642  0.1627
 9248TIP3   OH249234   0.684   2.613   0.125  0.1021  0.1857 -0.1106
 9248TIP3    H149235   0.702   2.543   0.061 -0.6192 -0.5746  0.4811
 9248TIP3    H249236   0.590   2.604   0.144  0.1576  0.8479  0.5320
 9249TIP3   OH249237   3.451   4.675   0.373  0.4352 -0.6767 -0.1159
 9249TIP3    H149238   3.493   4.700   0.290 -0.7046 -0.8199 -0.7658
 9249TIP3    H249239   3.373   4.730   0.377  0.6858 -0.3891  1.0797
 9250TIP3   OH249240   6.158   1.055  13.276 -0.1288  0.1151 -0.4356
 9250TIP3    H149241   6.160   1.151  13.280 -1.2075  0.2083 -1.6083
 9250TIP3    H249242   6.250   1.030  13.271  0.1640  1.1081 -0.3097
 9251TIP3   OH249243   1.659   0.694   6.234  0.5231  0.3290  0.2680
 9251TIP3    H149244   1.595   0.749   6.280  1.0099  1.7982 -0.7461
 9251TIP3    H249245   1.740   0.745   6.236  0.6837  0.2350 -1.7481
 9252TIP3   OH249246   3.468   4.928  15.367  0.4140 -0.0307  0.0987
 9252TIP3    H149247   3.516   5.004  15.399  2.6618 -1.6917  0.9571
 9252TIP3    H249248   3.396   4.917  15.429  0.7401  0.7237  0.6313
 9253TIP3   OH249249   5.680   4.159  14.263  0.4411 -0.0358 -0.2396
 9253TIP3    H149250   5.716   4.243  14.290  0.4651 -0.1244  0.0079
 9253TIP3    H249251   5.663   4.169  14.169 -1.1278  0.8062  0.1037
 9254TIP3   OH249252   2.965   4.204  11.065 -0.4588 -0.3041  0.5233
 9254TIP3    H149253   2.915   4.152  11.003  2.1889 -0.9805 -1.2185
 9254TIP3    H249254   2.981   4.287  11.020  2.2635 -1.1296 -0.2706
 9255TIP3   OH249255   1.616   5.276   3.899 -0.2262  0.1798  0.8505
 9255TIP3    H149256   1.545   5.251   3.840  0.7575 -3.0009  0.8249
 9255TIP3    H249257   1.664   5.344   3.851 -0.7576 -0.7172 -1.0437
 9256TIP3   OH249258   2.582   2.480   6.346  0.5293 -0.0698  0.3029
 9256TIP3    H149259   2.508   2.422   6.365 -1.0676  0.5849 -3.0361
 9256TIP3    H249260   2.631   2.435   6.277  1.1944  1.0620  0.0046
 9257TIP3   OH249261   0.829   0.388   2.246 -0.4885 -0.3100 -0.1386
 9257TIP3    H149262   0.885   0.330   2.195 -1.7585 -0.8884 -0.9486
 9257TIP3    H249263   0.742   0.348   2.240 -1.2053  1.1311  0.1609
 9258TIP3   OH249264   5.116   1.162   0.342  0.6269  0.0814  0.0362
 9258TIP3    H149265   5.050   1.161   0.273  0.6899 -4.2463 -0.2498
 9258TIP3    H249266   5.088   1.230   0.402 -2.4740  0.3388 -1.5220
 9259TIP3   OH249267   2.944   0.220  12.973 -0.0093  0.3862 -0.1286
 9259TIP3    H149268   2.883   0.287  13.002 -0.7926 -0.3380 -0.0409
 9259TIP3    H249269   2.898   0.176  12.901 -0.3919 -1.3403  1.0921
 9260TIP3   OH249270   4.479   2.027  15.686 -0.5167  0.0449  0.4542
 9260TIP3    H149271   4.405   2.085  15.667  0.3900  1.0162 -0.2285
 9260TIP3    H249272   4.530   2.074  15.752  1.2469  0.9820 -1.4563
 9261TIP3   OH249273   4.589   3.164   5.908 -0.3986  0.2009 -0.3109
 9261TIP3    H149274   4.590   3.199   5.998 -1.4530  0.4559 -0.3772
 9261TIP3    H249275   4.657   3.213   5.862 -0.1994  0.4351  0.2256
 9262TIP3   OH249276   3.517   2.984  11.423  0.5462 -0.7281  0.2216
 9262TIP3    H149277   3.490   3.075  11.410  1.7215 -0.5779 -1.7515
 9262TIP3    H249278   3.574   2.986  11.499  1.3127  0.3968 -0.3560
 9263TIP3   OH249279   6.107   1.710   6.424 -0.3605  0.5216  0.6703
 9263TIP3    H149280   6.196   1.732   6.396 -0.2435  0.9710  1.3662
 9263TIP3    H249281   6.120   1.656   6.502 -0.6788 -0.6650 -0.0815
 9264TIP3   OH249282   0.948   5.725  16.167  0.5626  0.0405  0.1058
 9264TIP3    H149283   0.869   5.752  16.213  1.2666  2.1546  0.1934
 9264TIP3    H249284   1.013   5.792  16.189  0.6067  2.1217 -4.9295
 9265TIP3   OH249285   4.691   2.355   4.304 -0.1995 -0.2145 -0.2894
 9265TIP3    H149286   4.619   2.411   4.277 -0.3701  0.0696  0.7180
 9265TIP3    H249287   4.757   2.365   4.236 -0.0404  1.5519  0.0955
 9266TIP3   OH249288   1.150   5.150  14.014  0.6775 -0.3045 -0.5663
 9266TIP3    H149289   1.100   5.101  13.949  0.9253 -0.1845 -0.8506
 9266TIP3    H249290   1.128   5.241  13.998  1.0258 -0.2478 -0.7266
 9267TIP3   OH249291   5.436   5.056   0.145 -0.3263  0.0365 -0.7116
 9267TIP3    H149292   5.366   5.042   0.209  1.1581  1.1078  1.2529
 9267TIP3    H249293   5.442   5.151   0.136  2.0950  0.0914  0.6744
 9268TIP3   OH249294   0.825   5.874  13.453 -0.0587 -0.1780 -0.1807
 9268TIP3    H149295   0.766   5.824  13.397 -0.3661  1.2517 -1.1604
 9268TIP3    H249296   0.911   5.863  13.413  0.0149 -0.5742  0.0766
 9269TIP3   OH249297   5.061   2.907  11.443  0.4324  0.3879  0.0460
 9269TIP3    H149298   5.038   2.832  11.499 -2.0190 -0.6192 -2.0764
 9269TIP3    H249299   5.108   2.868  11.370 -0.7077  0.9022 -0.9951
 9270TIP3   OH249300   1.351   0.969  15.758  0.2677 -0.4879  0.6957
 9270TIP3    H149301   1.271   1.022  15.763 -0.2755 -1.2587  0.2711
 9270TIP3    H249302   1.407   1.017  15.697 -0.3172 -0.5128  0.1279
 9271TIP3   OH249303   1.538   3.297  12.222  0.3327  0.4486  0.4488
 9271TIP3    H149304   1.497   3.240  12.157  2.5037 -1.7947  0.9109
 9271TIP3    H249305   1.550   3.381  12.176  2.4301 -1.2237 -2.3742
 9272TIP3   OH249306   6.456   4.837  11.664  0.1251  0.6245 -0.4940
 9272TIP3    H149307   6.365   4.856  11.640  0.1083 -0.7735 -1.7110
 9272TIP3    H249308   6.473   4.894  11.738 -2.3952 -0.4904  1.0896
 9273TIP3   OH249309   0.375   2.358  14.129  0.0642  0.4558  0.5064
 9273TIP3    H149310   0.280   2.351  14.118  0.2017  0.3523 -0.8041
 9273TIP3    H249311   0.387   2.419  14.202 -1.0050  0.1863  0.9203
 9274TIP3   OH249312   2.702   3.968   6.231  0.2045 -0.0262 -0.1759
 9274TIP3    H149313   2.686   3.967   6.325  1.4307 -0.2417  0.0432
 9274TIP3    H249314   2.792   3.936   6.221 -0.0068 -0.2933 -1.4406
 9275TIP3   OH249315   5.245   0.962   1.838  0.1649  0.5116  0.4969
 9275TIP3    H149316   5.340   0.953   1.842  0.2903  1.4742 -0.0034
 9275TIP3    H249317   5.213   0.909   1.910  1.0857  0.1782  0.6740
 9276TIP3   OH249318   0.730   4.450  16.507  0.5685  0.0936 -0.0687
 9276TIP3    H149319   0.703   4.529  16.460  0.9099 -0.0397 -0.4900
 9276TIP3    H249320   0.783   4.401  16.445  0.4181 -0.4404  0.2093
 9277TIP3   OH249321   3.279   1.469   6.321  0.2180 -0.3615 -0.3067
 9277TIP3    H149322   3.270   1.377   6.299  0.9698 -0.2198 -1.2574
 9277TIP3    H249323   3.220   1.482   6.395 -0.0043 -1.5660 -0.2584
 9278TIP3   OH249324   4.053   1.535  10.983 -0.3650 -0.3488  0.6147
 9278TIP3    H149325   4.054   1.441  10.967  1.7111 -0.4449  1.0290
 9278TIP3    H249326   4.084   1.573  10.901 -0.2789 -0.0896  0.7659
 9279TIP3   OH249327   2.290   4.525  10.095  0.1783 -0.1364 -0.8608
 9279TIP3    H149328   2.254   4.448  10.139 -0.8047  1.0391  0.4596
 9279TIP3    H249329   2.380   4.531  10.127  0.2912 -0.7682 -1.0380
 9280TIP3   OH249330   0.828   4.887   0.705  0.0018  0.1130 -0.1247
 9280TIP3    H149331   0.761   4.875   0.772  0.5480 -0.4767  0.3250
 9280TIP3    H249332   0.780   4.885   0.622 -0.3882 -1.6512  0.1089
 9281TIP3   OH249333   3.536   1.183  11.658  0.1450 -0.1767 -0.7316
 9281TIP3    H149334   3.456   1.184  11.710 -0.1918  0.0041 -1.2464
 9281TIP3    H249335   3.542   1.093  11.626  0.0622 -0.1512 -0.8201
 9282TIP3   OH249336   1.383   0.919  13.532  0.1674  0.0080  0.8014
 9282TIP3    H149337   1.466   0.879  13.559  0.2107  0.5188  1.4637
 9282TIP3    H249338   1.407   1.008  13.507 -0.3118  0.4787  1.9382
 9283TIP3   OH249339   1.015   5.545  11.531  0.0080  0.3387  0.1268
 9283TIP3    H149340   1.026   5.556  11.436 -1.5315 -0.0729 -0.1301
 9283TIP3    H249341   0.999   5.633  11.563 -1.6214  0.2459 -0.3432
 9284TIP3   OH249342   3.184   5.844  11.498  0.0500  0.4131 -0.1207
 9284TIP3    H149343   3.168   5.750  11.487  1.9096  0.1100 -0.4959
 9284TIP3    H249344   3.098   5.884  11.483 -0.7095 -1.1906 -0.3003
 9285TIP3   OH249345   5.860   4.541   1.005 -0.0037  0.1980 -0.0920
 9285TIP3    H149346   5.779   4.505   0.969  0.2409 -0.5088  0.0502
 9285TIP3    H249347   5.892   4.600   0.938 -0.5873  0.4060 -0.1918
 9286TIP3   OH249348   2.633   1.769   1.456  0.4827 -0.6343  0.1602
 9286TIP3    H149349   2.708   1.713   1.474  1.0428 -0.1624 -0.6856
 9286TIP3    H249350   2.619   1.818   1.538  1.2697 -0.5262  0.2336
 9287TIP3   OH249351   2.230   0.010   3.537  0.1374 -0.1440  0.5933
 9287TIP3    H149352   2.194  -0.078   3.553 -1.2047  0.4602  1.0728
 9287TIP3    H249353   2.155   0.061   3.505  1.2630  0.4323 -1.2495
 9288TIP3   OH249354   5.067   4.328   5.563 -0.0284 -0.0463  0.2802
 9288TIP3    H149355   5.152   4.363   5.592 -1.3694  2.2298  1.7712
 9288TIP3    H249356   5.074   4.326   5.467  1.7927 -0.2323  0.3715
 9289TIP3   OH249357   5.149   0.815  13.824 -0.2597 -0.6147  0.2510
 9289TIP3    H149358   5.179   0.823  13.733 -1.7703  1.9041 -0.1400
 9289TIP3    H249359   5.125   0.723  13.834  0.5600 -1.0828 -1.6726
 9290TIP3   OH249360   0.197   6.243   5.099  0.6010  0.5980  0.9015
 9290TIP3    H149361   0.180   6.334   5.074  0.2785 -0.1986 -2.2283
 9290TIP3    H249362   0.292   6.235   5.098  0.6324  0.9094  1.2489
 9291TIP3   OH249363   6.326   3.322  12.099  0.1896 -0.0837 -0.1427
 9291TIP3    H149364   6.323   3.406  12.145  0.3624 -1.2721  2.1380
 9291TIP3    H249365   6.326   3.347  12.006 -4.0232  2.3646  0.2639
 9292TIP3   OH249366   1.189   1.226   0.611  0.0194 -0.3796 -0.0021
 9292TIP3    H149367   1.176   1.136   0.580  1.5418 -0.6856  0.1495
 9292TIP3    H249368   1.256   1.219   0.679 -0.9943  0.6889  1.1635
 9293TIP3   OH249369   1.698   5.619   5.256 -0.0690 -0.2737  0.0654
 9293TIP3    H149370   1.727   5.576   5.336 -1.9029 -2.2998 -0.2507
 9293TIP3    H249371   1.610   5.650   5.276  0.7717  2.4316 -0.1091
 9294TIP3   OH249372   3.544   4.375   3.998  0.1312  0.1889  0.0243
 9294TIP3    H149373   3.473   4.426   4.038  0.6840  1.3627 -0.4599
 9294TIP3    H249374   3.569   4.425   3.921  1.9577  0.1724  0.5560
 9295TIP3   OH249375   0.238   5.402   6.406  0.3476 -0.4248  0.4315
 9295TIP3    H149376   0.188   5.451   6.471  1.7960  0.1844  1.1391
 9295TIP3    H249377   0.201   5.314   6.409 -0.6367 -0.0161  0.9580
 9296TIP3   OH249378   0.591   1.207  14.588  0.4730  0.4936 -0.0208
 9296TIP3    H149379   0.606   1.114  14.571  0.6756  0.1673  1.6806
 9296TIP3    H249380   0.497   1.219  14.576  0.0888 -0.4335  1.6943
 9297TIP3   OH249381   1.422   1.681   2.740 -0.5279  0.5359 -0.3846
 9297TIP3    H149382   1.448   1.624   2.668  0.7969  0.1811  0.3552
 9297TIP3    H249383   1.343   1.725   2.708 -1.3110 -1.3363 -1.1523
 9298TIP3   OH249384   4.606   6.351   3.877 -0.9902  0.3251 -0.1325
 9298TIP3    H149385   4.636   6.371   3.788 -1.1949  0.4288 -0.1798
 9298TIP3    H249386   4.608   6.435   3.922  2.3638 -0.1845  0.9836
 9299TIP3   OH249387   6.158   0.350   0.369  0.3395  0.0961  0.3701
 9299TIP3    H149388   6.226   0.328   0.305 -1.3458 -0.4592 -1.3575
 9299TIP3    H249389   6.140   0.268   0.414 -0.3394 -0.2012 -0.4017
 9300TIP3   OH249390   1.161   1.407  14.299  0.0195 -0.1842 -0.0081
 9300TIP3    H149391   1.119   1.488  14.273 -0.9861 -0.1128  1.6687
 9300TIP3    H249392   1.112   1.338  14.254 -0.0583  0.0513 -0.2839
 9301TIP3   OH249393   5.870   5.409  16.484 -0.0495 -0.6719  0.0351
 9301TIP3    H149394   5.895   5.482  16.427 -0.1535 -0.7296 -0.0844
 9301TIP3    H249395   5.819   5.351  16.427 -2.0066  0.3066  0.6882
 9302TIP3   OH249396   2.298   4.652  11.142 -0.6569 -0.2491  0.3126
 9302TIP3    H149397   2.363   4.656  11.212 -0.7671  0.5457  0.3783
 9302TIP3    H249398   2.214   4.639  11.186 -0.7659  0.5521  0.3675
 9303TIP3   OH249399   0.660   6.063  16.960 -0.0311  0.1221  0.2825
 9303TIP3    H149400   0.602   6.068  16.883 -1.2745 -0.9564  1.1014
 9303TIP3    H249401   0.739   6.021  16.928 -0.3237  0.1646 -0.5299
 9304TIP3   OH249402   6.645   5.813  15.229  0.2846 -0.6704  0.1449
 9304TIP3    H149403   6.673   5.896  15.192  0.5734 -0.3831  0.9882
 9304TIP3    H249404   6.725   5.775  15.266  0.5549 -2.1998 -1.8298
 9305TIP3   OH249405   4.555   4.084  16.786  0.0930 -0.0222  0.9686
 9305TIP3    H149406   4.563   4.043  16.872  0.3777 -0.1867  0.8656
 9305TIP3    H249407   4.580   4.016  16.724  0.4886  0.2801  0.7905
 9306TIP3   OH249408   5.579   0.019  14.023 -1.0249 -0.3472  0.4812
 9306TIP3    H149409   5.631   0.019  13.943 -2.3813 -1.5716 -0.4591
 9306TIP3    H249410   5.643   0.030  14.093  0.1996  0.7555 -0.7415
 9307TIP3   OH249411   6.527   4.190   0.427 -0.2477 -0.4747 -0.3151
 9307TIP3    H149412   6.553   4.282   0.431 -0.7731 -0.2849 -1.1377
 9307TIP3    H249413   6.460   4.186   0.359 -0.2508 -1.4651 -0.2753
 9308TIP3   OH249414   3.946   1.234  14.859  0.4181 -0.3941 -0.3768
 9308TIP3    H149415   4.035   1.198  14.859 -0.0047 -1.6175 -2.5440
 9308TIP3    H249416   3.955   1.319  14.816  0.5019 -0.6477 -0.8659
 9309TIP3   OH249417   5.542   4.010  12.448 -0.1457 -0.3701 -0.5014
 9309TIP3    H149418   5.627   3.981  12.479 -0.8318 -3.0204 -0.7879
 9309TIP3    H249419   5.483   3.997  12.523 -0.7318 -1.0939 -1.0675
 9310TIP3   OH249420   4.733   5.257   4.785  0.0888  0.0916 -0.1072
 9310TIP3    H149421   4.757   5.276   4.694 -0.2027  1.1301  0.0206
 9310TIP3    H249422   4.692   5.337   4.817 -1.6084 -0.9032  0.3448
 9311TIP3   OH249423   1.777   2.324   4.295 -0.3316 -0.2227 -0.0958
 9311TIP3    H149424   1.841   2.312   4.224 -0.4387 -1.9871  0.0833
 9311TIP3    H249425   1.818   2.390   4.352  0.8966 -0.6249 -0.4806
 9312TIP3   OH249426   4.635   2.811   5.073  0.0709  0.3367  0.0233
 9312TIP3    H149427   4.704   2.866   5.037 -1.9255  2.4182 -0.8624
 9312TIP3    H249428   4.569   2.807   5.004 -2.3674  1.6030  2.1086
 9313TIP3   OH249429   3.934   2.684   4.876  0.1764 -0.0554  0.1503
 9313TIP3    H149430   3.838   2.674   4.877  0.1914 -0.9963 -2.2227
 9313TIP3    H249431   3.949   2.769   4.836  0.3675  0.5843  1.5117
 9314TIP3   OH249432   0.430   4.360  12.390 -0.4472  0.9349 -0.2912
 9314TIP3    H149433   0.461   4.362  12.299 -0.7956  0.3444 -0.4273
 9314TIP3    H249434   0.367   4.288  12.392  1.4581 -0.7912  1.0693
 9315TIP3   OH249435   6.500   6.157  14.844  0.7528 -0.2165 -0.2410
 9315TIP3    H149436   6.565   6.158  14.915  1.0477 -2.0703 -0.4381
 9315TIP3    H249437   6.424   6.113  14.882  0.4515 -0.1249 -0.7301
 9316TIP3   OH249438   5.026   1.390  11.456 -0.2554 -0.2755  0.3582
 9316TIP3    H149439   5.054   1.365  11.368 -1.7500 -0.8505  0.0259
 9316TIP3    H249440   4.958   1.327  11.479 -1.6297  1.3463  0.9451
 9317TIP3   OH249441   3.399   6.261   4.187 -1.0256 -0.2339  0.2984
 9317TIP3    H149442   3.381   6.347   4.225 -0.8324 -0.4795  0.9582
 9317TIP3    H249443   3.455   6.217   4.251 -0.9312 -0.7685 -0.1381
 9318TIP3   OH249444   4.585   2.582  11.281  0.7222  0.0186  0.4614
 9318TIP3    H149445   4.641   2.656  11.306  2.7810 -1.2732 -0.0606
 9318TIP3    H249446   4.551   2.606  11.195  1.4095  0.3723  0.2780
 9319TIP3   OH249447   3.726   6.844   0.330  0.3433  0.3847  0.4900
 9319TIP3    H149448   3.815   6.827   0.359  1.6438  0.4902 -2.9409
 9319TIP3    H249449   3.679   6.762   0.344  1.6285 -0.4136  0.2511
 9320TIP3   OH249450   0.972   1.469   6.380 -0.3247  0.1118  0.7551
 9320TIP3    H149451   1.060   1.432   6.391  0.7743  1.3178 -2.7210
 9320TIP3    H249452   0.985   1.563   6.387 -1.3348  0.3086  0.0687
 9321TIP3   OH249453   1.339   0.714   3.866 -0.2829 -0.0162  0.0408
 9321TIP3    H149454   1.411   0.776   3.858 -0.3605  0.1882  0.8552
 9321TIP3    H249455   1.304   0.728   3.953  0.9601 -2.5738  1.0725
 9322TIP3   OH249456   4.306   1.486  13.823  0.1211  0.3966  0.6009
 9322TIP3    H149457   4.254   1.437  13.760  0.9968  0.8081 -0.4690
 9322TIP3    H249458   4.262   1.571  13.830  1.2770  1.2072 -1.2488
 9323TIP3   OH249459   1.718   3.756  11.485 -0.8900 -0.2241 -0.2599
 9323TIP3    H149460   1.634   3.800  11.474 -1.2821 -0.5107  1.3940
 9323TIP3    H249461   1.784   3.824  11.467 -1.4811  0.6700  0.8867
 9324TIP3   OH249462   5.786   4.317   3.261 -0.2937 -0.6867  0.4792
 9324TIP3    H149463   5.858   4.276   3.308  0.6523 -0.7492 -0.9512
 9324TIP3    H249464   5.828   4.385   3.208 -1.2669 -0.7916 -0.4700
 9325TIP3   OH249465   5.935   3.519   0.092 -0.2591  0.2271  0.3025
 9325TIP3    H149466   5.960   3.428   0.079 -0.3790  0.2563 -0.1656
 9325TIP3    H249467   5.919   3.552   0.003  1.6165  1.2424  0.2844
 9326TIP3   OH249468   1.296   2.978   3.648 -0.3180  0.0031  0.1917
 9326TIP3    H149469   1.272   3.028   3.726  1.3938  1.5893 -0.2481
 9326TIP3    H249470   1.220   2.986   3.590 -0.6978  0.7426  0.7770
 9327TIP3   OH249471   2.045   0.655  11.304  0.5285  0.5424 -0.1206
 9327TIP3    H149472   2.024   0.600  11.379  1.3345 -0.3621 -0.5369
 9327TIP3    H249473   2.081   0.735  11.343  1.4111 -0.1183  0.4743
 9328TIP3   OH249474   5.341   3.332  15.836  0.6224  0.0473 -0.5688
 9328TIP3    H149475   5.336   3.351  15.742 -0.6528 -1.3893 -0.8331
 9328TIP3    H249476   5.425   3.286  15.846  0.0695 -1.1730 -1.3022
 9329TIP3   OH249477   0.921   4.964   6.276  0.6410 -0.2615  0.0296
 9329TIP3    H149478   0.902   4.873   6.298  0.1208 -0.1092  0.2313
 9329TIP3    H249479   0.844   5.013   6.306  1.1869  0.3301  0.5104
 9330TIP3   OH249480   3.277   2.724   6.171 -0.0266  0.3620  1.0556
 9330TIP3    H149481   3.343   2.793   6.181 -0.5597  0.6129  3.4153
 9330TIP3    H249482   3.214   2.740   6.241 -2.0859 -0.4807 -0.4905
 9331TIP3   OH249483   5.581   6.098   3.040 -0.0809 -0.7347 -0.2713
 9331TIP3    H149484   5.536   6.105   2.956  0.2623  0.8519 -0.3556
 9331TIP3    H249485   5.644   6.026   3.028  1.9970  1.2378 -2.4023
 9332TIP3   OH249486   4.910   6.558  12.606  0.4102  0.1978 -0.1051
 9332TIP3    H149487   4.839   6.572  12.543 -0.2137 -2.2828 -0.0439
 9332TIP3    H249488   4.976   6.508  12.557  0.5727 -0.4643  0.7683
 9333TIP3   OH249489   4.919   1.860   1.399 -0.1794  0.3228 -0.1937
 9333TIP3    H149490   4.979   1.927   1.431 -0.4681  0.3900  0.2073
 9333TIP3    H249491   4.965   1.777   1.414  0.2165  0.4335 -0.7749
 9334TIP3   OH249492   3.215   5.102  15.152 -0.1434 -0.7540  1.2919
 9334TIP3    H149493   3.309   5.093  15.137  0.2261  0.5422  2.5587
 9334TIP3    H249494   3.185   5.012  15.169  0.9589 -1.1288  1.3491
 9335TIP3   OH249495   5.826   6.701  11.470 -0.2966  0.2199  0.0241
 9335TIP3    H149496   5.815   6.752  11.390 -1.1664 -0.7904 -0.5218
 9335TIP3    H249497   5.826   6.767  11.540 -0.0369  1.0709 -0.7587
 9336TIP3   OH249498   3.071   6.822   3.998 -0.6644  0.2389  0.1605
 9336TIP3    H149499   3.155   6.795   3.959  0.0705  0.4758  1.5268
 9336TIP3    H249500   3.044   6.898   3.947  0.4497  0.7512  0.3059
 9337TIP3   OH249501   3.122   1.203   3.546 -0.0684  0.0971 -0.4524
 9337TIP3    H149502   3.084   1.291   3.548  0.3091  0.3438 -2.2448
 9337TIP3    H249503   3.052   1.148   3.510 -0.2453 -0.3231  0.5018
 9338TIP3   OH249504   5.817   4.431  16.703  0.2135  0.0392  0.2617
 9338TIP3    H149505   5.895   4.440  16.648 -1.6132  1.6732 -2.2962
 9338TIP3    H249506   5.766   4.362  16.661 -1.6943  2.0185 -0.8363
 9339TIP3   OH249507   0.346   6.833   1.388 -0.0889  0.2378  0.0535
 9339TIP3    H149508   0.321   6.899   1.324 -1.8044 -0.9335 -0.5560
 9339TIP3    H249509   0.415   6.782   1.345 -0.6548 -0.0263 -0.5687
 9340TIP3   OH249510   5.264   2.112   3.459  0.0452 -0.1587 -0.2649
 9340TIP3    H149511   5.288   2.093   3.550 -1.9087  1.1008  0.5752
 9340TIP3    H249512   5.237   2.028   3.423  0.8757 -0.6795  0.2998
 9341TIP3   OH249513   6.633   3.181  14.795  0.1073  0.1937  0.6367
 9341TIP3    H149514   6.578   3.114  14.836  0.0140 -0.6847 -0.8615
 9341TIP3    H249515   6.717   3.139  14.782 -0.5958 -0.5233 -2.4270
 9342TIP3   OH249516   4.991   3.360  13.455  0.2861  0.4221 -0.1460
 9342TIP3    H149517   4.922   3.426  13.446  0.1732  0.3403  0.0913
 9342TIP3    H249518   4.958   3.284  13.407  1.2135  1.1293 -1.9719
 9343TIP3   OH249519   2.118   6.559  14.550 -0.2847 -0.1612  0.3675
 9343TIP3    H149520   2.189   6.547  14.612  0.8689  0.0612 -0.8824
 9343TIP3    H249521   2.155   6.609  14.478 -0.6242 -3.0208 -2.0366
 9344TIP3   OH249522   2.765   6.640  13.762  0.6476  0.2074  0.6211
 9344TIP3    H149523   2.779   6.572  13.696  0.2732  1.3602 -0.6935
 9344TIP3    H249524   2.843   6.636  13.817  1.7903  0.3243 -0.9238
 9345TIP3   OH249525   1.131   4.002  15.688  0.3191  0.0394  0.0552
 9345TIP3    H149526   1.112   3.909  15.693  0.0219  0.0257 -1.0483
 9345TIP3    H249527   1.057   4.045  15.732 -1.1434 -0.1246 -2.1005
 9346TIP3   OH249528   1.774   4.201  12.206 -0.1753  0.4934 -0.2944
 9346TIP3    H149529   1.798   4.290  12.182  1.3220  0.2361  0.1823
 9346TIP3    H249530   1.699   4.211  12.264  0.3673  1.4894  0.2643
 9347TIP3   OH249531   5.032   1.811   3.125  0.0509 -0.3385  0.3420
 9347TIP3    H149532   5.092   1.824   3.052  0.2867  0.9371  0.7338
 9347TIP3    H249533   4.965   1.753   3.091  0.5322 -0.3293 -0.6683
 9348TIP3   OH249534   1.043   1.962   6.240 -0.3084  0.4474 -0.2898
 9348TIP3    H149535   1.127   2.004   6.224 -0.3290 -0.1933 -2.4828
 9348TIP3    H249536   0.992   1.980   6.160 -1.9286  0.0517  0.5986
 9349TIP3   OH249537   5.793   0.528   1.295  1.2709  0.1534  0.7641
 9349TIP3    H149538   5.876   0.575   1.305  1.2445  0.6949 -1.0645
 9349TIP3    H249539   5.803   0.480   1.212 -0.1268 -0.0066  0.6630
 9350TIP3   OH249540   4.391   4.286   1.349  0.4339  0.3584  0.4668
 9350TIP3    H149541   4.485   4.293   1.332  0.7280 -2.6315  0.2403
 9350TIP3    H249542   4.363   4.375   1.371  3.0927  1.5195 -0.4547
 9351TIP3   OH249543   3.050   0.240   0.474 -0.6257  0.1961  0.0103
 9351TIP3    H149544   3.005   0.209   0.553  0.6795  1.6654  1.3971
 9351TIP3    H249545   3.064   0.333   0.489  1.2515  0.1517 -1.1488
 9352TIP3   OH249546   1.246   0.184  15.086  0.3604 -0.1967 -0.0483
 9352TIP3    H149547   1.271   0.159  15.175 -1.0920 -2.3225 -0.1586
 9352TIP3    H249548   1.170   0.129  15.066  0.5420  0.3344 -2.5509
 9353TIP3   OH249549   3.504   4.297   4.840  0.3036  0.1251  0.1942
 9353TIP3    H149550   3.523   4.287   4.934  1.6984 -1.3867 -0.2049
 9353TIP3    H249551   3.441   4.228   4.821 -1.3418  1.5145  0.3147
 9354TIP3   OH249552   3.949   4.307  10.198  0.2276  0.1630 -0.2966
 9354TIP3    H149553   3.947   4.273  10.109 -1.0120 -0.8864  0.1066
 9354TIP3    H249554   3.899   4.389  10.193  0.5128  0.3196 -0.6399
 9355TIP3   OH249555   1.996   6.741  16.076  0.1855  0.4126  0.2566
 9355TIP3    H149556   2.064   6.770  16.137  0.6233  1.4590 -0.6941
 9355TIP3    H249557   1.915   6.748  16.125  0.5407  1.1846  0.7458
 9356TIP3   OH249558   2.111   2.050   4.845  0.3031  0.5073 -0.2737
 9356TIP3    H149559   2.066   2.082   4.923 -0.4495 -1.6306  0.2423
 9356TIP3    H249560   2.202   2.079   4.857 -0.0815  1.3521  0.7391
 9357TIP3   OH249561   2.806   3.340  16.162  0.0477  0.1573 -0.5612
 9357TIP3    H149562   2.867   3.358  16.091 -0.1364  2.7054 -0.1758
 9357TIP3    H249563   2.829   3.403  16.230 -0.1068 -1.8708  1.4778
 9358TIP3   OH249564   3.009   2.649  12.494  0.2481 -0.1737 -0.2608
 9358TIP3    H149565   3.022   2.580  12.430  0.1586 -1.3491  0.9428
 9358TIP3    H249566   3.074   2.716  12.472  0.2396 -0.5594 -1.5246
 9359TIP3   OH249567   1.892   1.034  13.485 -0.5151  0.2069  0.3983
 9359TIP3    H149568   1.936   0.957  13.449  0.4487 -0.1663  2.2575
 9359TIP3    H249569   1.844   1.071  13.411  0.9809 -0.7694 -1.1316
 9360TIP3   OH249570   1.027   4.375  12.786 -0.1620 -0.0770 -0.0587
 9360TIP3    H149571   0.955   4.431  12.815  0.0836  0.5852 -0.6747
 9360TIP3    H249572   0.985   4.296  12.754 -0.6163  0.2510 -0.2859
 9361TIP3   OH249573   5.457   4.689   2.967  0.3929 -0.1070 -0.0325
 9361TIP3    H149574   5.446   4.712   3.059 -2.3037  2.8352 -0.9386
 9361TIP3    H249575   5.515   4.757   2.932 -0.5249  0.2429 -0.9413
 9362TIP3   OH249576   3.786   6.489   1.081  0.1693  0.1222 -0.6887
 9362TIP3    H149577   3.731   6.479   1.003  0.4923  0.4891 -0.9658
 9362TIP3    H249578   3.728   6.467   1.154 -0.6010  1.3506 -0.9103
 9363TIP3   OH249579   4.496   5.574   6.325  0.2943  0.3806  0.5133
 9363TIP3    H149580   4.555   5.504   6.298 -0.4276  0.7400 -2.3597
 9363TIP3    H249581   4.549   5.628   6.384  2.0073 -0.6459 -0.0087
 9364TIP3   OH249582   0.830   5.743  16.940 -0.2223 -0.1691  0.5363
 9364TIP3    H149583   0.838   5.674  16.874 -1.8240 -0.4264  0.5673
 9364TIP3    H249584   0.874   5.819  16.901  0.0970 -0.7252 -0.2068
 9365TIP3   OH249585   1.337   5.886  12.655 -0.2494 -0.5801 -0.3300
 9365TIP3    H149586   1.287   5.822  12.604  0.1988  0.2876 -1.9425
 9365TIP3    H249587   1.419   5.841  12.677  0.2369 -0.4610 -1.8049
 9366TIP3   OH249588   5.835   1.320  12.412  0.3786 -0.0784  0.3401
 9366TIP3    H149589   5.758   1.277  12.374  0.3986  0.8927 -0.8374
 9366TIP3    H249590   5.876   1.252  12.466 -0.6185 -0.9703  0.0069
 9367TIP3   OH249591   6.195   4.799   1.391 -0.1530  0.1984 -0.6549
 9367TIP3    H149592   6.269   4.827   1.444  0.4691  0.5638 -1.6913
 9367TIP3    H249593   6.138   4.876   1.388 -0.1399  0.2101 -0.5984
 9368TIP3   OH249594   2.366   6.250  11.707 -0.3544 -0.4696 -0.5646
 9368TIP3    H149595   2.329   6.276  11.791  0.2157  0.2591 -0.5269
 9368TIP3    H249596   2.459   6.239  11.724 -0.5560 -2.5596 -0.5895
 9369TIP3   OH249597   3.384   5.422   6.234  0.0114  0.5142 -0.2922
 9369TIP3    H149598   3.428   5.347   6.193 -1.9693 -0.0457 -1.5613
 9369TIP3    H249599   3.429   5.499   6.200 -0.0589 -0.0330 -1.6949
 9370TIP3   OH249600   6.168   0.197  11.419  0.7183  0.3363 -0.5051
 9370TIP3    H149601   6.076   0.175  11.401  0.8857 -0.2584 -0.6521
 9370TIP3    H249602   6.168   0.225  11.511  0.6003 -0.9664 -0.0862
 9371TIP3   OH249603   5.843   1.285   3.166 -0.8936  0.2269  0.2356
 9371TIP3    H149604   5.817   1.260   3.254 -2.5998  3.1829  0.6995
 9371TIP3    H249605   5.843   1.381   3.167  0.8915  0.3833 -2.4909
 9372TIP3   OH249606   1.538   4.807   0.683 -0.2356  0.0395  0.0243
 9372TIP3    H149607   1.572   4.718   0.677 -1.4710 -0.4418 -0.2281
 9372TIP3    H249608   1.449   4.801   0.647 -1.0889  0.9553  1.8286
 9373TIP3   OH249609   2.729   3.201  13.162 -0.1302  0.0391 -0.2434
 9373TIP3    H149610   2.650   3.186  13.213  0.8236 -1.3090  0.9191
 9373TIP3    H249611   2.707   3.273  13.104 -2.1515 -0.2019  0.1573
 9374TIP3   OH249612   2.240   0.415   1.438  0.0131 -0.2710  0.5508
 9374TIP3    H149613   2.232   0.419   1.534 -0.2143  1.8360  0.4877
 9374TIP3    H249614   2.328   0.449   1.421 -0.3726  0.4643 -0.0268
 9375TIP3   OH249615   0.451   5.395   2.860  0.2561  0.3361  0.1086
 9375TIP3    H149616   0.489   5.313   2.893 -0.6212 -0.3495 -0.5190
 9375TIP3    H249617   0.364   5.369   2.828  0.1697  1.4256 -0.5661
 9376TIP3   OH249618   0.670   3.108  15.713  0.2351  0.6759 -0.2244
 9376TIP3    H149619   0.766   3.110  15.716  0.2097  2.4837  2.2752
 9376TIP3    H249620   0.646   3.182  15.656  0.2494 -0.9268 -2.4498
 9377TIP3   OH249621   5.503   2.562   5.420  0.0438 -0.2204 -0.2522
 9377TIP3    H149622   5.482   2.478   5.460 -1.3436 -0.3994 -1.2866
 9377TIP3    H249623   5.429   2.619   5.442  0.6764  0.5662 -0.0756
 9378TIP3   OH249624   1.199   2.384   3.710 -0.2126  0.1496 -0.3822
 9378TIP3    H149625   1.241   2.404   3.627 -0.5914 -0.3265 -0.6907
 9378TIP3    H249626   1.106   2.399   3.695 -0.2151  0.7365  0.1605
 9379TIP3   OH249627   1.255   1.761  13.739 -0.0090  0.1040  0.2016
 9379TIP3    H149628   1.202   1.824  13.690  0.6456  0.7931  0.3624
 9379TIP3    H249629   1.220   1.676  13.713  0.6803  0.4113 -1.9258
 9380TIP3   OH249630   0.712   3.221   5.181  0.5123  0.4322  1.1978
 9380TIP3    H149631   0.641   3.160   5.201  0.1363  0.4482 -0.0099
 9380TIP3    H249632   0.692   3.299   5.232 -0.4019  0.4679  0.8034
 9381TIP3   OH249633   2.416   0.564  12.059 -0.4664 -0.5748  0.3581
 9381TIP3    H149634   2.424   0.513  11.979 -1.1519 -1.4012  0.7919
 9381TIP3    H249635   2.506   0.588  12.082  0.0347 -2.6657  0.7947
 9382TIP3   OH249636   3.031   3.693  15.658  0.0437  0.2125 -0.1376
 9382TIP3    H149637   3.078   3.725  15.735 -1.7553  1.1407  0.6376
 9382TIP3    H249638   2.983   3.769  15.625 -1.1030 -0.7238 -0.7306
 9383TIP3   OH249639   3.424   2.581  11.176  0.2039  0.8271 -0.0781
 9383TIP3    H149640   3.484   2.573  11.101 -0.3834 -0.2516 -0.4495
 9383TIP3    H249641   3.446   2.666  11.214  0.9933  1.0919 -1.0592
 9384TIP3   OH249642   3.379   2.247  13.425 -0.0232 -0.1230  0.4500
 9384TIP3    H149643   3.420   2.166  13.394 -0.6000  0.3535 -1.7466
 9384TIP3    H249644   3.450   2.296  13.466  1.3528  0.0961 -2.0362
 9385TIP3   OH249645   6.020   0.799   3.718 -0.3679  0.7252 -0.2442
 9385TIP3    H149646   6.001   0.878   3.769 -2.1435  0.1301  0.0894
 9385TIP3    H249647   6.115   0.799   3.710  0.1418  0.5593  3.5985
 9386TIP3   OH249648   5.500   5.740   4.287 -0.4548  0.2537  0.4050
 9386TIP3    H149649   5.405   5.742   4.293 -0.6452  1.4822 -1.8685
 9386TIP3    H249650   5.527   5.831   4.293  0.6085 -0.0881  1.1359
 9387TIP3   OH249651   0.132   0.048   2.091  1.0002 -0.2627  0.3278
 9387TIP3    H149652   0.044   0.044   2.129  1.2553  1.2482  1.1311
 9387TIP3    H249653   0.190   0.018   2.160  1.3839  1.7091  0.9188
 9388TIP3   OH249654   2.882   4.275  12.579  0.2708 -0.8407  0.6055
 9388TIP3    H149655   2.896   4.185  12.606  2.0581 -1.0462 -0.7433
 9388TIP3    H249656   2.870   4.270  12.484  1.5716  0.3842  0.3297
 9389TIP3   OH249657   0.152   5.340   3.972  0.3240  0.2190  0.1879
 9389TIP3    H149658   0.119   5.265   3.921  0.0488  2.4685 -3.2744
 9389TIP3    H249659   0.219   5.379   3.916  0.8723  2.2496  2.1343
 9390TIP3   OH249660   0.381   6.724  15.327 -0.2123 -0.1000 -0.4116
 9390TIP3    H149661   0.324   6.779  15.381  0.8422  0.5680  0.0522
 9390TIP3    H249662   0.420   6.661  15.388  1.3618  0.9705 -0.2474
 9391TIP3   OH249663   4.349   0.469   1.697  0.3779 -0.5777 -0.1204
 9391TIP3    H149664   4.297   0.433   1.768  0.1577 -0.8820 -0.4300
 9391TIP3    H249665   4.292   0.463   1.620  0.9171 -1.0446 -0.4928
 9392TIP3   OH249666   3.469   1.213  12.322 -0.6596 -0.2737 -0.2149
 9392TIP3    H149667   3.514   1.182  12.401  0.2309  1.2193 -0.0876
 9392TIP3    H249668   3.443   1.133  12.276  1.1074 -1.2096  0.3043
 9393TIP3   OH249669   1.544   3.614   2.424  0.4509  0.1246  0.2231
 9393TIP3    H149670   1.541   3.574   2.338 -0.8973  0.5018  0.0755
 9393TIP3    H249671   1.599   3.692   2.413 -1.2599  1.2476 -0.7910
 9394TIP3   OH249672   6.029   1.293  14.938  0.5721 -0.2354  0.2948
 9394TIP3    H149673   5.998   1.211  14.900 -0.4736  0.3332 -0.1073
 9394TIP3    H249674   5.972   1.307  15.014  0.1399  0.5780 -0.1684
 9395TIP3   OH249675   6.303   5.460  12.783  0.0941  0.0444 -0.0888
 9395TIP3    H149676   6.226   5.412  12.813  0.2512 -0.1657 -0.0210
 9395TIP3    H249677   6.354   5.396  12.733 -1.1379  0.8791 -2.5743
 9396TIP3   OH249678   4.152   4.254  14.564  0.3723  0.4129  0.4324
 9396TIP3    H149679   4.210   4.329  14.575  0.5920  0.0317  2.0968
 9396TIP3    H249680   4.197   4.182  14.608 -0.3459 -0.4475 -0.1846
 9397TIP3   OH249681   4.435   0.449   4.282  0.5604 -0.1006  0.0365
 9397TIP3    H149682   4.486   0.430   4.361  1.2244 -0.5967 -0.5108
 9397TIP3    H249683   4.401   0.537   4.297  0.3217 -0.3497  1.0685
 9398TIP3   OH249684   2.274   6.728   6.439  0.3691 -0.1637 -0.5084
 9398TIP3    H149685   2.360   6.690   6.422 -0.1524 -1.3590 -0.5518
 9398TIP3    H249686   2.212   6.661   6.410 -0.5777  0.4445  0.0614
 9399TIP3   OH249687   1.332   6.408   5.389 -0.4912 -0.1781 -0.2483
 9399TIP3    H149688   1.246   6.395   5.427 -0.7267  0.5657 -0.5021
 9399TIP3    H249689   1.341   6.503   5.381  0.5697 -0.2153  0.2765
 9400TIP3   OH249690   5.380   1.100   5.384 -0.8240  0.1962 -0.3451
 9400TIP3    H149691   5.412   1.169   5.442 -2.6965  0.5795  0.3098
 9400TIP3    H249692   5.451   1.035   5.382  0.2797  1.3317  0.3799
 9401TIP3   OH249693   1.441   0.834   2.048 -0.1353  0.3253  0.1568
 9401TIP3    H149694   1.346   0.831   2.058 -0.1989  0.9255 -0.2222
 9401TIP3    H249695   1.458   0.915   1.999  0.4622 -0.5365 -1.0925
 9402TIP3   OH249696   1.102   4.911   4.115  0.2192  0.4058  0.3651
 9402TIP3    H149697   1.147   4.831   4.142 -1.5018 -0.3588  1.1133
 9402TIP3    H249698   1.106   4.968   4.191 -3.0247 -1.0353  1.7743
 9403TIP3   OH249699   0.887   5.629   6.013 -0.2245 -0.3634 -0.1967
 9403TIP3    H149700   0.862   5.670   6.095 -1.4189 -0.5141 -0.4682
 9403TIP3    H249701   0.808   5.584   5.983  0.0009  0.1768 -1.7153
 9404TIP3   OH249702   0.117   4.651  15.386 -0.4305 -0.0436 -0.5954
 9404TIP3    H149703   0.163   4.608  15.459 -1.1063 -0.7306 -0.5660
 9404TIP3    H249704   0.129   4.592  15.312  1.4592  1.3200 -1.4502
 9405TIP3   OH249705   2.963   5.418   5.362  0.1309  0.5556  0.1898
 9405TIP3    H149706   3.035   5.441   5.304  1.1342  0.0807  1.1940
 9405TIP3    H249707   2.923   5.502   5.385 -0.0942  0.7652 -0.9383
 9406TIP3   OH249708   1.090   1.434  12.453  0.2618  0.0568  0.4057
 9406TIP3    H149709   1.048   1.385  12.524  0.8871 -0.1090  0.6607
 9406TIP3    H249710   1.018   1.482  12.412 -0.3107 -0.8672  0.3205
 9407TIP3   OH249711   2.366   6.554   3.929 -0.3983 -0.2741  0.1931
 9407TIP3    H149712   2.416   6.498   3.869 -1.8785 -1.0852 -0.3152
 9407TIP3    H249713   2.380   6.643   3.894 -0.3102 -0.6177 -0.6876
 9408TIP3   OH249714   2.052   1.926  13.605  0.5301 -0.1532  0.6673
 9408TIP3    H149715   2.052   1.859  13.674 -0.7923  1.1485  2.0112
 9408TIP3    H249716   2.092   2.003  13.646  0.5117  0.3958 -0.3029
 9409TIP3   OH249717   1.197   3.358  16.760 -0.1917 -0.3364  0.0883
 9409TIP3    H149718   1.189   3.275  16.713  0.7012 -0.5962  0.3737
 9409TIP3    H249719   1.193   3.425  16.691 -1.8367 -0.5538 -0.0541
 9410TIP3   OH249720   6.379   3.390   4.216  0.2618  0.1488 -0.4820
 9410TIP3    H149721   6.437   3.315   4.206  2.7316  1.5927  1.6675
 9410TIP3    H249722   6.435   3.466   4.202 -0.4431  1.6943  3.7507
 9411TIP3   OH249723   3.488   4.046   2.764 -0.0687  0.3256  0.1615
 9411TIP3    H149724   3.395   4.053   2.743 -0.3071  0.8280  1.3149
 9411TIP3    H249725   3.524   4.132   2.743  0.1304  0.1532 -0.2188
 9412TIP3   OH249726   3.810   4.428  12.495 -0.9084  0.3537  0.1379
 9412TIP3    H149727   3.869   4.461  12.427 -0.2609  1.3550  1.1519
 9412TIP3    H249728   3.855   4.446  12.577 -1.2945 -1.5903  0.8241
 9413TIP3   OH249729   4.020   0.202  13.141 -0.5844 -0.4935  0.3768
 9413TIP3    H149730   4.011   0.172  13.051 -1.5456 -2.0026  0.9167
 9413TIP3    H249731   4.053   0.291  13.134  2.0079 -1.4650 -1.3754
 9414TIP3   OH249732   1.152   6.783   5.857 -0.4527 -0.4521  0.3803
 9414TIP3    H149733   1.081   6.838   5.890 -0.6504 -0.8318  0.5809
 9414TIP3    H249734   1.226   6.844   5.847 -1.5711  0.5947 -2.5976
 9415TIP3   OH249735   6.067   1.668   1.839  1.0286 -0.0996  0.2744
 9415TIP3    H149736   6.029   1.659   1.751  1.3497 -0.5481  0.1817
 9415TIP3    H249737   6.096   1.580   1.862  0.5385 -0.0744  1.0182
 9416TIP3   OH249738   2.944   1.191  11.796 -0.4357 -0.1260 -0.3064
 9416TIP3    H149739   2.882   1.136  11.749  0.9164 -1.0997 -0.9953
 9416TIP3    H249740   2.903   1.206  11.881 -1.8801 -0.2145 -0.9605
 9417TIP3   OH249741   1.361   5.791  16.045  0.0479  0.0666  0.0721
 9417TIP3    H149742   1.419   5.820  16.115  0.4201 -0.8067  0.1418
 9417TIP3    H249743   1.407   5.716  16.006 -0.1019  0.6082 -1.1765
 9418TIP3   OH249744   4.845   4.073  10.706  0.2114 -0.3056 -0.0066
 9418TIP3    H149745   4.775   4.104  10.648 -0.6092 -2.0126 -0.0058
 9418TIP3    H249746   4.925   4.090  10.657 -0.0531  2.6111  0.4143
 9419TIP3   OH249747   3.801   4.545   3.170  0.0478  0.0459 -0.3839
 9419TIP3    H149748   3.737   4.474   3.162 -0.6202  0.5623  0.2654
 9419TIP3    H249749   3.755   4.614   3.217  0.8651  0.7082 -0.5304
 9420TIP3   OH249750   3.348   1.306   0.120  0.9045 -0.3516 -0.3237
 9420TIP3    H149751   3.281   1.373   0.108 -0.4058 -1.1943  1.6724
 9420TIP3    H249752   3.429   1.355   0.131  0.0277  0.9261  0.7578
 9421TIP3   OH249753   5.137   5.637   0.904  0.0868  0.6624 -0.0730
 9421TIP3    H149754   5.137   5.553   0.858 -0.7596  1.5119 -1.6972
 9421TIP3    H249755   5.224   5.673   0.888  1.1215 -0.6206  2.1334
 9422TIP3   OH249756   4.381   0.870  12.723 -0.9473  0.2867  0.4391
 9422TIP3    H149757   4.448   0.832  12.779  0.7710  0.6290 -1.2945
 9422TIP3    H249758   4.347   0.796  12.672  0.6171  0.5930 -1.1370
 9423TIP3   OH249759   4.525   4.710   4.013 -0.2998 -0.3273  0.0902
 9423TIP3    H149760   4.486   4.756   4.087 -2.1195 -0.0705 -0.9683
 9423TIP3    H249761   4.540   4.621   4.044 -0.5612 -0.0849  0.9164
 9424TIP3   OH249762   5.010   4.585  16.196  0.3926  0.0910 -0.2494
 9424TIP3    H149763   4.976   4.508  16.150  0.7770 -1.1778  1.4830
 9424TIP3    H249764   5.089   4.554  16.241 -1.5413  0.3133  3.7629
 9425TIP3   OH249765   2.696   4.861  11.659 -0.1912  0.1041 -0.1677
 9425TIP3    H149766   2.727   4.772  11.678  0.2658  0.3555  0.2847
 9425TIP3    H249767   2.606   4.849  11.627 -0.7011 -0.4020  1.3851
 9426TIP3   OH249768   4.928   5.063   3.081 -0.1192 -0.2123  0.5475
 9426TIP3    H149769   4.852   5.022   3.041  0.1192 -0.9391  0.8314
 9426TIP3    H249770   4.916   5.157   3.065 -1.8134 -0.1531  1.8263
 9427TIP3   OH249771   2.326   0.434   2.026  0.3147 -0.4305 -0.2090
 9427TIP3    H149772   2.365   0.454   2.111 -1.0799  2.9943 -0.2185
 9427TIP3    H249773   2.398   0.443   1.964  0.6052  0.8821  0.2729
 9428TIP3   OH249774   2.445   4.421  12.558 -0.0560  0.6809  0.1706
 9428TIP3    H149775   2.518   4.383  12.608  0.9127  0.7218 -1.1672
 9428TIP3    H249776   2.369   4.411  12.616  0.6868 -0.8567  0.9479
 9429TIP3   OH249777   0.533   4.025   1.452  0.3528 -0.2131 -0.3984
 9429TIP3    H149778   0.606   3.990   1.504  0.6390  0.4364 -0.3450
 9429TIP3    H249779   0.470   3.954   1.448 -0.8794  0.4595  3.0825
 9430TIP3   OH249780   6.555   2.846   2.551 -0.3219  0.1795 -0.4946
 9430TIP3    H149781   6.501   2.877   2.623  1.2528  1.4111  0.2364
 9430TIP3    H249782   6.590   2.762   2.582 -1.2072 -0.2669 -0.6761
 9431TIP3   OH249783   5.211   6.790   4.516  0.1062 -0.1695 -0.0587
 9431TIP3    H149784   5.266   6.784   4.594 -1.1495 -2.2460  0.7841
 9431TIP3    H249785   5.238   6.870   4.473  0.7291  1.1958  2.6288
 9432TIP3   OH249786   6.082   2.591  13.427 -0.2687 -0.8987  0.1190
 9432TIP3    H149787   6.039   2.550  13.351 -1.4555 -1.5816  1.1184
 9432TIP3    H249788   6.109   2.517  13.481  1.5775 -0.4480 -0.1390
 9433TIP3   OH249789   1.805   5.164  15.021  0.0871  0.3209  0.0510
 9433TIP3    H149790   1.791   5.166  15.116 -1.1415 -0.7203 -0.0798
 9433TIP3    H249791   1.769   5.080  14.993  2.5876 -0.4901 -1.0347
 9434TIP3   OH249792   3.513   0.765  13.154  0.4121  0.1150  0.4099
 9434TIP3    H149793   3.436   0.730  13.198  0.2354  0.0207  0.0324
 9434TIP3    H249794   3.499   0.859  13.151 -0.9465 -0.0987 -1.9508
 9435TIP3   OH249795   6.831   3.100  16.861  0.7171 -0.6731  0.0880
 9435TIP3    H149796   6.828   3.153  16.781  2.6494  0.3154  0.6032
 9435TIP3    H249797   6.814   3.011  16.831 -0.4811 -0.0821 -1.1120
 9436TIP3   OH249798   0.137   4.034  13.116  0.3080 -0.0261  0.3905
 9436TIP3    H149799   0.174   4.096  13.179 -0.8447  0.9859  0.1349
 9436TIP3    H249800   0.077   4.088  13.063  0.4774 -1.0541 -0.8990
 9437TIP3   OH249801   6.717   1.110   0.022 -0.1868 -0.1109 -0.2365
 9437TIP3    H149802   6.724   1.036  -0.038 -0.4203 -0.1149 -0.2596
 9437TIP3    H249803   6.626   1.137   0.017 -0.4606 -0.7780  0.9129
 9438TIP3   OH249804   3.613   6.110  12.369 -0.0072  0.3512  0.0911
 9438TIP3    H149805   3.661   6.079  12.292 -1.1985  0.0402 -0.5519
 9438TIP3    H249806   3.651   6.061  12.442  0.2394 -0.3429 -0.4870
 9439TIP3   OH249807   5.375   1.161  13.261  0.4674 -0.3601  0.5796
 9439TIP3    H149808   5.360   1.111  13.182  0.9109  0.3997  0.0005
 9439TIP3    H249809   5.309   1.230  13.259  0.4212 -0.3889  0.9195
 9440TIP3   OH249810   5.534   2.025   4.067  0.9168 -0.0843 -0.1043
 9440TIP3    H149811   5.571   2.107   4.034  0.3908  0.0233 -0.4422
 9440TIP3    H249812   5.537   1.966   3.991  0.7574 -0.1940 -0.0254
 9441TIP3   OH249813   6.179   3.436   3.170 -0.2264 -0.1452  0.0662
 9441TIP3    H149814   6.155   3.352   3.131  0.5371  0.0790 -0.9377
 9441TIP3    H249815   6.115   3.450   3.239  0.3581 -2.1419  1.0968
 9442TIP3   OH249816   2.090   3.883  13.001 -0.7068 -0.1757 -0.6433
 9442TIP3    H149817   2.051   3.840  13.078  0.7622  0.6900  0.6414
 9442TIP3    H249818   2.160   3.937  13.037  1.6014 -1.5132 -2.8073
 9443TIP3   OH249819   1.977   4.083   5.220 -0.2873 -0.0634  0.0926
 9443TIP3    H149820   1.972   4.088   5.124  0.3677 -0.1419  0.0487
 9443TIP3    H249821   2.070   4.090   5.239 -0.1175 -2.7317  0.5636
 9444TIP3   OH249822   4.546   0.498  14.645  0.0118  0.7163 -0.1356
 9444TIP3    H149823   4.532   0.407  14.620  0.2296  0.9504 -1.2064
 9444TIP3    H249824   4.465   0.542  14.620  1.2085  1.4720 -3.2540
 9445TIP3   OH249825   4.552   4.441   4.034  0.3619  0.3098  0.3693
 9445TIP3    H149826   4.618   4.371   4.035  0.5526  0.4909  1.3310
 9445TIP3    H249827   4.470   4.395   4.018  0.7773  0.1624 -1.5960
 9446TIP3   OH249828   0.211   5.200   3.333 -0.4386 -0.5333  0.0247
 9446TIP3    H149829   0.234   5.114   3.367 -0.3691  0.2538  2.1526
 9446TIP3    H249830   0.155   5.238   3.401  1.3897  1.9571  0.3042
 9447TIP3   OH249831   2.007   1.459  14.963 -0.1932 -0.6612  0.5554
 9447TIP3    H149832   2.023   1.551  14.943  1.6821 -0.8791  0.9184
 9447TIP3    H249833   1.942   1.432  14.898  1.1327  0.2569 -1.2318
 9448TIP3   OH249834   2.133   2.277  13.053 -0.0359  0.0555  0.1544
 9448TIP3    H149835   2.117   2.182  13.049  0.3245  0.0279 -1.0724
 9448TIP3    H249836   2.128   2.298  13.146 -2.4661 -0.7528  0.2922
 9449TIP3   OH249837   5.910   4.972  13.297  0.1559 -0.5799  0.5847
 9449TIP3    H149838   5.882   5.002  13.384  0.1172 -0.5059  0.5463
 9449TIP3    H249839   5.877   4.882  13.292 -0.9468 -0.1609  0.1441
 9450TIP3   OH249840   1.120   4.250  14.589 -0.0956  0.4441 -0.5382
 9450TIP3    H149841   1.076   4.253  14.674  0.2291 -0.5408 -0.3242
 9450TIP3    H249842   1.048   4.254  14.526 -0.5163 -1.0023 -0.1927
 9451TIP3   OH249843   5.094   4.113   2.457  0.1873  0.1715 -0.1251
 9451TIP3    H149844   5.042   4.037   2.481  1.2458 -0.6319 -0.2959
 9451TIP3    H249845   5.075   4.127   2.364  0.8166 -0.5646 -0.3690
 9452TIP3   OH249846   2.233   4.283   5.536  0.6342 -0.1729 -0.6798
 9452TIP3    H149847   2.273   4.320   5.614 -1.9004  0.7657  0.2764
 9452TIP3    H249848   2.199   4.198   5.565  1.5802 -0.8028 -1.3754
 9453TIP3   OH249849   3.016   5.261   2.288 -0.4068  0.0278  0.8373
 9453TIP3    H149850   2.995   5.271   2.381 -0.1748 -2.2805  1.2037
 9453TIP3    H249851   2.932   5.261   2.244 -0.4602  2.3835  0.8603
 9454TIP3   OH249852   1.601   5.792   0.811  0.1366  0.3639 -0.5424
 9454TIP3    H149853   1.576   5.720   0.753  3.5502 -1.8848  0.4741
 9454TIP3    H249854   1.529   5.800   0.872 -0.8356 -1.4298 -1.3931
 9455TIP3   OH249855   6.821   4.664  12.163 -0.1429  0.1085  0.1704
 9455TIP3    H149856   6.857   4.676  12.075  2.5307 -0.3986  1.0972
 9455TIP3    H249857   6.787   4.574  12.163  0.1343  0.0045 -0.2395
 9456TIP3   OH249858   1.255   4.187   0.446  0.0914  0.0239 -0.1483
 9456TIP3    H149859   1.246   4.278   0.473  0.2658  0.1681 -0.5711
 9456TIP3    H249860   1.330   4.154   0.495  0.2173  0.1964 -0.2260
 9457TIP3   OH249861   5.469   5.113   1.340  0.4097 -0.6725  0.8549
 9457TIP3    H149862   5.422   5.111   1.423  0.6131 -3.1668  0.9872
 9457TIP3    H249863   5.555   5.078   1.360  3.1894  5.1065  0.9302
 9458TIP3   OH249864   4.786   4.597  13.688  0.5598 -0.5956 -0.6994
 9458TIP3    H149865   4.713   4.537  13.704 -0.3832  0.1897 -1.8798
 9458TIP3    H249866   4.746   4.684  13.683  1.7033 -0.0269 -0.5041
 9459TIP3   OH249867   4.360   2.209  13.549  0.1503 -0.2086 -0.4589
 9459TIP3    H149868   4.318   2.290  13.579 -0.7471 -0.2550 -1.5573
 9459TIP3    H249869   4.348   2.148  13.622 -1.5387 -0.1718 -0.6802
 9460TIP3   OH249870   0.537   6.027  13.269  0.0098  0.0536  0.1763
 9460TIP3    H149871   0.627   6.050  13.246 -0.6841  0.5513 -2.4264
 9460TIP3    H249872   0.498   6.110  13.298 -0.0012  0.1855 -0.2026
 9461TIP3   OH249873   4.814   1.575   4.871  0.3122 -0.1254 -0.6530
 9461TIP3    H149874   4.903   1.547   4.848  0.5250  1.7172 -2.3958
 9461TIP3    H249875   4.777   1.607   4.788 -1.8207 -0.4038  0.1272
 9462TIP3   OH249876   4.911   2.137   4.954  0.1332 -0.6961 -0.8844
 9462TIP3    H149877   4.859   2.216   4.942  0.4314 -0.4756 -0.7256
 9462TIP3    H249878   4.855   2.078   5.005  0.4195 -0.0808  0.1531
 9463TIP3   OH249879   3.589   2.177   4.814  0.1289 -0.2410  0.4527
 9463TIP3    H149880   3.596   2.085   4.838  1.4589 -0.3515 -0.2598
 9463TIP3    H249881   3.680   2.207   4.808 -0.2199  0.5701 -1.3732
 9464TIP3   OH249882   0.756   2.216   3.523  0.0628 -0.7728 -0.3894
 9464TIP3    H149883   0.712   2.132   3.539  0.5388 -1.1968 -1.2143
 9464TIP3    H249884   0.725   2.242   3.436  0.6834 -0.5980 -0.5631
 9465TIP3   OH249885   0.838   2.095   0.983  0.0749  0.0572 -0.1742
 9465TIP3    H149886   0.814   2.180   1.019  0.2336 -0.1826  0.5175
 9465TIP3    H249887   0.845   2.110   0.889 -0.1519  0.7473 -0.0875
 9466TIP3   OH249888   6.713   3.712  14.224 -0.7703  0.5712  0.6805
 9466TIP3    H149889   6.687   3.740  14.312  0.0447  1.3278  0.7020
 9466TIP3    H249890   6.690   3.619  14.220 -2.3712  0.9255  1.0853
 9467TIP3   OH249891   4.435   2.730   0.681 -0.4982 -0.2322 -0.3194
 9467TIP3    H149892   4.394   2.802   0.728  1.3024  1.8410 -1.7280
 9467TIP3    H249893   4.366   2.695   0.625 -1.2673  0.7929 -0.0348
 9468TIP3   OH249894   2.455   0.137  15.617  0.3267 -0.1179 -0.2684
 9468TIP3    H149895   2.393   0.087  15.670 -0.5072 -0.4395 -1.5176
 9468TIP3    H249896   2.423   0.228  15.623  1.0980  0.0950  0.9554
 9469TIP3   OH249897   2.393   0.236  12.541  0.4021  0.3580  0.1123
 9469TIP3    H149898   2.449   0.185  12.482  1.7327  1.3249  0.4989
 9469TIP3    H249899   2.368   0.313  12.491  0.7348  0.7061  0.4728
 9470TIP3   OH249900   0.582   6.755   5.091 -0.5411 -0.0012  0.1183
 9470TIP3    H149901   0.558   6.844   5.115 -1.4718 -0.2532  0.1749
 9470TIP3    H249902   0.642   6.727   5.159  0.2157  0.7737 -0.2123
 9471TIP3   OH249903   5.121   1.089  11.371 -0.2811  0.1703 -0.3889
 9471TIP3    H149904   5.102   1.155  11.305  0.0106 -0.6653 -1.3511
 9471TIP3    H249905   5.180   1.132  11.432  0.6713  0.5351 -1.5259
 9472TIP3   OH249906   4.625   2.942   3.668  0.2768  0.0026 -0.1768
 9472TIP3    H149907   4.664   3.005   3.606  2.8440 -0.2361  1.0474
 9472TIP3    H249908   4.637   2.984   3.754  2.2773 -2.1549  0.7007
 9473TIP3   OH249909   4.529   4.771   1.287  0.5863 -0.5918  0.2095
 9473TIP3    H149910   4.436   4.748   1.280  0.4026  0.0898  0.3556
 9473TIP3    H249911   4.542   4.838   1.220  1.1901 -1.3343 -0.4297
 9474TIP3   OH249912   4.347   6.020  15.466  0.8677 -0.1896 -0.9283
 9474TIP3    H149913   4.429   5.972  15.458  1.4500  0.4324  0.9094
 9474TIP3    H249914   4.281   5.959  15.434  1.6265 -2.1389  0.9640
 9475TIP3   OH249915   0.255   3.774   2.659  0.2368  0.4910 -0.3464
 9475TIP3    H149916   0.168   3.778   2.618  0.0543  2.1936  0.1141
 9475TIP3    H249917   0.272   3.864   2.687  0.9755 -0.3088  2.0469
 9476TIP3   OH249918   1.976   2.562  13.244 -0.5017 -0.2208  0.4710
 9476TIP3    H149919   1.977   2.558  13.149 -2.8959  0.4837  0.3509
 9476TIP3    H249920   1.942   2.477  13.272 -0.5504 -0.1433  0.6554
 9477TIP3   OH249921   0.789   0.836   0.746  0.6326  0.3991 -0.3614
 9477TIP3    H149922   0.798   0.810   0.838  2.8566  0.0893 -0.6157
 9477TIP3    H249923   0.846   0.912   0.737  3.6444 -1.8506 -2.2913
 9478TIP3   OH249924   3.938   1.899  11.277 -0.0992  0.1197  0.2952
 9478TIP3    H149925   3.930   1.980  11.227  0.5063 -0.7570 -1.2774
 9478TIP3    H249926   3.866   1.845  11.247  0.0750 -0.3050  0.6260
 9479TIP3   OH249927   5.859   2.088   0.223  0.5623 -0.1406 -0.1233
 9479TIP3    H149928   5.804   2.027   0.174 -0.3971  0.4409  0.2133
 9479TIP3    H249929   5.834   2.175   0.191  1.9316  0.1085 -0.6180
 9480TIP3   OH249930   2.172   6.233  14.563  0.3840  0.4123  0.0337
 9480TIP3    H149931   2.206   6.200  14.480  1.3269  0.5609  0.3440
 9480TIP3    H249932   2.200   6.324  14.566 -1.0453  0.8880 -0.2099
 9481TIP3   OH249933   2.454   4.750  14.647 -0.2660  0.6455 -0.4033
 9481TIP3    H149934   2.382   4.764  14.709  0.5995  0.9388  0.5608
 9481TIP3    H249935   2.424   4.793  14.567 -1.0098  1.1136  0.1058
 9482TIP3   OH249936   5.175   2.976  10.883  0.5722  0.1229 -0.4655
 9482TIP3    H149937   5.179   2.883  10.905 -0.8094  0.7586  3.1947
 9482TIP3    H249938   5.265   3.007  10.894  0.7431 -0.4865 -0.0730
 9483TIP3   OH249939   0.965   4.282  11.267  0.1648 -0.1018 -0.0644
 9483TIP3    H149940   0.992   4.289  11.175  1.2428 -1.0596  0.1599
 9483TIP3    H249941   0.894   4.345  11.276  1.1309  1.1983 -1.1480
 9484TIP3   OH249942   3.948   4.238   4.525 -0.6167 -0.4381  0.1299
 9484TIP3    H149943   4.002   4.172   4.481 -1.2366  0.5410 -2.2725
 9484TIP3    H249944   3.858   4.206   4.516 -0.7324 -0.4255  1.1170
 9485TIP3   OH249945   5.214   4.148  10.882 -0.8480 -0.6165  0.3561
 9485TIP3    H149946   5.309   4.151  10.875 -0.6964 -2.9068  0.7459
 9485TIP3    H249947   5.184   4.143  10.791 -0.5735 -0.6249  0.2638
 9486TIP3   OH249948   0.376   6.178  11.936 -0.2139 -0.3251 -0.0745
 9486TIP3    H149949   0.434   6.218  12.001 -0.7534 -0.7064  0.6474
 9486TIP3    H249950   0.412   6.090  11.923 -0.0429 -0.2120 -0.3787
 9487TIP3   OH249951   0.290   5.326  13.042  0.2772 -0.1163  0.0975
 9487TIP3    H149952   0.200   5.359  13.041 -0.0073 -0.7886  1.2731
 9487TIP3    H249953   0.281   5.232  13.027  0.7461 -0.2479  0.5946
 9488TIP3   OH249954   0.435   6.766   2.125 -0.1735 -0.1873  0.3591
 9488TIP3    H149955   0.417   6.765   2.031  0.1156  0.8088  0.2815
 9488TIP3    H249956   0.530   6.767   2.131 -0.0958  3.3797  0.5266
 9489TIP3   OH249957   4.759   3.848   0.565  0.0449  0.2161  0.2388
 9489TIP3    H149958   4.760   3.773   0.625  2.6226  1.4178  1.8653
 9489TIP3    H249959   4.754   3.924   0.622  0.5486  1.3701 -1.1924
 9490TIP3   OH249960   1.309   0.660  13.520 -0.2976 -0.0123  0.2546
 9490TIP3    H149961   1.323   0.754  13.515  0.7778 -0.1849 -0.2481
 9490TIP3    H249962   1.215   0.651  13.540 -0.4314  1.1490  0.2385
 9491TIP3   OH249963   4.867   3.218   3.155 -0.5718  0.0031 -0.8023
 9491TIP3    H149964   4.898   3.129   3.173  1.8249  0.9154 -0.0570
 9491TIP3    H249965   4.899   3.237   3.067  2.5715  1.4582  0.4853
 9492TIP3   OH249966   0.798   5.795   4.443  0.5308  0.9363  0.5275
 9492TIP3    H149967   0.894   5.798   4.449  0.7076 -0.0524 -1.2341
 9492TIP3    H249968   0.776   5.706   4.470  0.1048  1.1787  0.9721
 9493TIP3   OH249969   0.031   4.459  14.141  0.0919  0.3734 -0.0238
 9493TIP3    H149970  -0.056   4.499  14.137  0.0217  0.2066 -0.1772
 9493TIP3    H249971   0.059   4.452  14.050  0.9053  1.7875  0.0822
 9494TIP3   OH249972   5.813   1.942  12.059  0.3783 -0.0136 -0.5490
 9494TIP3    H149973   5.811   1.944  11.963 -0.0859  0.6641 -0.5382
 9494TIP3    H249974   5.767   2.022  12.085  0.0034 -0.4743  0.2433
 9495TIP3   OH249975   5.163   6.741   3.728  0.0321  0.1606  0.1614
 9495TIP3    H149976   5.141   6.648   3.734 -0.8834  0.3393 -0.3447
 9495TIP3    H249977   5.088   6.781   3.685  0.1490  1.2415  0.9341
 9496TIP3   OH249978   2.043   6.732  15.794  0.0272 -0.1674  0.1896
 9496TIP3    H149979   2.020   6.709  15.884  0.2396  1.1092  0.5949
 9496TIP3    H249980   1.971   6.788  15.764 -1.3002 -2.5450 -1.3422
 9497TIP3   OH249981   1.581   2.869   4.920  0.2570  0.0034  0.6559
 9497TIP3    H149982   1.644   2.827   4.862  1.6490  3.7715 -0.8799
 9497TIP3    H249983   1.497   2.830   4.898  1.0196  0.0038 -2.6866
 9498TIP3   OH249984   6.756   3.035   3.198  0.2206  0.4804 -0.2617
 9498TIP3    H149985   6.691   3.105   3.207  0.2803  0.8866 -2.4812
 9498TIP3    H249986   6.731   2.970   3.264 -1.5515  1.3089 -0.0707
 9499TIP3   OH249987   3.081   5.038   3.800 -0.1060  0.6394  0.5218
 9499TIP3    H149988   3.124   5.119   3.828  1.1059  0.0779  0.3341
 9499TIP3    H249989   3.017   5.065   3.735  0.0896  1.4766  0.6730
 9500TIP3   OH249990   2.665   3.366  12.966  0.2019 -0.1674 -0.1867
 9500TIP3    H149991   2.591   3.311  12.942 -0.2110  0.3627 -0.1297
 9500TIP3    H249992   2.640   3.454  12.939  0.2954  0.2196  0.9259
 9501TIP3   OH249993   2.171   2.020  11.574 -0.7024  0.0516 -0.2460
 9501TIP3    H149994   2.190   1.926  11.565  1.0097  0.4482 -1.2474
 9501TIP3    H249995   2.100   2.024  11.638 -0.4401 -1.8921  0.2378
 9502TIP3   OH249996   0.358   3.758  14.182  0.6232  0.1562  0.1860
 9502TIP3    H149997   0.275   3.801  14.202 -0.1475 -1.5054  0.7638
 9502TIP3    H249998   0.358   3.749  14.087  0.3772  0.5927  0.1429
 9503TIP3   OH249999   2.545   0.018   1.520 -0.4271  0.1600 -0.4141
 9503TIP3    H150000   2.625   0.028   1.469  0.8258 -0.2944  1.3426
 9503TIP3    H250001   2.477  -0.001   1.456  0.1465  3.7692 -2.3393
 9504TIP3   OH250002   6.016   1.486  11.070 -0.2968  0.0580  0.1042
 9504TIP3    H150003   6.105   1.518  11.055 -1.5640  3.4597 -0.9858
 9504TIP3    H250004   6.011   1.405  11.019  2.2358 -0.4063  0.4735
 9505TIP3   OH250005   1.261   1.716   1.839  0.1948  0.3305  0.2628
 9505TIP3    H150006   1.317   1.743   1.911  0.2049 -1.3992  0.9335
 9505TIP3    H250007   1.243   1.623   1.855 -2.3059  0.6378 -0.2770
 9506TIP3   OH250008   2.006   1.811   4.293  0.2325  0.2708  0.4037
 9506TIP3    H150009   1.949   1.738   4.268  0.0638  0.4943  0.1238
 9506TIP3    H250010   1.948   1.887   4.293  0.3775  0.3849  0.8263
 9507TIP3   OH250011   2.212   6.173   3.769 -0.0763 -0.1771  0.0443
 9507TIP3    H150012   2.194   6.085   3.803  0.3017  0.4203  1.9364
 9507TIP3    H250013   2.307   6.180   3.768 -0.0967  0.7271  1.4468
 9508TIP3   OH250014   3.510   2.133  13.737 -0.3710 -0.1567  0.2208
 9508TIP3    H150015   3.472   2.064  13.683  1.8685 -1.1063 -0.2885
 9508TIP3    H250016   3.581   2.169  13.683 -0.1941  1.1618  1.2693
 9509TIP3   OH250017   6.232   5.943  11.359  0.0425  0.3561  0.5372
 9509TIP3    H150018   6.179   5.979  11.431  0.7106 -0.1707  1.3032
 9509TIP3    H250019   6.295   6.013  11.340 -1.0062  1.0596 -0.5008
 9510TIP3   OH250020   6.812   4.539  11.764  0.1876  0.4920  0.1707
 9510TIP3    H150021   6.839   4.600  11.833 -0.1898 -0.9320  1.6501
 9510TIP3    H250022   6.729   4.574  11.732  0.1577  0.9505  0.7336
 9511TIP3   OH250023   1.770   3.284  14.929 -0.5267  0.1426  0.1812
 9511TIP3    H150024   1.804   3.303  15.016  1.1635 -0.0511 -0.4049
 9511TIP3    H250025   1.700   3.220  14.945 -0.9403  0.8675  1.4572
 9512TIP3   OH250026   1.170   2.486  14.053 -0.0503 -0.1562 -0.1622
 9512TIP3    H150027   1.142   2.536  13.976 -0.4508 -1.5516 -0.9757
 9512TIP3    H250028   1.265   2.499  14.057 -0.3705  2.2862  0.8927
 9513TIP3   OH250029   2.341   3.626   6.067  0.5314  0.4703 -0.3656
 9513TIP3    H150030   2.367   3.633   6.160 -1.1763  0.3384  0.1470
 9513TIP3    H250031   2.254   3.664   6.064  0.3426 -0.0425 -1.8358
 9514TIP3   OH250032   0.855   6.625   4.735 -0.0708 -0.1781  0.4281
 9514TIP3    H150033   0.897   6.585   4.811 -1.6135  0.0090  1.4193
 9514TIP3    H250034   0.833   6.552   4.678 -2.8139 -0.8817  2.1996
 9515TIP3   OH250035   1.107   3.889  16.153 -0.2245 -0.3030  0.3927
 9515TIP3    H150036   1.043   3.867  16.086  0.1551  2.7897 -1.1744
 9515TIP3    H250037   1.184   3.838  16.130 -1.4340 -2.6669  1.2296
 9516TIP3   OH250038   5.337   3.144  13.429  0.5529 -0.3577 -0.4046
 9516TIP3    H150039   5.384   3.075  13.382  0.5603 -0.9624  0.4638
 9516TIP3    H250040   5.397   3.169  13.499  0.8861  1.1037 -1.1842
 9517TIP3   OH250041   4.252   2.230  12.754 -0.3256 -0.1982 -0.6515
 9517TIP3    H150042   4.281   2.148  12.714 -0.3142 -1.1119  1.1427
 9517TIP3    H250043   4.323   2.292  12.736  0.1522 -0.8756 -1.1208
 9518TIP3   OH250044   3.901   5.913   0.566  0.3083  0.0381  0.2953
 9518TIP3    H150045   3.814   5.913   0.528  1.0050  0.0890 -1.4033
 9518TIP3    H250046   3.889   5.946   0.655 -1.3581  0.2524  0.0171
 9519TIP3   OH250047   3.469   4.440   2.306  0.2923 -0.1557  0.0320
 9519TIP3    H150048   3.445   4.496   2.232  0.3841 -1.8030 -1.2964
 9519TIP3    H250049   3.543   4.389   2.275  0.2959 -0.9450  1.2452
 9520TIP3   OH250050   2.869   5.460  14.552 -0.1583 -0.1472  0.6287
 9520TIP3    H150051   2.779   5.439  14.529 -0.4019 -1.1671  2.3078
 9520TIP3    H250052   2.915   5.376  14.547 -0.0380 -0.2636  2.7929
 9521TIP3   OH250053   4.853   5.211  12.618  0.2718  0.2359  0.5887
 9521TIP3    H150054   4.781   5.166  12.574  1.2991 -2.1425  1.1693
 9521TIP3    H250055   4.907   5.246  12.547 -1.0637  1.4803  0.1432
 9522TIP3   OH250056   5.696   1.544  13.100  0.2849  0.0052 -0.7603
 9522TIP3    H150057   5.723   1.636  13.094 -2.6309  0.8751 -2.1064
 9522TIP3    H250058   5.696   1.526  13.194  0.4678  1.5212 -0.4352
 9523TIP3   OH250059   2.683   2.113  15.990  0.1048 -0.2702 -0.4255
 9523TIP3    H150060   2.615   2.150  15.934 -1.7905 -1.8535  0.7161
 9523TIP3    H250061   2.699   2.180  16.057 -1.5261 -0.5038  0.2265
 9524TIP3   OH250062   5.884   5.676  16.346  0.3626  0.2241 -0.1499
 9524TIP3    H150063   5.934   5.758  16.349  0.8042  0.1023 -2.3144
 9524TIP3    H250064   5.802   5.696  16.391  0.9811  1.4598  0.4756
 9525TIP3   OH250065   5.797   5.106  13.893 -0.5115  0.3171 -0.6477
 9525TIP3    H150066   5.818   5.025  13.938 -1.0223 -0.5143 -1.8460
 9525TIP3    H250067   5.708   5.126  13.921 -0.0664  0.9689  0.3427
 9526TIP3   OH250068   5.169   0.010  12.343 -0.1878 -0.0616  0.3461
 9526TIP3    H150069   5.208  -0.077  12.332  0.3126  0.1062  0.7369
 9526TIP3    H250070   5.233   0.069  12.304  0.0336  0.2308  1.1199
 9527TIP3   OH250071   1.770   5.158  13.160  0.1848 -0.1611  0.1227
 9527TIP3    H150072   1.857   5.197  13.157 -0.2035  0.7892  0.9617
 9527TIP3    H250073   1.778   5.085  13.222  0.6162 -0.7124 -0.5642
 9528TIP3   OH250074   0.043   6.489  16.666  0.3070 -0.2890  0.5535
 9528TIP3    H150075  -0.010   6.493  16.746 -2.2673  1.1249 -1.0634
 9528TIP3    H250076   0.080   6.577  16.657 -0.9402  0.1526 -0.6768
 9529TIP3   OH250077   6.431   3.834   5.127 -0.3167  0.0600 -0.6025
 9529TIP3    H150078   6.523   3.847   5.103 -0.4137  2.3377  0.0439
 9529TIP3    H250079   6.425   3.870   5.215 -2.2905  2.1721 -1.5061
 9530TIP3   OH250080   6.462   5.468  16.658  0.4980 -0.3259  0.5083
 9530TIP3    H150081   6.443   5.384  16.700 -1.7337  0.4205  1.1640
 9530TIP3    H250082   6.535   5.449  16.598  1.4631 -2.2146  2.1522
 9531TIP3   OH250083   3.694   2.999   4.062  0.3093  0.1341 -0.1680
 9531TIP3    H150084   3.750   3.064   4.020  1.5141 -1.1272 -0.6101
 9531TIP3    H250085   3.646   3.047   4.130 -0.1178  1.7928 -1.5835
 9532TIP3   OH250086   5.909   2.569  11.459 -0.1114 -0.0513  0.9825
 9532TIP3    H150087   5.897   2.562  11.554 -2.7973  0.5435  0.7807
 9532TIP3    H250088   5.847   2.506  11.422  0.1454  0.4538 -0.3734
 9533TIP3   OH250089   1.373   5.555  10.891 -0.6153  0.1109 -0.1656
 9533TIP3    H150090   1.342   5.567  10.801  0.1077  0.6305 -0.3539
 9533TIP3    H250091   1.312   5.607  10.943 -1.6532 -0.9980 -0.2217
 9534TIP3   OH250092   2.118   0.370   5.749 -0.4175 -0.2791 -0.3423
 9534TIP3    H150093   2.118   0.463   5.772 -0.0126 -0.0452 -1.2340
 9534TIP3    H250094   2.163   0.366   5.665 -0.8021 -1.2371 -0.5186
 9535TIP3   OH250095   6.605   0.973   2.632  0.2789 -0.0858  0.1211
 9535TIP3    H150096   6.588   1.041   2.567 -1.1574 -0.7947 -0.3020
 9535TIP3    H250097   6.614   0.893   2.581 -1.0023 -0.6767  0.7685
 9536TIP3   OH250098   4.617   6.773   0.361  0.3772  0.6133 -0.4478
 9536TIP3    H150099   4.578   6.861   0.365  0.2023  0.5507 -0.7820
 9536TIP3    H250100   4.711   6.789   0.375  0.0943  0.6162  1.9316
 9537TIP3   OH250101   1.619   2.698   1.771 -0.4984 -0.2228  0.7460
 9537TIP3    H150102   1.569   2.751   1.709 -1.0708  0.0939  1.4759
 9537TIP3    H250103   1.641   2.758   1.842  1.7224 -0.1007  0.0327
 9538TIP3   OH250104   4.097   5.470  16.068  0.1447 -0.2197 -0.0346
 9538TIP3    H150105   4.070   5.444  16.156  1.5034 -1.2443  0.0976
 9538TIP3    H250106   4.105   5.566  16.074 -2.2283  0.0238  0.2216
 9539TIP3   OH250107   2.131   5.220   1.166 -0.2532  0.8728  0.3861
 9539TIP3    H150108   2.058   5.202   1.226  0.8925 -0.6161  1.4344
 9539TIP3    H250109   2.144   5.314   1.171 -2.1077  1.1659  0.1539
 9540TIP3   OH250110   2.549   6.480  12.487 -0.5011 -0.6691  0.0443
 9540TIP3    H150111   2.617   6.517  12.430  0.4432 -1.3499  0.6838
 9540TIP3    H250112   2.471   6.474  12.432 -0.1397  0.4634 -0.6072
 9541TIP3   OH250113   4.127   4.898  14.720  0.1373 -0.0243  0.5136
 9541TIP3    H150114   4.181   4.831  14.762  2.0490  0.0304 -1.6290
 9541TIP3    H250115   4.160   4.981  14.756  0.2785 -0.0785  0.5121
 9542TIP3   OH250116   1.113   0.149  11.058  0.2339  0.3772  0.2714
 9542TIP3    H150117   1.021   0.151  11.032 -0.8648 -0.3830  3.6214
 9542TIP3    H250118   1.159   0.188  10.984 -2.3540 -1.9234 -2.8627
 9543TIP3   OH250119   4.142   3.816  12.372  0.1761  0.5061  0.4301
 9543TIP3    H150120   4.160   3.902  12.410  1.8496 -0.7503  2.6790
 9543TIP3    H250121   4.089   3.771  12.438 -0.8372 -0.1797 -0.7997
 9544TIP3   OH250122   5.939   0.006   5.973  0.1608  0.3449 -0.0617
 9544TIP3    H150123   6.000   0.049   6.033 -0.2782  1.4142 -0.3433
 9544TIP3    H250124   5.852   0.026   6.009 -0.0539 -1.2766  0.4128
 9545TIP3   OH250125   4.530   3.337  11.298  0.3393  0.2482  0.8198
 9545TIP3    H150126   4.506   3.312  11.387 -0.5283 -2.8009 -0.1530
 9545TIP3    H250127   4.446   3.355  11.255  0.5003 -1.0304 -0.0719
 9546TIP3   OH250128   5.137   2.976  12.294  0.1595 -0.1403  0.0185
 9546TIP3    H150129   5.231   2.997  12.293  0.4131 -0.9252  1.7844
 9546TIP3    H250130   5.093   3.060  12.296  0.7417  0.2692 -2.0903
 9547TIP3   OH250131   5.361   2.756   5.532 -0.2622  0.6442  0.2049
 9547TIP3    H150132   5.278   2.802   5.521 -1.1048 -0.7089  0.7289
 9547TIP3    H250133   5.424   2.825   5.555 -1.7762  1.3850  2.4044
 9548TIP3   OH250134   0.080   0.271   3.444  0.5429 -0.6949 -0.0165
 9548TIP3    H150135   0.015   0.202   3.430  0.3838 -0.2566 -1.5445
 9548TIP3    H250136   0.060   0.303   3.532 -1.7531 -0.1404 -0.6580
 9549TIP3   OH250137   6.626   3.802   6.054  0.4867  0.2125 -0.7226
 9549TIP3    H150138   6.638   3.729   6.115 -1.9733  0.6881  0.4605
 9549TIP3    H250139   6.534   3.825   6.062  0.9234  2.7220 -1.9156
 9550TIP3   OH250140   2.287   0.134  16.187 -0.8095 -0.2173 -0.3590
 9550TIP3    H150141   2.249   0.183  16.114 -1.1103 -1.0924 -0.7984
 9550TIP3    H250142   2.350   0.195  16.226 -1.1254  0.4947 -0.9356
 9551TIP3   OH250143   4.772   5.012  13.784 -0.2083  0.4198  0.1330
 9551TIP3    H150144   4.696   4.967  13.747  0.1440 -0.0197 -0.0705
 9551TIP3    H250145   4.845   4.985  13.728  0.0649  1.0030  0.1973
 9552TIP3   OH250146   3.310   5.486   0.250  1.0108  0.4347 -0.3773
 9552TIP3    H150147   3.388   5.525   0.289  0.5424  0.7774  0.2279
 9552TIP3    H250148   3.327   5.487   0.156  1.7497  0.4697 -0.2481
 9553TIP3   OH250149   0.295   0.627  12.268 -0.6626  0.0130 -0.2581
 9553TIP3    H150150   0.216   0.636  12.214 -0.5194  0.2779 -0.4254
 9553TIP3    H250151   0.280   0.684  12.343  0.1292  1.4828 -1.1858
 9554TIP3   OH250152   3.836   4.550   2.465 -0.7525  0.8164 -0.1583
 9554TIP3    H150153   3.876   4.618   2.518  0.2315  0.5958 -0.6018
 9554TIP3    H250154   3.905   4.522   2.405 -1.8742  1.1794 -1.6770
 9555TIP3   OH250155   4.729   0.925  12.285  0.1841  0.4589  0.4271
 9555TIP3    H150156   4.634   0.940  12.284 -0.2148 -1.6974  0.1193
 9555TIP3    H250157   4.744   0.870  12.362  1.2454  1.0441  0.6577
 9556TIP3   OH250158   6.101   4.254  13.671 -0.1486 -0.1770 -0.0210
 9556TIP3    H150159   6.028   4.287  13.725 -0.1314 -0.1014 -0.0432
 9556TIP3    H250160   6.089   4.159  13.669 -2.3677  0.0030 -2.9757
 9557TIP3   OH250161   6.597   3.375  15.000  0.0454 -0.0760 -0.8845
 9557TIP3    H150162   6.545   3.301  15.031  0.1428  0.6286  1.0842
 9557TIP3    H250163   6.619   3.353  14.909  0.6554 -2.7823 -0.1671
 9558TIP3   OH250164   1.476   1.956   1.080  0.0208  0.3108  0.4662
 9558TIP3    H150165   1.561   1.995   1.061 -0.8706  2.6590  0.9370
 9558TIP3    H250166   1.473   1.953   1.176  0.4716 -1.9851  0.4503
 9559TIP3   OH250167   1.392   2.367   5.267 -0.3528 -0.3491  0.1059
 9559TIP3    H150168   1.404   2.452   5.308 -0.7655 -0.4288  0.4011
 9559TIP3    H250169   1.375   2.387   5.174  0.8837 -0.1866 -0.0962
 9560TIP3   OH250170   2.442   6.121  13.504 -0.6019  0.2512  0.2925
 9560TIP3    H150171   2.447   6.216  13.499 -1.5396  0.3995  1.6817
 9560TIP3    H250172   2.357   6.099  13.465 -0.9714  0.1064  1.1633
 9561TIP3   OH250173   2.470   1.182   4.933 -0.3989  0.4091  0.2503
 9561TIP3    H150174   2.507   1.268   4.910  0.3644 -0.4947 -2.2631
 9561TIP3    H250175   2.379   1.202   4.957 -0.1098  1.9689  0.1904
 9562TIP3   OH250176   0.039   4.885  12.745  0.2633  0.0188  0.4582
 9562TIP3    H150177  -0.001   4.831  12.676 -0.3368  1.8851 -0.7491
 9562TIP3    H250178  -0.031   4.896  12.809  0.1930 -0.1346  0.4104
 9563TIP3   OH250179   6.076   2.625   3.598  0.5716 -0.1664  0.1270
 9563TIP3    H150180   6.022   2.690   3.643 -0.9146  0.9528 -3.0356
 9563TIP3    H250181   6.074   2.549   3.657  0.3426  1.7317  2.7757
 9564TIP3   OH250182   1.343   1.980  10.998 -0.1382 -0.1352 -0.2702
 9564TIP3    H150183   1.312   2.032  11.072 -0.2853  1.5839 -1.4853
 9564TIP3    H250184   1.430   2.014  10.978 -0.2912 -0.2277 -1.1725
 9565TIP3   OH250185   2.867   6.769   0.427  0.3901  0.3813 -0.6313
 9565TIP3    H150186   2.876   6.767   0.523 -2.5980 -0.6317 -0.2513
 9565TIP3    H250187   2.819   6.849   0.409 -0.8311 -0.4139 -1.0242
 9566TIP3   OH250188   0.703   5.392  14.412 -0.6895 -0.1536 -0.7010
 9566TIP3    H150189   0.636   5.460  14.407 -1.1396 -0.2084  2.4135
 9566TIP3    H250190   0.660   5.319  14.457  1.1077 -0.6396  0.3372
 9567TIP3   OH250191   5.980   2.290   2.591 -0.0409 -0.4197  0.0503
 9567TIP3    H150192   6.036   2.333   2.656 -0.0849  1.5756 -1.1192
 9567TIP3    H250193   5.989   2.345   2.513 -1.9103 -1.3243 -0.8540
 9568TIP3   OH250194   2.439   5.300   1.056 -0.2166  0.3158 -0.2787
 9568TIP3    H150195   2.379   5.346   1.114 -1.3485 -1.0891 -0.2895
 9568TIP3    H250196   2.415   5.208   1.064  0.2800 -0.0225 -2.1997
 9569TIP3   OH250197   1.692   1.703   5.118 -0.3820  0.6155  0.6416
 9569TIP3    H150198   1.681   1.628   5.176  0.7286  0.3475  0.5435
 9569TIP3    H250199   1.669   1.669   5.031 -0.5053  0.5622  0.6956
 9570TIP3   OH250200   5.647   1.315   4.894 -0.2827  0.1054  0.0480
 9570TIP3    H150201   5.650   1.386   4.829  0.5708  0.5643  0.5697
 9570TIP3    H250202   5.591   1.349   4.964 -0.0802  0.1705  0.1804
 9571TIP3   OH250203   4.418   0.448   0.415 -0.1594 -0.2743  0.0617
 9571TIP3    H150204   4.446   0.504   0.343 -0.2726 -0.7572 -0.3667
 9571TIP3    H250205   4.322   0.451   0.412 -0.1766  0.4156  0.7660
 9572TIP3   OH250206   0.113   0.572  12.791  0.2492 -0.3299 -0.7992
 9572TIP3    H150207   0.128   0.666  12.777  1.3853 -0.5161 -0.9330
 9572TIP3    H250208   0.062   0.568  12.872  1.0336  0.3708 -0.2523
 9573TIP3   OH250209   1.940   2.657   6.275  0.2508  0.3756  0.4421
 9573TIP3    H150210   2.012   2.664   6.212 -2.9982  1.6584 -3.6185
 9573TIP3    H250211   1.932   2.746   6.311  0.2178  0.4186  0.3282
 9574TIP3   OH250212   5.720   1.857  15.069  0.0765 -0.0061 -0.0557
 9574TIP3    H150213   5.723   1.939  15.019 -1.2016 -0.5611 -1.1187
 9574TIP3    H250214   5.679   1.881  15.152  1.3960  0.7566  0.4054
 9575TIP3   OH250215   4.260   5.242  14.157 -0.3389 -0.0023  0.3827
 9575TIP3    H150216   4.329   5.185  14.192 -0.5423 -0.1945  0.4706
 9575TIP3    H250217   4.296   5.275  14.074 -0.5546 -0.9392 -0.1064
 9576TIP3   OH250218   6.140   6.590   3.589 -0.1900  0.1903 -0.4251
 9576TIP3    H150219   6.197   6.523   3.551  0.3269  1.7629 -2.6136
 9576TIP3    H250220   6.193   6.630   3.658  0.2121 -0.3574 -0.4055
 9577TIP3   OH250221   2.370   4.187   3.738 -0.6495 -0.8576 -0.2475
 9577TIP3    H150222   2.433   4.132   3.786  0.4331 -1.7145 -2.4892
 9577TIP3    H250223   2.422   4.262   3.709 -1.3769 -0.1584  0.2405
 9578TIP3   OH250224   2.748   1.906   1.252  0.1802 -0.0650  0.5688
 9578TIP3    H150225   2.838   1.928   1.277 -0.4141  1.3858  1.5527
 9578TIP3    H250226   2.709   1.870   1.332 -0.8448  1.7555  0.9535
 9579TIP3   OH250227   3.249   0.584   5.581  0.5236 -0.7840 -0.3228
 9579TIP3    H150228   3.232   0.540   5.664 -0.2183 -1.5480 -0.8656
 9579TIP3    H250229   3.241   0.677   5.601  0.0274 -0.9742  0.3971
 9580TIP3   OH250230   5.541   4.167  16.143  0.2386  0.1036 -0.0802
 9580TIP3    H150231   5.450   4.197  16.140  0.2678  0.1354 -1.1160
 9580TIP3    H250232   5.553   4.118  16.062  0.9562 -0.4793  0.3671
 9581TIP3   OH250233   1.132   4.179  16.198  0.5004 -0.2281  0.0851
 9581TIP3    H150234   1.226   4.169  16.183  0.3323 -0.6907 -0.7103
 9581TIP3    H250235   1.098   4.090  16.198  0.1494 -0.1049  1.0265
 9582TIP3   OH250236   4.002   0.274  14.721  0.0882 -0.2555 -0.1783
 9582TIP3    H150237   4.003   0.234  14.808 -0.1320  1.4903  0.6739
 9582TIP3    H250238   4.092   0.301  14.705  0.2717 -1.2055 -0.8264
 9583TIP3   OH250239   2.911   2.722   0.882 -0.0002 -0.2280 -0.1708
 9583TIP3    H150240   2.855   2.645   0.890 -0.3888  0.2074  1.6883
 9583TIP3    H250241   2.956   2.728   0.966  0.8765  0.9269 -0.7008
 9584TIP3   OH250242   3.347   2.701   1.174  0.3198  0.0196 -0.3611
 9584TIP3    H150243   3.421   2.648   1.144 -0.1234 -0.2920 -0.9354
 9584TIP3    H250244   3.270   2.661   1.133 -0.2228  0.0882  0.5457
 9585TIP3   OH250245   2.997   4.057  12.141  0.2929  0.2285 -0.2427
 9585TIP3    H150246   2.946   4.138  12.142 -0.4490 -0.2309 -0.1935
 9585TIP3    H250247   2.935   3.990  12.112 -0.5278 -1.2637  4.1991
 9586TIP3   OH250248   3.531   2.142   3.030  0.3033  0.0213 -0.5798
 9586TIP3    H150249   3.594   2.188   3.086 -0.5661 -0.2080  0.6320
 9586TIP3    H250250   3.582   2.116   2.953  1.1315  1.7914 -0.6626
 9587TIP3   OH250251   6.612   5.187  12.886  0.0682 -0.4425 -0.0703
 9587TIP3    H150252   6.658   5.202  12.804 -0.6958  0.0194 -0.4305
 9587TIP3    H250253   6.543   5.124  12.865 -1.3491  1.0940 -0.2690
 9588TIP3   OH250254   3.961   6.339  11.875 -0.1933 -0.1307  0.1038
 9588TIP3    H150255   3.868   6.322  11.883 -0.0885 -0.3065  1.1226
 9588TIP3    H250256   3.994   6.334  11.965  0.6217  0.9213 -0.1141
 9589TIP3   OH250257   3.115   5.811   1.313  0.1009  0.3548 -0.3553
 9589TIP3    H150258   3.021   5.808   1.332  0.1058  1.2425 -0.1613
 9589TIP3    H250259   3.123   5.772   1.225 -0.3680 -0.2868 -0.1221
 9590TIP3   OH250260   0.463   3.577  11.418 -0.0137  0.0125 -0.3758
 9590TIP3    H150261   0.550   3.590  11.455  0.0902  1.5007 -1.0982
 9590TIP3    H250262   0.417   3.525  11.485  1.3986 -0.7932  0.0106
 9591TIP3   OH250263   0.235   5.093   2.843  0.5553  0.2504  0.1898
 9591TIP3    H150264   0.226   5.055   2.755 -2.9254  0.0003  0.5134
 9591TIP3    H250265   0.182   5.173   2.840 -0.7845 -0.4493  2.3395
 9592TIP3   OH250266   4.797   6.658   3.663 -0.2690  0.0510  0.2561
 9592TIP3    H150267   4.776   6.677   3.755 -1.3099 -0.1657  0.0782
 9592TIP3    H250268   4.712   6.651   3.620  0.2167  0.9148 -0.8913
 9593TIP3   OH250269   0.024   1.125   3.858  0.1030 -0.3814 -0.0719
 9593TIP3    H150270   0.049   1.182   3.931 -0.2242 -0.2881 -0.0295
 9593TIP3    H250271   0.070   1.043   3.875  0.8016 -0.0432 -0.2788
 9594TIP3   OH250272   2.039   3.394   2.958  0.2374  0.0280 -0.2792
 9594TIP3    H150273   2.124   3.423   2.925  0.7134  1.1122  1.7500
 9594TIP3    H250274   2.059   3.347   3.039 -1.0852  0.0881  0.1035
 9595TIP3   OH250275   4.431   1.127  11.737  0.1177 -0.0218  0.0698
 9595TIP3    H150276   4.432   1.202  11.677 -1.2574  0.5540  0.7163
 9595TIP3    H250277   4.438   1.167  11.824 -1.3048 -0.5834  0.4555
 9596TIP3   OH250278   1.131   4.829   3.786 -0.0465  0.5651 -0.2640
 9596TIP3    H150279   1.096   4.819   3.698  0.5843  1.8428 -0.6760
 9596TIP3    H250280   1.070   4.888   3.830  0.4404  1.1095 -0.3140
 9597TIP3   OH250281   5.131   6.395  11.661 -0.0603 -0.5512  0.5875
 9597TIP3    H150282   5.075   6.364  11.732  0.3506 -1.3698  0.5694
 9597TIP3    H250283   5.071   6.413  11.588 -0.3864 -0.5876  0.8472
 9598TIP3   OH250284   5.142   4.902  14.189  0.5014  0.1985 -0.0397
 9598TIP3    H150285   5.224   4.862  14.219  0.8725  1.4937  0.7865
 9598TIP3    H250286   5.171   4.973  14.131  0.0661  1.5694  1.3582
 9599TIP3   OH250287   1.404   2.570   2.835 -0.2973 -1.3318 -0.2818
 9599TIP3    H150288   1.457   2.491   2.846  1.4888 -0.2859 -0.9749
 9599TIP3    H250289   1.414   2.618   2.917  0.4515 -0.8190 -0.6486
 9600TIP3   OH250290   2.712   0.771   2.322  0.1721  0.0530  0.1863
 9600TIP3    H150291   2.714   0.686   2.278 -0.2746  0.7318 -1.2163
 9600TIP3    H250292   2.804   0.797   2.329  0.2749 -0.2866  0.0976
 9601TIP3   OH250293   4.822   2.847  17.063 -0.9314  0.1007 -0.4077
 9601TIP3    H150294   4.795   2.762  17.098 -1.2176  0.6912  0.8432
 9601TIP3    H250295   4.895   2.874  17.118 -1.7078  1.2719  0.0988
 9602TIP3   OH250296   6.610   5.884  13.776  0.4177  0.6321 -0.5690
 9602TIP3    H150297   6.658   5.908  13.856  1.4560  3.0189 -1.8049
 9602TIP3    H250298   6.520   5.913  13.793  0.5224  0.7023 -0.1025
 9603TIP3   OH250299   2.278   1.237  14.268  0.5286  0.2413  0.2521
 9603TIP3    H150300   2.322   1.316  14.236 -0.2406  0.3761 -0.5073
 9603TIP3    H250301   2.233   1.202  14.191 -0.5856  0.0337  0.9802
 9604TIP3   OH250302   0.984   4.693   5.989 -0.0233  0.4802 -0.3743
 9604TIP3    H150303   1.011   4.783   5.972  0.6741  0.3660  0.1114
 9604TIP3    H250304   0.919   4.674   5.921 -0.0406  1.2875 -0.5855
 9605TIP3   OH250305   3.478   6.248   5.907 -0.4668 -0.1127 -0.1452
 9605TIP3    H150306   3.467   6.153   5.902  0.8792 -0.2970 -0.0784
 9605TIP3    H250307   3.513   6.264   5.995  0.0693  0.3473 -0.4356
 9606TIP3   OH250308   3.849   2.632  16.727  0.2745  0.1624  0.1403
 9606TIP3    H150309   3.850   2.726  16.712  0.8082  0.3160  1.0807
 9606TIP3    H250310   3.756   2.610  16.736  0.1884  0.7087  0.5947
 9607TIP3   OH250311   1.207   0.447  11.323 -0.0107  0.0492  0.3503
 9607TIP3    H150312   1.119   0.458  11.286 -0.0705  1.4921  0.8584
 9607TIP3    H250313   1.191   0.424  11.415  0.1170  1.1048  0.6518
 9608TIP3   OH250314   3.159   5.623  15.340  0.3833 -0.2713 -0.0342
 9608TIP3    H150315   3.182   5.558  15.273  0.9097  0.6427 -0.7559
 9608TIP3    H250316   3.074   5.594  15.374  0.6743 -1.4094 -0.2395
 9609TIP3   OH250317   1.385   2.271   0.164  0.1784  0.4002 -0.1771
 9609TIP3    H150318   1.480   2.261   0.170  0.0416 -0.7099  0.5397
 9609TIP3    H250319   1.372   2.336   0.095  1.4765  1.4792  0.5467
 9610TIP3   OH250320   2.791   6.770  13.468 -0.3933 -0.0504  0.1332
 9610TIP3    H150321   2.761   6.845  13.417 -0.9300 -0.8474 -0.7494
 9610TIP3    H250322   2.720   6.754  13.531 -0.6929 -0.3705 -0.2801
 9611TIP3   OH250323   5.094   1.304  16.152  0.1317  0.2383 -0.1780
 9611TIP3    H150324   5.055   1.224  16.188 -2.7166  1.2728 -0.7276
 9611TIP3    H250325   5.114   1.281  16.061  1.1239 -0.3801  0.1785
 9612TIP3   OH250326   2.476   0.084  13.347  0.0921 -0.4943 -0.1772
 9612TIP3    H150327   2.515   0.015  13.294  0.1492  0.8276 -1.9398
 9612TIP3    H250328   2.519   0.076  13.432  4.1450  0.6890 -1.8576
 9613TIP3   OH250329   3.714   0.230   3.544  1.3095 -0.2821  0.3363
 9613TIP3    H150330   3.807   0.216   3.559  1.0689 -2.2991  0.1925
 9613TIP3    H250331   3.671   0.185   3.618  0.4312 -0.5212 -0.3064
 9614TIP3   OH250332   4.220   4.664   1.806  0.3188  0.0609  0.1862
 9614TIP3    H150333   4.271   4.677   1.726 -1.9937 -2.1056 -1.8162
 9614TIP3    H250334   4.196   4.571   1.805 -1.4737  0.4066  2.3324
 9615TIP3   OH250335   6.491   4.714   0.410  0.0715 -0.3236  0.2424
 9615TIP3    H150336   6.411   4.722   0.358 -0.0445 -2.3531  0.0534
 9615TIP3    H250337   6.473   4.766   0.489 -0.9727  0.1875 -0.3118
 9616TIP3   OH250338   0.632   6.716  16.977  0.2943  0.0864  0.6566
 9616TIP3    H150339   0.555   6.719  16.921  0.0070  0.1166  1.0505
 9616TIP3    H250340   0.661   6.625  16.973  0.3262  0.1088  0.3875
 9617TIP3   OH250341   2.307   1.412  13.884  0.4846 -0.3284 -0.0215
 9617TIP3    H150342   2.213   1.417  13.899  0.8822  0.8974  2.7434
 9617TIP3    H250343   2.332   1.501  13.857  0.8582 -0.6318 -0.6889
 9618TIP3   OH250344   6.032   2.666   3.329 -0.6184  0.4147  0.2330
 9618TIP3    H150345   6.039   2.637   3.420 -1.6824  0.9190  0.4944
 9618TIP3    H250346   6.094   2.739   3.323 -0.3968  0.2532  0.4958
 9619TIP3   OH250347   2.569   2.137  16.363  0.3011  0.7288  0.3154
 9619TIP3    H150348   2.554   2.043  16.377 -3.1458  1.0733 -0.1242
 9619TIP3    H250349   2.660   2.143  16.334 -0.0862 -2.8198 -2.2912
 9620TIP3   OH250350   5.218   5.314  15.207  0.1260 -0.2010 -0.0665
 9620TIP3    H150351   5.161   5.379  15.247 -0.7952 -1.3123  0.5053
 9620TIP3    H250352   5.277   5.287  15.277  1.1576  0.6992 -0.5642
 9621TIP3   OH250353   6.462   6.511  16.894  0.3599  0.2165 -0.6791
 9621TIP3    H150354   6.427   6.458  16.822  0.1856  1.0476 -1.2230
 9621TIP3    H250355   6.552   6.481  16.904  0.7061  0.7529 -1.9183
 9622TIP3   OH250356   1.500   0.687  12.821  0.3585  0.2361  0.2070
 9622TIP3    H150357   1.470   0.752  12.886  3.4678 -1.0362  3.2437
 9622TIP3    H250358   1.449   0.608  12.841  0.2499  0.2668  0.0526
 9623TIP3   OH250359   6.004   4.638   5.787 -0.3124 -0.3646  0.0490
 9623TIP3    H150360   5.995   4.604   5.876  0.8209 -1.6116 -0.2728
 9623TIP3    H250361   6.066   4.578   5.745  0.5877  1.2591 -1.0370
 9624TIP3   OH250362   5.227   5.103  14.023  0.5182 -0.1082  0.1262
 9624TIP3    H150363   5.249   5.183  14.070 -0.4617  0.1078  0.2341
 9624TIP3    H250364   5.311   5.073  13.988  0.6049  2.2109 -1.9088
 9625TIP3   OH250365   5.168   4.682  11.930 -0.5037  0.0862 -0.1652
 9625TIP3    H150366   5.201   4.695  11.842 -0.4582 -2.8171 -0.6667
 9625TIP3    H250367   5.226   4.734  11.986  1.6358 -0.7447 -1.5104
 9626TIP3   OH250368   3.098   4.881   2.420  0.1108  0.2118  0.2188
 9626TIP3    H150369   3.157   4.950   2.389  0.6397 -0.8528 -1.2684
 9626TIP3    H250370   3.144   4.841   2.494  0.0868  1.0065  0.6799
 9627TIP3   OH250371   6.126   3.903  16.079 -0.2855  0.3518 -0.0010
 9627TIP3    H150372   6.199   3.963  16.094 -0.3329  0.4418 -0.1285
 9627TIP3    H250373   6.050   3.960  16.066 -0.6617  0.2440  1.5414
 9628TIP3   OH250374   4.572   2.812  12.137  0.5196  0.2741  0.3686
 9628TIP3    H150375   4.618   2.872  12.196 -0.3491  1.6346 -0.3129
 9628TIP3    H250376   4.482   2.842  12.137  0.0865 -0.9500 -0.1260
 9629TIP3   OH250377   3.909   0.831   5.844  0.1469 -0.1385  0.0770
 9629TIP3    H150378   3.883   0.889   5.773 -1.5437  1.6098  1.9968
 9629TIP3    H250379   3.826   0.805   5.885  1.0469 -1.3912  1.1990
 9630TIP3   OH250380   3.416   4.072   4.072 -0.0230  0.3721 -0.3311
 9630TIP3    H150381   3.369   3.990   4.058  1.1625 -0.0350 -2.2091
 9630TIP3    H250382   3.347   4.138   4.077 -0.8820 -0.4186 -1.2672
 9631TIP3   OH250383   1.864   6.572   4.114 -0.0597 -0.5269 -0.3284
 9631TIP3    H150384   1.810   6.566   4.193 -1.7309 -1.3563 -1.4736
 9631TIP3    H250385   1.867   6.666   4.095 -0.7251 -0.4237  0.0214
 9632TIP3   OH250386   6.788   2.702  10.583 -0.4248  0.0078  0.2536
 9632TIP3    H150387   6.829   2.634  10.636 -0.5411  1.0433  1.7284
 9632TIP3    H250388   6.832   2.783  10.608 -0.5001  0.5344 -1.2392
 9633TIP3   OH250389   1.477   3.820  13.305 -0.3075  0.2381 -0.9066
 9633TIP3    H150390   1.499   3.801  13.213  0.6888  1.4971 -0.9593
 9633TIP3    H250391   1.381   3.825  13.306 -0.3604 -0.2776 -1.7692
 9634TIP3   OH250392   3.415   0.911   5.376  0.2456  0.1140 -0.4693
 9634TIP3    H150393   3.326   0.942   5.359  1.0760  3.0547 -0.0145
 9634TIP3    H250394   3.414   0.885   5.468  0.6729  3.8572  0.7357
 9635TIP3   OH250395   5.303   1.993  11.881 -0.7108 -0.4934  0.3464
 9635TIP3    H150396   5.211   1.968  11.881 -0.1699 -2.7517  0.3545
 9635TIP3    H250397   5.339   1.954  11.801  0.3086  0.0570  0.5130
 9636TIP3   OH250398   3.538   5.489  14.948 -0.0828 -0.3051 -0.0916
 9636TIP3    H150399   3.512   5.417  14.892  0.7995 -0.2370 -0.5944
 9636TIP3    H250400   3.606   5.535  14.900  0.0574  0.2880  0.6414
 9637TIP3   OH250401   1.651   3.436  10.591 -0.4708  0.1437  0.0032
 9637TIP3    H150402   1.649   3.340  10.593  0.7070  0.1182  1.6283
 9637TIP3    H250403   1.559   3.461  10.584 -0.9119 -1.1169  0.8477
 9638TIP3   OH250404   4.233   0.879  16.525 -0.7275  0.2466 -0.2555
 9638TIP3    H150405   4.307   0.940  16.532 -0.7943  0.1858  1.2446
 9638TIP3    H250406   4.164   0.931  16.485 -0.5397  0.9570  0.2989
 9639TIP3   OH250407   1.978   0.212   0.888 -0.1192 -0.3527  0.6958
 9639TIP3    H150408   1.990   0.305   0.906  0.4571  0.1768 -1.9917
 9639TIP3    H250409   2.030   0.167   0.955  0.0959  1.2493  1.6541
 9640TIP3   OH250410   5.123   6.123  15.643  0.0030  0.2314 -0.1466
 9640TIP3    H150411   5.092   6.191  15.583 -1.6998  0.2582  0.7201
 9640TIP3    H250412   5.071   6.046  15.621 -0.3746  0.1347  1.0344
 9641TIP3   OH250413   6.228   1.404   2.318 -0.5784  0.3411 -0.4778
 9641TIP3    H150414   6.151   1.448   2.284 -0.9693 -0.8738 -1.2463
 9641TIP3    H250415   6.206   1.311   2.314  1.1250 -0.0766 -1.2737
 9642TIP3   OH250416   0.811   4.407   0.884 -0.5526  0.7612  0.3730
 9642TIP3    H150417   0.757   4.359   0.821 -1.1993  0.7176  0.9361
 9642TIP3    H250418   0.835   4.342   0.950 -1.9399  1.2986  1.4632
 9643TIP3   OH250419   5.112   4.453  13.213 -1.2044 -0.3844  0.1763
 9643TIP3    H150420   5.089   4.428  13.302 -1.0201  0.1950  0.3962
 9643TIP3    H250421   5.154   4.375  13.176 -1.0403 -0.5448  0.6859
 9644TIP3   OH250422   6.380   6.015   4.772 -0.1753  0.0243 -0.0836
 9644TIP3    H150423   6.331   5.941   4.807 -0.6907 -0.3059 -1.4259
 9644TIP3    H250424   6.412   5.984   4.687  0.6571  0.9198 -0.1077
 9645TIP3   OH250425   5.649   4.898   1.640  0.3453 -0.0384  0.0374
 9645TIP3    H150426   5.577   4.947   1.680 -0.7183 -1.4826 -0.0029
 9645TIP3    H250427   5.606   4.840   1.577  1.4723 -1.3814  0.4503
 9646TIP3   OH250428   4.781   4.005   4.495  0.2320  0.0588 -0.2809
 9646TIP3    H150429   4.786   4.099   4.508 -0.9125 -0.1151  1.9805
 9646TIP3    H250430   4.717   3.994   4.425 -2.1338  0.9722  1.5890
 9647TIP3   OH250431   3.777   0.871   1.381  0.1270 -0.5209 -0.3022
 9647TIP3    H150432   3.711   0.809   1.350  1.2080 -2.0365  0.2583
 9647TIP3    H250433   3.762   0.876   1.476 -0.4487  0.7299 -0.4403
 9648TIP3   OH250434   1.249   4.319   3.485  0.3430  0.0847 -0.3158
 9648TIP3    H150435   1.215   4.308   3.573  3.6727 -2.2237  0.9082
 9648TIP3    H250436   1.185   4.276   3.428 -0.8166 -0.3587  1.2727
 9649TIP3   OH250437   4.378   2.332   1.232  0.5301  0.0301 -0.2505
 9649TIP3    H150438   4.300   2.337   1.286  0.1728  0.9274 -0.8256
 9649TIP3    H250439   4.385   2.239   1.209 -0.2117 -0.1021  0.0220
 9650TIP3   OH250440   0.029   6.246  15.758  0.1156 -0.0736  0.4152
 9650TIP3    H150441   0.029   6.258  15.853  0.0411 -0.1070  0.4199
 9650TIP3    H250442  -0.015   6.324  15.724 -0.5096 -0.4006  0.4535
 9651TIP3   OH250443   5.138   6.716   5.264 -0.1288  0.3139 -0.0120
 9651TIP3    H150444   5.087   6.754   5.335 -0.6990 -2.6254  1.2609
 9651TIP3    H250445   5.229   6.727   5.292 -0.3256 -0.2189  0.8862
 9652TIP3   OH250446   6.257   1.788  11.034  0.4808  0.5126  0.1484
 9652TIP3    H150447   6.165   1.815  11.032 -0.1700 -1.5540 -0.2002
 9652TIP3    H250448   6.256   1.697  11.007  2.4985  0.0270  1.4859
 9653TIP3   OH250449   2.741   0.946   0.755  0.0227 -0.1607 -0.4490
 9653TIP3    H150450   2.727   0.956   0.849  0.9063 -1.2788 -0.1830
 9653TIP3    H250451   2.673   0.884   0.728 -1.4331  1.5536 -0.9332
 9654TIP3   OH250452   5.278   6.432  11.029 -0.2258  0.1772  0.9164
 9654TIP3    H150453   5.213   6.364  11.043 -0.0176  0.3902  3.1757
 9654TIP3    H250454   5.227   6.514  11.031 -0.2420  0.2088 -0.1287
 9655TIP3   OH250455   0.205   5.238   0.226  0.3823  0.1517 -0.2124
 9655TIP3    H150456   0.238   5.279   0.307 -0.2315 -0.1929  0.2195
 9655TIP3    H250457   0.212   5.144   0.242  0.3952  0.0791 -0.6268
 9656TIP3   OH250458   0.462   6.727  14.608  0.6341 -0.0123 -0.6369
 9656TIP3    H150459   0.392   6.750  14.669  1.0151 -0.8423  0.1235
 9656TIP3    H250460   0.419   6.727  14.522 -0.3680 -0.7361 -0.1636
 9657TIP3   OH250461   6.647   6.357   0.402 -0.3933 -0.1083  0.4423
 9657TIP3    H150462   6.587   6.375   0.330  0.9167 -2.2515 -1.3336
 9657TIP3    H250463   6.727   6.403   0.379  0.2803 -1.4061  0.0642
 9658TIP3   OH250464   0.904   2.169   4.183 -0.2503 -0.0703 -0.3529
 9658TIP3    H150465   0.899   2.081   4.219 -0.2526 -0.3684 -1.0685
 9658TIP3    H250466   0.997   2.191   4.187 -0.1697 -0.3409 -0.7301
 9659TIP3   OH250467   4.490   0.485  13.307  0.5240 -0.5218 -0.1911
 9659TIP3    H150468   4.500   0.489  13.212 -0.7895  2.3706 -0.3472
 9659TIP3    H250469   4.502   0.393  13.329  1.3313 -1.2203 -3.0836
 9660TIP3   OH250470   1.539   1.096   1.953 -0.0140  0.6473  0.8459
 9660TIP3    H150471   1.624   1.109   1.911  0.4578 -1.2468  1.1270
 9660TIP3    H250472   1.476   1.101   1.881  0.4077  1.2107  0.5079
 9661TIP3   OH250473   4.544   2.456  16.404  0.1831  0.4422  0.0507
 9661TIP3    H150474   4.510   2.370  16.426  0.6461 -0.2216 -1.6470
 9661TIP3    H250475   4.563   2.498  16.488  0.2866 -1.2407  0.8913
 9662TIP3   OH250476   1.758   3.427  12.473 -0.0229  0.1632 -0.4570
 9662TIP3    H150477   1.838   3.436  12.525  0.4005 -0.7908 -0.9153
 9662TIP3    H250478   1.739   3.516  12.443  0.2046  0.5858  0.6166
 9663TIP3   OH250479   6.196   3.043   4.367 -0.0710 -0.1454 -0.9397
 9663TIP3    H150480   6.200   3.049   4.271  0.5286  0.5479 -0.8712
 9663TIP3    H250481   6.265   3.100   4.398 -1.1664  0.7442 -0.0545
 9664TIP3   OH250482   4.213   1.674  12.047  0.0348  0.4402  0.4519
 9664TIP3    H150483   4.213   1.682  11.952  0.0950  0.6374  0.4667
 9664TIP3    H250484   4.261   1.593  12.065  1.0110  0.9838  0.3533
 9665TIP3   OH250485   3.913   4.271  10.825 -0.6600 -0.1396  0.0600
 9665TIP3    H150486   3.840   4.277  10.886  0.3312  0.8101  1.1942
 9665TIP3    H250487   3.943   4.361  10.813  1.1128 -0.6103  0.6200
 9666TIP3   OH250488   4.470   2.455   2.109  0.0462 -0.3230 -0.0296
 9666TIP3    H150489   4.451   2.523   2.173  0.2229  0.4709 -0.7980
 9666TIP3    H250490   4.566   2.449   2.108  0.0146 -1.0205  0.4731
 9667TIP3   OH250491   2.808   2.646  12.240 -0.6314  0.1841 -0.4425
 9667TIP3    H150492   2.897   2.613  12.251  0.4793  2.6206 -1.3344
 9667TIP3    H250493   2.780   2.615  12.154 -1.2754 -1.7898  0.4266
 9668TIP3   OH250494   5.232   0.322   5.658  0.0174  0.2907 -1.0927
 9668TIP3    H150495   5.275   0.265   5.722  0.1060 -0.7968 -2.0829
 9668TIP3    H250496   5.266   0.409   5.676  1.1119 -0.2289 -0.5805
 9669TIP3   OH250497   5.525   5.677  16.029 -0.0362  0.1760 -0.5258
 9669TIP3    H150498   5.436   5.654  16.058 -0.2018 -0.6369 -1.6108
 9669TIP3    H250499   5.582   5.616  16.077 -0.1021  0.3316 -0.2437
 9670TIP3   OH250500   2.671   1.129  15.916  0.6637 -0.7788 -0.9542
 9670TIP3    H150501   2.710   1.214  15.894  1.3682 -1.2571 -1.6231
 9670TIP3    H250502   2.746   1.071  15.930  0.1970 -1.0652  0.4748
 9671TIP3   OH250503   3.749   2.703   2.273 -0.4542  0.1502 -0.3049
 9671TIP3    H150504   3.710   2.616   2.262  0.3244 -0.0920 -1.3796
 9671TIP3    H250505   3.690   2.749   2.332 -1.1671 -0.9320 -0.1467
 9672TIP3   OH250506   0.829   4.493  12.530 -0.7501  0.3271 -0.5302
 9672TIP3    H150507   0.856   4.549  12.602 -2.0398  0.5703 -0.2205
 9672TIP3    H250508   0.740   4.521  12.509 -0.9906 -0.8343 -1.1371
 9673TIP3   OH250509   1.268   1.513  14.956  0.2597  0.8170 -0.4606
 9673TIP3    H150510   1.308   1.427  14.953  2.2433  1.7222 -1.6126
 9673TIP3    H250511   1.218   1.520  14.874 -0.0776  0.6995 -0.2684
 9674TIP3   OH250512   5.890   5.830  14.398  0.1094 -0.0933  0.4071
 9674TIP3    H150513   5.844   5.796  14.475 -0.8316  0.0465 -0.0831
 9674TIP3    H250514   5.978   5.848  14.430 -0.2131 -0.2005  1.4128
 9675TIP3   OH250515   2.921   4.464   6.414 -0.2857 -0.4793  0.0220
 9675TIP3    H150516   2.911   4.558   6.404 -0.7481 -0.6095 -0.8614
 9675TIP3    H250517   3.013   4.447   6.393 -0.6788 -0.4550 -1.9332
 9676TIP3   OH250518   4.018   1.981   4.813 -0.1521  0.4251  0.1514
 9676TIP3    H150519   4.108   2.003   4.837 -0.3581  0.3704  1.0387
 9676TIP3    H250520   4.021   1.967   4.719  1.0092 -0.7334  0.3222
 9677TIP3   OH250521   6.321   4.019  14.809 -0.7914  0.9608 -0.1048
 9677TIP3    H150522   6.305   3.933  14.849  2.5141 -0.7325 -2.0252
 9677TIP3    H250523   6.321   4.003  14.715  1.1864  2.7622 -0.4906
 9678TIP3   OH250524   4.464   1.714  10.914 -0.0710  0.2401  0.2499
 9678TIP3    H150525   4.509   1.718  10.999  0.7404 -0.1999 -0.1447
 9678TIP3    H250526   4.418   1.798  10.908  0.3145  0.5089  0.8842
 9679TIP3   OH250527   0.506   1.666  12.988 -0.5097 -0.0782 -0.0067
 9679TIP3    H150528   0.426   1.624  13.020  0.7675 -1.0940  2.0171
 9679TIP3    H250529   0.504   1.651  12.893 -1.6901 -1.9362  0.2611
 9680TIP3   OH250530   3.042   1.571   3.475 -0.8435 -0.0002  0.2571
 9680TIP3    H150531   3.112   1.564   3.411 -1.1919 -1.4701 -0.0142
 9680TIP3    H250532   2.965   1.599   3.425 -0.4994  1.5515  0.5438
 9681TIP3   OH250533   6.711   4.064   1.562 -0.3709  0.0371 -0.3078
 9681TIP3    H150534   6.675   3.984   1.599 -0.1423  0.3437  0.6057
 9681TIP3    H250535   6.715   4.125   1.636  1.0694  0.3363 -0.6056
 9682TIP3   OH250536   4.262   1.435   2.320 -0.4791 -0.0519  0.1153
 9682TIP3    H150537   4.244   1.514   2.269  1.7980 -0.1017 -0.8303
 9682TIP3    H250538   4.176   1.393   2.329 -1.7105  2.3458  0.4091
 9683TIP3   OH250539   6.324   2.513   0.332 -0.2985  0.6913 -0.0880
 9683TIP3    H150540   6.402   2.536   0.383  0.1707 -1.3033  0.1826
 9683TIP3    H250541   6.251   2.534   0.390  0.0756  1.4582  0.1233
 9684TIP3   OH250542   6.669   1.385   1.459 -0.4358 -0.4817  0.0626
 9684TIP3    H150543   6.610   1.460   1.453  1.7726  1.4438  1.0022
 9684TIP3    H250544   6.651   1.347   1.545 -0.4462 -0.0136  0.2684
 9685TIP3   OH250545   5.443   6.491  11.978  0.3202  0.0569  0.3369
 9685TIP3    H150546   5.396   6.495  11.895  0.9237  0.1022 -0.0104
 9685TIP3    H250547   5.427   6.576  12.019  0.1994  0.1173  0.1659
 9686TIP3   OH250548   4.797   2.707  11.970  0.3361 -0.0323  0.8965
 9686TIP3    H150549   4.778   2.615  11.950 -0.1895  0.5183 -1.4440
 9686TIP3    H250550   4.735   2.730  12.039  0.0116 -1.2433  1.0339
 9687TIP3   OH250551   2.591   5.825  14.092 -0.4908 -0.1411  0.0890
 9687TIP3    H150552   2.544   5.742  14.089 -0.7804  0.0227  0.0676
 9687TIP3    H250553   2.524   5.890  14.109 -0.1281 -0.0142  1.0953
 9688TIP3   OH250554   5.182   6.480   3.373  0.2720 -0.0103 -0.1524
 9688TIP3    H150555   5.135   6.444   3.299  1.7886 -0.4617 -0.9412
 9688TIP3    H250556   5.132   6.558   3.398 -1.4452 -1.0540 -0.2486
 9689TIP3   OH250557   6.789   0.558  13.858 -0.6537 -0.1208 -0.0103
 9689TIP3    H150558   6.817   0.625  13.795 -0.0478 -1.1105 -0.8313
 9689TIP3    H250559   6.868   0.538  13.908 -0.8981 -0.0450  0.4127
 9690TIP3   OH250560   0.334   2.484   1.725 -0.3434 -0.2596 -0.0764
 9690TIP3    H150561   0.400   2.527   1.780 -0.2647 -0.1020 -0.2918
 9690TIP3    H250562   0.256   2.539   1.733 -0.6646 -0.8204  0.7212
 9691TIP3   OH250563   2.183   1.616   1.512 -0.0351 -0.0546  1.0805
 9691TIP3    H150564   2.186   1.530   1.470 -0.6599  0.8840 -1.0141
 9691TIP3    H250565   2.258   1.663   1.476 -0.4162  0.6963  1.2504
 9692TIP3   OH250566   4.531   6.528   0.263  0.4490 -0.5485 -0.0392
 9692TIP3    H150567   4.547   6.613   0.302 -0.3319  0.1998 -1.2906
 9692TIP3    H250568   4.590   6.468   0.309  1.6708  0.8212  0.2120
 9693TIP3   OH250569   4.732   2.289  11.663 -0.4108  0.1797 -0.2553
 9693TIP3    H150570   4.711   2.345  11.738  1.4030  1.1000 -0.3798
 9693TIP3    H250571   4.688   2.330  11.589 -0.1578  0.7086 -0.1162
 9694TIP3   OH250572   6.563   5.677   2.851 -0.0606 -0.8910 -0.1326
 9694TIP3    H150573   6.618   5.755   2.846 -1.0427 -0.2209 -0.8194
 9694TIP3    H250574   6.542   5.669   2.944 -0.0129 -0.3005 -0.0638
 9695TIP3   OH250575   4.840   1.025   1.724  0.0034  0.1647  0.3681
 9695TIP3    H150576   4.816   0.933   1.735 -1.1304  0.6266  2.3677
 9695TIP3    H250577   4.767   1.064   1.678  0.2778  0.1605 -0.0740
 9696TIP3   OH250578   6.658   6.662  11.774  0.5784 -0.0328  0.3970
 9696TIP3    H150579   6.588   6.727  11.775  0.6332  0.0447 -0.1572
 9696TIP3    H250580   6.623   6.587  11.821  0.8474  0.7234  1.8744
 9697TIP3   OH250581   5.670   2.456  11.401  0.6522 -0.5303  0.0319
 9697TIP3    H150582   5.620   2.376  11.384 -2.9423  1.2458  1.1283
 9697TIP3    H250583   5.666   2.505  11.318  2.9580 -1.4245 -0.6803
 9698TIP3   OH250584   6.216   4.583  16.760  0.0339 -0.0126  0.4064
 9698TIP3    H150585   6.158   4.657  16.779  0.8024  0.3827  1.2849
 9698TIP3    H250586   6.197   4.519  16.829 -2.8456 -2.0619 -2.0053
 9699TIP3   OH250587   5.247   3.047   5.675  0.7389 -0.3358 -0.3714
 9699TIP3    H150588   5.167   3.068   5.626  1.6701  1.7710 -1.1463
 9699TIP3    H250589   5.224   3.063   5.767  0.2126  0.1304 -0.5765
 9700TIP3   OH250590   1.851   4.616   1.726  0.0653 -0.3425  0.1597
 9700TIP3    H150591   1.763   4.644   1.749  0.1327 -0.7309  0.9239
 9700TIP3    H250592   1.838   4.552   1.655 -0.3468 -1.1790  0.9728
 9701TIP3   OH250593   2.316   5.402  11.396  0.5727  0.4297  0.0737
 9701TIP3    H150594   2.260   5.453  11.338  1.5127  0.9088 -0.4323
 9701TIP3    H250595   2.399   5.396  11.350  0.8100 -0.6560  0.6095
 9702TIP3   OH250596   5.947   5.990  17.052 -0.0864 -0.3106 -0.4785
 9702TIP3    H150597   5.916   5.979  16.962  0.6173 -1.8032 -0.5811
 9702TIP3    H250598   6.043   5.988  17.044 -0.0109 -0.0627  0.2710
 9703TIP3   OH250599   4.497   0.458  16.250  0.6584  0.1748  0.7437
 9703TIP3    H150600   4.535   0.371  16.265  1.8719  0.9016  2.0965
 9703TIP3    H250601   4.403   0.446  16.268  0.5031 -1.1988 -0.7081
 9704TIP3   OH250602   1.980   5.371  11.520 -0.0287  0.9438  0.0558
 9704TIP3    H150603   2.016   5.449  11.479  1.0093  0.3972 -0.1160
 9704TIP3    H250604   1.970   5.308  11.449  1.5514  0.0743  0.5483
 9705TIP3   OH250605   2.536   3.960   2.881 -0.0259  0.2746  0.0673
 9705TIP3    H150606   2.459   3.940   2.828 -0.0584 -1.0291  0.5743
 9705TIP3    H250607   2.605   3.977   2.818  0.3658 -2.8536 -0.5057
 9706TIP3   OH250608   4.914   6.594   1.343 -0.5058  0.0888  0.3283
 9706TIP3    H150609   4.981   6.599   1.275 -0.3143 -1.0399  0.4108
 9706TIP3    H250610   4.947   6.652   1.413 -1.4415  2.4559 -1.0958
 9707TIP3   OH250611   0.148   5.226   0.988  0.5161  0.1333 -0.3135
 9707TIP3    H150612   0.190   5.245   0.904  0.2098  0.1220 -0.4729
 9707TIP3    H250613   0.088   5.300   1.002  0.4958  0.0870 -0.1525
 9708TIP3   OH250614   2.148   2.129   0.349 -0.2837  0.0193  0.2464
 9708TIP3    H150615   2.086   2.188   0.391  0.5796  0.6148  0.7250
 9708TIP3    H250616   2.149   2.156   0.257 -2.2082 -1.3137 -0.2270
 9709TIP3   OH250617   4.641   3.348  12.434  0.1811 -0.0869  0.0215
 9709TIP3    H150618   4.658   3.432  12.391  0.8253 -0.3518 -0.2562
 9709TIP3    H250619   4.587   3.299  12.372 -0.5344  0.2578  0.3500
 9710TIP3   OH250620   3.711   2.710   3.909 -0.6043  0.6358  0.0471
 9710TIP3    H150621   3.676   2.663   3.985  0.4869  1.4967  1.1119
 9710TIP3    H250622   3.780   2.766   3.945  1.1892 -0.2427 -1.8179
 9711TIP3   OH250623   6.241   3.626   5.173  0.2819 -0.5410  0.3745
 9711TIP3    H150624   6.297   3.696   5.139  0.2650 -0.4203  0.5956
 9711TIP3    H250625   6.288   3.546   5.149  1.3915 -0.4120  1.9764
 9712TIP3   OH250626   6.835   2.027   2.065  0.4701 -0.1605  0.0959
 9712TIP3    H150627   6.759   2.081   2.045 -0.1058 -0.8152  0.5207
 9712TIP3    H250628   6.909   2.089   2.064 -0.1065  0.5335  0.0301
 9713TIP3   OH250629   2.460   5.084  16.815  0.0416 -0.3237  0.1775
 9713TIP3    H150630   2.457   5.068  16.910 -1.9126 -0.3543  0.1442
 9713TIP3    H250631   2.530   5.026  16.784 -0.0636 -1.1809  1.4510
 9714TIP3   OH250632   5.050   0.435   3.244 -0.5009  0.0923 -0.4633
 9714TIP3    H150633   4.975   0.478   3.204 -1.0950  0.8512  1.3726
 9714TIP3    H250634   5.087   0.500   3.304  0.7642 -0.7593 -0.2643
 9715TIP3   OH250635   1.979   0.112   2.833 -0.3417  0.2654  0.3162
 9715TIP3    H150636   1.958   0.204   2.816 -1.5299  0.3011  1.7745
 9715TIP3    H250637   2.071   0.104   2.809 -0.7098  1.3351 -1.7193
 9716TIP3   OH250638   5.368   4.329  16.567 -0.0089  0.2752 -0.3487
 9716TIP3    H150639   5.356   4.424  16.572  0.6311  0.3297  0.3710
 9716TIP3    H250640   5.463   4.318  16.560 -0.0436 -0.3292  0.1355
 9717TIP3   OH250641   0.401   3.752   5.516  0.0805  0.5801  0.0320
 9717TIP3    H150642   0.414   3.756   5.611  0.9923 -1.7611  0.0491
 9717TIP3    H250643   0.313   3.789   5.503 -0.0023  1.0730  1.7620
 9718TIP3   OH250644   0.704   1.205  16.588  0.3453 -0.0285 -0.2455
 9718TIP3    H150645   0.798   1.214  16.572  0.4774  2.6863  1.3286
 9718TIP3    H250646   0.662   1.239  16.508  0.5878 -2.3846 -1.4595
 9719TIP3   OH250647   1.142   5.543   0.912 -0.3114  0.1691 -0.1090
 9719TIP3    H150648   1.052   5.567   0.930 -0.6100  0.7893 -2.1470
 9719TIP3    H250649   1.146   5.449   0.929 -1.6731 -0.1026 -1.1277
 9720TIP3   OH250650   2.347   2.083  11.373 -0.3797  0.3745  0.5659
 9720TIP3    H150651   2.289   2.082  11.449  0.2336  0.2821  1.0456
 9720TIP3    H250652   2.435   2.082  11.411 -0.0537 -1.6396 -0.1394
 9721TIP3   OH250653   2.135   3.283   3.219 -0.2693 -0.5279 -0.4095
 9721TIP3    H150654   2.066   3.312   3.279 -0.3753 -0.8519 -0.3739
 9721TIP3    H250655   2.205   3.348   3.230  0.0557 -1.0359  0.6902
 9722TIP3   OH250656   4.041   6.657  13.674  0.6061 -0.3457 -0.7266
 9722TIP3    H150657   3.982   6.696  13.738  2.0305 -0.2804  0.6007
 9722TIP3    H250658   3.984   6.604  13.617 -0.7900  0.2661  0.0625
 9723TIP3   OH250659   1.824   5.786   2.716 -0.2213  0.0376  0.3597
 9723TIP3    H150660   1.902   5.841   2.707  0.8535 -1.0943  2.2444
 9723TIP3    H250661   1.817   5.741   2.632 -0.5958  2.2824 -0.8983
 9724TIP3   OH250662   0.225   6.763  14.796 -0.2835  0.0301 -0.2781
 9724TIP3    H150663   0.197   6.679  14.832 -0.3284  0.2073  0.1044
 9724TIP3    H250664   0.144   6.812  14.784 -0.1087  0.9833  1.9255
 9725TIP3   OH250665   2.350   2.076   2.773 -0.2102  0.2416  0.1645
 9725TIP3    H150666   2.427   2.065   2.717  0.2486  0.2957  0.7777
 9725TIP3    H250667   2.314   1.988   2.782 -0.6921  0.3300 -0.7739
 9726TIP3   OH250668   0.083   3.200   3.057 -0.4084 -0.6691  0.3561
 9726TIP3    H150669   0.108   3.258   3.130  2.3603 -1.6123  0.2720
 9726TIP3    H250670   0.015   3.144   3.094 -1.1986  0.8149  1.2715
 9727TIP3   OH250671   5.003   4.402   1.307  0.0100 -0.2012  0.2762
 9727TIP3    H150672   5.098   4.413   1.316 -0.2782  2.0388  1.4075
 9727TIP3    H250673   4.970   4.407   1.397 -1.1139 -2.3803  0.0539
 9728TIP3   OH250674   3.129   0.748   0.615  0.2169  0.1318 -0.1324
 9728TIP3    H150675   3.159   0.706   0.695 -0.9495 -0.5615 -0.0283
 9728TIP3    H250676   3.209   0.772   0.568  0.9274 -1.5908  0.1383
 9729TIP3   OH250677   3.760   2.910  13.452 -0.6743  0.2734 -0.1691
 9729TIP3    H150678   3.736   2.881  13.365  0.4201 -0.5385 -0.2281
 9729TIP3    H250679   3.808   2.992  13.438  1.4949 -0.9973 -0.5791
 9730TIP3   OH250680   0.025   1.308  14.311  0.1421  0.5935 -0.2686
 9730TIP3    H150681   0.056   1.373  14.248  0.5555  0.9012  0.2453
 9730TIP3    H250682   0.043   1.347  14.396 -1.4549  0.6783  0.0548
 9731TIP3   OH250683   0.310   2.409  16.515 -0.1958  0.3535 -0.0576
 9731TIP3    H150684   0.375   2.350  16.476  0.9413  1.4181  0.1916
 9731TIP3    H250685   0.360   2.463  16.576 -1.6202  0.0270  1.4645
 9732TIP3   OH250686   1.710   5.698  14.471 -0.0081 -0.4340  0.0557
 9732TIP3    H150687   1.704   5.650  14.554 -0.3588  0.4192  0.5372
 9732TIP3    H250688   1.804   5.708  14.456  0.0976  0.9879  1.3179
 9733TIP3   OH250689   4.676   1.453   1.779  0.0370  0.2054  0.4147
 9733TIP3    H150690   4.668   1.490   1.866 -1.2144  0.0786  0.3657
 9733TIP3    H250691   4.723   1.519   1.729 -0.6502  0.9847  0.7807
 9734TIP3   OH250692   1.745   3.321  15.973 -0.1698 -0.1236 -0.5686
 9734TIP3    H150693   1.806   3.383  16.014  1.4559 -1.7507 -0.3608
 9734TIP3    H250694   1.667   3.323  16.028  0.3471  0.8235  0.1593
 9735TIP3   OH250695   0.199   1.357   2.419 -0.1150  0.2887 -0.3413
 9735TIP3    H150696   0.176   1.450   2.414 -1.1032  0.0631 -0.0882
 9735TIP3    H250697   0.120   1.311   2.391  0.8336 -0.4570 -1.9354
 9736TIP3   OH250698   1.033   6.053   3.382  0.1502 -0.1323 -0.0518
 9736TIP3    H150699   0.980   6.026   3.457 -0.6852 -1.9330 -1.2380
 9736TIP3    H250700   0.977   6.114   3.333 -0.6386 -1.5448 -0.9646
 9737TIP3   OH250701   4.626   5.566   2.651 -0.3758 -0.7923 -0.7259
 9737TIP3    H150702   4.589   5.516   2.578  0.8517 -0.8577 -1.3349
 9737TIP3    H250703   4.651   5.499   2.715  2.6343 -1.2032 -2.1628
 9738TIP3   OH250704   4.990   1.365  15.264 -0.0051  0.7263  0.1088
 9738TIP3    H150705   4.923   1.385  15.198 -1.0656  1.8186  1.4576
 9738TIP3    H250706   4.945   1.377  15.348  1.9211  1.5747  1.0699
 9739TIP3   OH250707   0.458   2.205   3.155  0.0726 -0.1424 -0.1735
 9739TIP3    H150708   0.381   2.218   3.209  1.0112  1.8365  0.7920
 9739TIP3    H250709   0.529   2.190   3.217  1.0162  1.2863 -0.8666
 9740TIP3   OH250710   4.444   2.019   0.075 -0.0887 -0.2604 -0.6611
 9740TIP3    H150711   4.380   2.024   0.145  0.1938  0.9608 -0.4590
 9740TIP3    H250712   4.412   2.079   0.008  0.5596 -0.0396 -0.7891
 9741TIP3   OH250713   6.411   1.354   3.051 -0.0676  0.6979  0.0529
 9741TIP3    H150714   6.404   1.348   2.956  1.6111  0.9998 -0.1191
 9741TIP3    H250715   6.338   1.301   3.084 -0.0251 -0.3139 -1.3870
 9742TIP3   OH250716   2.973   4.714   1.731  0.1254 -0.0280  0.4407
 9742TIP3    H150717   3.018   4.798   1.722 -0.6333  0.5761  1.9989
 9742TIP3    H250718   2.916   4.709   1.655  0.5984  0.5942  0.0322
 9743TIP3   OH250719   4.111   3.664   3.567  0.6731  0.4644  0.3386
 9743TIP3    H150720   4.187   3.722   3.563  1.8180 -1.0047 -0.2189
 9743TIP3    H250721   4.051   3.697   3.500 -0.1835  2.9175  2.2017
 9744TIP3   OH250722   1.807   5.915  14.953  0.0746  0.6880 -0.1716
 9744TIP3    H150723   1.795   5.944  15.043  1.1566  2.4144 -0.5325
 9744TIP3    H250724   1.881   5.853  14.957  1.1395  1.9200 -0.0346
 9745TIP3   OH250725   0.033   5.533  12.510  0.3445 -0.3247 -0.3128
 9745TIP3    H150726   0.070   5.508  12.425 -0.3633 -1.3200 -0.3389
 9745TIP3    H250727   0.060   5.463  12.570 -1.9736 -1.4321 -0.4674
 9746TIP3   OH250728   5.546   4.420  14.889 -0.0455  0.3798  0.2470
 9746TIP3    H150729   5.604   4.345  14.885  2.9155  2.5122  0.1321
 9746TIP3    H250730   5.512   4.430  14.800 -1.8769 -1.6982  0.6174
 9747TIP3   OH250731   5.877   6.324  12.730  0.4745  0.5266  0.2208
 9747TIP3    H150732   5.783   6.318  12.748 -0.0490  1.1935 -1.9613
 9747TIP3    H250733   5.891   6.418  12.713  1.5613  0.4442  0.6268
 9748TIP3   OH250734   1.582   5.414  10.667 -0.0359  0.7956 -0.3698
 9748TIP3    H150735   1.590   5.429  10.572  1.6650  2.7576  0.0014
 9748TIP3    H250736   1.547   5.496  10.702 -2.5569 -0.5729  0.5704
 9749TIP3   OH250737   3.373   3.025   5.867  0.3021 -0.1988 -0.0978
 9749TIP3    H150738   3.337   3.021   5.778  0.1635  2.0903 -0.1998
 9749TIP3    H250739   3.360   2.937   5.902 -1.2348 -0.6791 -1.7332
 9750TIP3   OH250740   1.776   3.117  12.862 -0.2780  0.5708  1.0867
 9750TIP3    H150741   1.803   3.058  12.933 -0.0682 -0.3541  0.2623
 9750TIP3    H250742   1.829   3.196  12.875  0.5702 -0.0154  1.3267
 9751TIP3   OH250743   0.125   1.887  11.235  0.5404  0.2125  0.3164
 9751TIP3    H150744   0.147   1.840  11.315  0.9420 -1.5983 -0.7907
 9751TIP3    H250745   0.208   1.891  11.186  0.0762  0.2951 -0.4884
 9752TIP3   OH250746   4.496   3.840   0.944  0.6220  0.4559  0.5594
 9752TIP3    H150747   4.435   3.791   0.889  2.5001 -1.9264  0.4311
 9752TIP3    H250748   4.561   3.775   0.971  2.0859  2.4710  2.1814
 9753TIP3   OH250749   2.530   6.823  16.106 -0.7654  0.1448  0.6196
 9753TIP3    H150750   2.618   6.822  16.143 -0.5603  1.1680  0.1918
 9753TIP3    H250751   2.518   6.912  16.073 -0.9750 -0.6528 -1.6505
 9754TIP3   OH250752   1.034   0.249  16.015  0.3557  0.2662  0.0291
 9754TIP3    H150753   0.965   0.226  15.952  0.4418 -0.4026  0.1696
 9754TIP3    H250754   1.101   0.293  15.963  2.0935 -3.3233 -1.1401
 9755TIP3   OH250755   5.146   3.116   5.921 -0.5719 -0.7592 -0.2298
 9755TIP3    H150756   5.153   3.208   5.948 -1.3661  0.2366 -3.0159
 9755TIP3    H250757   5.216   3.071   5.968  1.9190  1.9079 -1.1004
 9756TIP3   OH250758   0.835   4.618   1.044  0.4513  0.5278 -0.0366
 9756TIP3    H150759   0.902   4.681   1.017 -0.1032  1.1450  0.0212
 9756TIP3    H250760   0.852   4.541   0.989  0.5885  1.0370 -0.7201
 9757TIP3   OH250761   4.866   0.413  16.798  0.7641  0.2152 -0.5692
 9757TIP3    H150762   4.865   0.490  16.855 -0.8914  0.0687 -0.3286
 9757TIP3    H250763   4.788   0.423  16.743  0.6895 -1.1171 -0.7536
 9758TIP3   OH250764   2.588   6.707   5.382  0.2019  0.0983  0.1231
 9758TIP3    H150765   2.540   6.760   5.445 -0.3303 -0.2307 -0.0024
 9758TIP3    H250766   2.611   6.627   5.429 -1.1631 -0.6276 -0.4182
 9759TIP3   OH250767   2.426   6.128   5.744 -0.8517  0.0798  0.0792
 9759TIP3    H150768   2.509   6.156   5.706 -0.7822 -1.1930 -0.7843
 9759TIP3    H250769   2.368   6.115   5.669 -1.7128  0.5598  0.6400
 9760TIP3   OH250770   4.768   0.363  16.423  0.0730 -0.6380 -0.3172
 9760TIP3    H150771   4.693   0.313  16.393 -1.3783  1.4156 -0.3399
 9760TIP3    H250772   4.740   0.401  16.506  1.5051 -0.6880  0.2229
 9761TIP3   OH250773   4.735   0.163  10.675 -0.2031 -0.7315 -0.6533
 9761TIP3    H150774   4.677   0.186  10.602  0.0510  0.4354 -0.5015
 9761TIP3    H250775   4.822   0.156  10.635 -0.4985 -3.2643 -1.0322
 9762TIP3   OH250776   2.812   1.466   5.934 -0.0863  0.2997 -0.2799
 9762TIP3    H150777   2.875   1.529   5.969 -1.2284  1.3922 -0.1459
 9762TIP3    H250778   2.738   1.518   5.905 -1.0048 -0.9630 -0.3203
 9763TIP3   OH250779   4.827   4.459   5.402 -0.5214  0.0607 -0.1923
 9763TIP3    H150780   4.867   4.544   5.419 -0.0941 -0.1250 -0.2517
 9763TIP3    H250781   4.839   4.410   5.483  4.4223 -1.9847 -1.7973
 9764TIP3   OH250782   5.864   3.488   2.258  0.3657  0.4568  0.4684
 9764TIP3    H150783   5.798   3.515   2.195  0.0911 -2.3372 -0.5674
 9764TIP3    H250784   5.932   3.555   2.251  0.0870  0.5775 -2.4114
 9765TIP3   OH250785   3.228   6.367   0.892  0.1327 -0.8127  0.3688
 9765TIP3    H150786   3.134   6.351   0.882 -0.5158  1.9634  1.1547
 9765TIP3    H250787   3.239   6.460   0.869  2.8675 -1.3059 -0.6749
 9766TIP3   OH250788   2.730   2.047   6.422  0.1496  0.6066  0.1303
 9766TIP3    H150789   2.662   2.003   6.371 -0.3051  0.4828  0.8277
 9766TIP3    H250790   2.737   2.135   6.383 -0.8327  0.8230  0.4211
 9767TIP3   OH250791   4.041   5.512   0.785  0.0319 -0.0143 -0.0850
 9767TIP3    H150792   4.122   5.563   0.780  0.1519 -0.3292 -3.2240
 9767TIP3    H250793   4.063   5.427   0.746 -0.8151 -1.6753  2.7653
 9768TIP3   OH250794   3.283   6.008  16.764 -0.2872 -0.3576  0.0878
 9768TIP3    H150795   3.334   5.933  16.735 -2.1285 -1.1146 -1.4289
 9768TIP3    H250796   3.344   6.082  16.759  0.8755 -1.3399 -0.8886
 9769TIP3   OH250797   6.646   1.457   4.911 -0.3620 -0.1608  0.1708
 9769TIP3    H150798   6.550   1.462   4.905 -0.3835 -1.0125 -0.4433
 9769TIP3    H250799   6.668   1.374   4.867  0.6773  0.1461  0.0904
 9770TIP3   OH250800   6.154   4.919  12.075 -0.1279 -0.1676  0.1088
 9770TIP3    H150801   6.240   4.957  12.097  0.2475 -1.8605  1.8215
 9770TIP3    H250802   6.165   4.825  12.089 -2.1772 -0.4547  0.0567
 9771TIP3   OH250803   0.132   1.778  11.744  0.1840  0.0529  0.1439
 9771TIP3    H150804   0.125   1.873  11.754  0.7984  0.1923 -0.6252
 9771TIP3    H250805   0.225   1.762  11.729 -0.2014 -0.3663 -2.3591
 9772TIP3   OH250806   6.279   4.911  13.872 -0.0833 -0.9029 -0.0794
 9772TIP3    H150807   6.203   4.969  13.868  0.2111 -0.4707  0.4600
 9772TIP3    H250808   6.281   4.880  13.963  2.6878  2.2684  1.1363
 9773TIP3   OH250809   1.498   5.989  11.568  0.1149  0.2194  0.2124
 9773TIP3    H150810   1.572   6.050  11.563  0.9894 -0.6851  1.5150
 9773TIP3    H250811   1.537   5.903  11.551 -1.2336  0.0338 -2.3711
 9774TIP3   OH250812   6.133   2.135  12.494  0.4168  0.2057  0.2010
 9774TIP3    H150813   6.175   2.203  12.442  0.4306  0.2886  0.3190
 9774TIP3    H250814   6.198   2.114  12.562  0.2688  0.3363  0.3865
 9775TIP3   OH250815   0.789   6.140  13.243  0.2535  0.2566 -0.6764
 9775TIP3    H150816   0.840   6.106  13.316 -0.7427 -0.3996 -0.2725
 9775TIP3    H250817   0.818   6.231  13.234  2.2191 -0.3690 -1.1268
 9776TIP3   OH250818   6.580   3.738  15.234 -0.2398 -0.7038  0.2617
 9776TIP3    H150819   6.528   3.669  15.193  0.7859 -0.1563 -2.1506
 9776TIP3    H250820   6.526   3.817  15.226 -0.5298 -0.7953  1.1262
 9777TIP3   OH250821   0.678   4.296  14.702  0.4526  0.1885  0.0766
 9777TIP3    H150822   0.677   4.391  14.688 -0.7227 -0.0947 -2.2005
 9777TIP3    H250823   0.736   4.284  14.777  1.2875  2.6329 -0.0727
 9778TIP3   OH250824   2.279   6.235   0.188 -0.6324 -0.1579  0.5353
 9778TIP3    H150825   2.261   6.226   0.095 -2.5407  2.0199  0.5996
 9778TIP3    H250826   2.338   6.162   0.209 -1.6838 -1.8424 -1.9340
 9779TIP3   OH250827   4.714   4.979   3.538  1.2739 -0.4505  0.2785
 9779TIP3    H150828   4.645   4.913   3.554  0.5381 -0.0621 -1.1706
 9779TIP3    H250829   4.690   5.052   3.595  2.1626 -1.4249  1.9961
 9780TIP3   OH250830   6.651   0.468  11.715  0.2971 -0.0003  0.1771
 9780TIP3    H150831   6.680   0.489  11.804 -0.8643 -1.0410  0.8375
 9780TIP3    H250832   6.643   0.553  11.671  0.1531  0.5900  1.3121
 9781TIP3   OH250833   1.998   4.575  13.552  0.4931 -0.0975 -0.1524
 9781TIP3    H150834   2.066   4.639  13.572  2.7572 -1.6900 -2.2014
 9781TIP3    H250835   2.043   4.491  13.554 -1.6678 -1.3426 -0.6403
 9782TIP3   OH250836   2.874   2.125  16.321 -0.1504  0.5130 -0.2432
 9782TIP3    H150837   2.888   2.037  16.356 -0.5481  0.1717 -0.9076
 9782TIP3    H250838   2.925   2.127  16.240  0.3811  1.1227  0.1040
 9783TIP3   OH250839   2.591   1.502   4.360  0.3175 -0.3683  0.4613
 9783TIP3    H150840   2.548   1.563   4.300  1.5727  0.0238 -0.0767
 9783TIP3    H250841   2.633   1.559   4.425 -0.7042 -0.7746  1.5069
 9784TIP3   OH250842   4.567   2.474   5.022  0.2382 -0.3342 -0.1074
 9784TIP3    H150843   4.540   2.558   5.058 -1.2475 -0.7867 -0.0936
 9784TIP3    H250844   4.649   2.492   4.976  0.7358  0.7928  1.1817
 9785TIP3   OH250845   0.435   2.229  15.200 -0.3237  0.0371 -0.5517
 9785TIP3    H150846   0.524   2.255  15.177 -0.0723 -1.5180 -1.4993
 9785TIP3    H250847   0.426   2.251  15.293  1.5007 -0.8941 -0.1151
 9786TIP3   OH250848   0.312   1.505  11.048 -0.1290  0.4774 -0.3572
 9786TIP3    H150849   0.298   1.474  11.137  1.2951  0.2422 -0.1991
 9786TIP3    H250850   0.365   1.438  11.007 -0.5285  0.7241 -1.3064
 9787TIP3   OH250851   0.237   5.822  16.733  0.3472 -0.0500  0.1535
 9787TIP3    H150852   0.252   5.820  16.638  0.2609 -0.4746  0.1480
 9787TIP3    H250853   0.144   5.803  16.743  0.2233  0.6058  0.2961
 9788TIP3   OH250854   1.546   4.337   1.970  0.2859  0.4478  0.1326
 9788TIP3    H150855   1.497   4.263   2.004  0.8933  0.7712  1.8192
 9788TIP3    H250856   1.592   4.303   1.894 -0.0698 -0.6937  0.4133
 9789TIP3   OH250857   5.432   2.140  16.346 -0.0005  0.0627 -0.1149
 9789TIP3    H150858   5.432   2.195  16.425 -0.4562 -0.3107  0.1491
 9789TIP3    H250859   5.488   2.066  16.369 -2.2398 -1.4446  0.8735
 9790TIP3   OH250860   0.682   1.500  15.167 -0.2842  0.2040  0.3454
 9790TIP3    H150861   0.750   1.503  15.099  0.8724  1.8939  1.4953
 9790TIP3    H250862   0.717   1.552  15.239 -2.5595  0.6308  1.2457
 9791TIP3   OH250863   2.939   6.218  14.691 -0.4813 -0.5187  0.3868
 9791TIP3    H150864   2.989   6.246  14.768 -1.1610 -2.2313  1.4878
 9791TIP3    H250865   2.876   6.155  14.724  0.5868 -2.9406 -1.8629
 9792TIP3   OH250866   1.744   5.581  13.310 -0.5462 -0.0826  0.1292
 9792TIP3    H150867   1.778   5.668  13.289 -1.0262  0.0183 -0.2672
 9792TIP3    H250868   1.790   5.523  13.249 -1.6491  0.1609 -0.9944
 9793TIP3   OH250869   6.662   5.546  15.095 -0.1742 -0.0739  0.6337
 9793TIP3    H150870   6.628   5.571  15.009  2.0000 -2.2946 -0.9829
 9793TIP3    H250871   6.669   5.629  15.142 -0.6744  1.3258 -1.5954
 9794TIP3   OH250872   5.699   1.352   4.275  0.3493  0.1768 -0.3940
 9794TIP3    H150873   5.735   1.311   4.354  1.5183  1.3889 -0.2597
 9794TIP3    H250874   5.742   1.438   4.271  0.2159  0.1954 -2.2756
 9795TIP3   OH250875   4.996   3.409   0.625  0.1393 -0.2950 -0.4186
 9795TIP3    H150876   4.908   3.391   0.590  0.2256  0.7235 -1.2235
 9795TIP3    H250877   5.050   3.423   0.547  0.8920 -0.3470  0.0840
 9796TIP3   OH250878   3.912   4.428  15.209  0.4570 -0.1403 -0.2841
 9796TIP3    H150879   3.874   4.391  15.288  0.1271  1.7035  0.4655
 9796TIP3    H250880   3.840   4.476  15.168  0.9457 -0.0152 -1.0206
 9797TIP3   OH250881   3.047   3.196   3.780 -0.1447 -0.5368 -0.2999
 9797TIP3    H150882   3.075   3.281   3.745 -1.6957 -0.5304 -1.6319
 9797TIP3    H250883   2.986   3.219   3.850  1.0129 -0.5771  0.7640
 9798TIP3   OH250884   4.109   0.194  11.723 -0.4206  0.2817  0.3448
 9798TIP3    H150885   4.101   0.105  11.689 -3.1469 -0.0074  1.5089
 9798TIP3    H250886   4.191   0.226  11.685  0.3644 -2.4855 -0.5731
 9799TIP3   OH250887   2.296   6.525  12.348  0.0027  0.1403  0.4331
 9799TIP3    H150888   2.354   6.478  12.288 -0.6164 -0.1380  0.0405
 9799TIP3    H250889   2.209   6.516  12.309  0.1784  4.1678 -1.2897
 9800TIP3   OH250890   6.475   1.131   2.451  0.0090 -0.1102  0.1439
 9800TIP3    H150891   6.474   1.223   2.478  0.3705  0.2180 -0.9191
 9800TIP3    H250892   6.382   1.108   2.443 -0.1735 -0.5416  2.6101
 9801TIP3   OH250893   2.224   5.709  16.167 -0.5721  0.3257  0.3489
 9801TIP3    H150894   2.286   5.636  16.175 -1.5577 -0.8968 -2.1526
 9801TIP3    H250895   2.276   5.787  16.186  1.4498 -0.7526 -0.5005
 9802TIP3   OH250896   1.888   6.462  15.702  0.1310  0.2539  0.2898
 9802TIP3    H150897   1.880   6.367  15.698 -0.5946  0.3335 -0.2477
 9802TIP3    H250898   1.865   6.483  15.793  0.6825 -0.1083  0.5225
 9803TIP3   OH250899   2.994   2.934   0.255 -0.1599  0.3249 -0.0540
 9803TIP3    H150900   3.029   2.926   0.344  0.5449  1.8072 -0.1477
 9803TIP3    H250901   2.899   2.931   0.266 -0.1955  2.7356  1.1056
 9804TIP3   OH250902   0.328   0.386   5.720  0.2158 -0.4608  0.0784
 9804TIP3    H150903   0.248   0.413   5.766  0.7775  1.0941  0.2320
 9804TIP3    H250904   0.397   0.439   5.761  0.9548 -0.0761 -1.5914
 9805TIP3   OH250905   3.010   3.076   5.717 -0.2227  0.0914 -0.5174
 9805TIP3    H150906   3.057   2.994   5.731  0.5795  0.8549  1.7087
 9805TIP3    H250907   3.038   3.105   5.630  0.6571 -1.2407 -0.7098
 9806TIP3   OH250908   3.041   3.056   1.403  0.2023  0.0035  0.1233
 9806TIP3    H150909   2.983   3.041   1.328 -0.3588  0.3112  0.4892
 9806TIP3    H250910   3.122   3.011   1.379 -0.3188 -0.7938 -0.2263
 9807TIP3   OH250911   6.705   4.920  12.114 -0.2281  0.3407  0.3152
 9807TIP3    H150912   6.742   4.834  12.097 -0.8986  0.1890 -0.4448
 9807TIP3    H250913   6.777   4.970  12.151 -0.3978 -1.1533  2.8524
 9808TIP3   OH250914   6.770   3.673   3.443  0.3021  0.4104  0.1847
 9808TIP3    H150915   6.827   3.748   3.427 -1.5473  1.2974 -3.1612
 9808TIP3    H250916   6.693   3.709   3.486  0.6213 -0.1195  1.2283
 9809TIP3   OH250917   5.844   6.456   4.459 -0.1172  0.2051 -0.1972
 9809TIP3    H150918   5.902   6.490   4.528 -1.1771  1.1514  0.2692
 9809TIP3    H250919   5.829   6.531   4.402 -1.9207  0.3824  0.4344
 9810TIP3   OH250920   0.788   4.428   4.827  0.4170 -0.4362 -0.2002
 9810TIP3    H150921   0.770   4.451   4.736  0.6756  0.2122 -0.0920
 9810TIP3    H250922   0.720   4.365   4.850 -0.2824  0.1984 -0.5147
 9811TIP3   OH250923   3.933   4.475   1.187 -0.3529 -0.2032  0.7738
 9811TIP3    H150924   3.985   4.401   1.157  0.2743  0.3947  0.3645
 9811TIP3    H250925   3.942   4.541   1.118 -1.2947  0.0857  0.9006
 9812TIP3   OH250926   4.974   5.213  16.909 -0.0411 -0.1038  0.0409
 9812TIP3    H150927   4.932   5.294  16.936  1.4396  0.9541 -0.7368
 9812TIP3    H250928   4.901   5.154  16.889 -1.1751  1.5395 -0.8773
 9813TIP3   OH250929   2.512   1.455   3.808 -0.0230  0.3391  0.3641
 9813TIP3    H150930   2.577   1.501   3.755 -0.1261  0.7377  0.5795
 9813TIP3    H250931   2.556   1.373   3.834 -0.0478  0.0461 -0.4942
 9814TIP3   OH250932   0.248   1.183   4.350  0.3043 -0.6008 -0.7858
 9814TIP3    H150933   0.342   1.181   4.330 -0.0568  1.3348 -3.0720
 9814TIP3    H250934   0.216   1.262   4.307 -2.2658 -0.7880  0.6107
 9815TIP3   OH250935   5.205   2.816  11.238 -0.7243 -0.6513  0.0197
 9815TIP3    H150936   5.123   2.820  11.188 -0.3109 -0.8677 -0.6823
 9815TIP3    H250937   5.253   2.895  11.211 -0.9238 -0.2422  0.8327
 9816TIP3   OH250938   1.534   6.672   1.427 -0.4042  0.0917  0.0694
 9816TIP3    H150939   1.517   6.626   1.510  1.7070  0.0243  0.5302
 9816TIP3    H250940   1.557   6.603   1.365  2.9982  0.3537  0.8202
 9817TIP3   OH250941   0.851   0.409  13.209  0.1332  0.3099 -0.1215
 9817TIP3    H150942   0.790   0.447  13.272  1.4270  0.5265  1.0624
 9817TIP3    H250943   0.807   0.416  13.124 -0.6702  2.2584  0.4044
 9818TIP3   OH250944   4.326   1.289   6.398 -0.0335 -0.3320  0.2545
 9818TIP3    H150945   4.308   1.239   6.477 -1.2893  1.1353  0.9547
 9818TIP3    H250946   4.378   1.364   6.428  2.5879 -1.5326 -0.8953
 9819TIP3   OH250947   5.478   3.733   5.775 -0.3123 -0.1457  0.3280
 9819TIP3    H150948   5.536   3.808   5.786 -0.6262 -0.1194  2.1422
 9819TIP3    H250949   5.454   3.734   5.682 -0.1341  1.8443  0.2700
 9820TIP3   OH250950   4.447   1.669   4.413 -0.1015 -0.8437 -0.3095
 9820TIP3    H150951   4.396   1.594   4.382 -0.6568 -0.4765 -0.3057
 9820TIP3    H250952   4.474   1.646   4.502 -1.5467 -0.4329  0.2581
 9821TIP3   OH250953   4.249   3.108  15.377 -0.0979 -0.0553  0.2788
 9821TIP3    H150954   4.163   3.066  15.371  0.1412 -0.3417 -1.6227
 9821TIP3    H250955   4.311   3.038  15.355  0.6418  0.1631  1.5829
 9822TIP3   OH250956   5.581   3.648   1.751  0.2089 -0.2142  0.6693
 9822TIP3    H150957   5.636   3.718   1.787 -0.1762  1.8038 -2.2235
 9822TIP3    H250958   5.507   3.641   1.812  0.0167  2.3323  0.8489
 9823TIP3   OH250959   0.646   0.306  16.431 -0.2714  0.2623  0.2621
 9823TIP3    H150960   0.578   0.248  16.465 -0.0927  0.1045  0.3562
 9823TIP3    H250961   0.599   0.381  16.395 -0.4278  1.1568  2.1944
 9824TIP3   OH250962   3.459   3.576   2.739 -0.2244 -0.2125  0.1675
 9824TIP3    H150963   3.492   3.547   2.824  2.2900 -0.5681 -0.8476
 9824TIP3    H250964   3.505   3.659   2.723 -0.6348 -0.1795 -0.8556
 9825TIP3   OH250965   0.617   3.954  15.620 -0.0965 -0.1196 -0.4016
 9825TIP3    H150966   0.607   3.966  15.714  0.4780  0.0071 -0.3515
 9825TIP3    H250967   0.678   4.023  15.593 -0.5760  0.1037 -0.9401
 9826TIP3   OH250968   1.134   2.976  13.082 -0.0957 -0.6193 -0.2410
 9826TIP3    H150969   1.222   3.000  13.054 -0.6245  0.5349 -1.0063
 9826TIP3    H250970   1.146   2.899  13.138  1.4580 -0.0567  0.2477
 9827TIP3   OH250971   0.167   3.285  13.230  0.0313  0.9331 -0.7691
 9827TIP3    H150972   0.155   3.319  13.319 -0.5969 -2.0110  0.3821
 9827TIP3    H250973   0.078   3.269  13.199  0.2868  1.1203 -1.6312
 9828TIP3   OH250974   2.167   1.198   5.387 -0.8862 -0.3767  0.2428
 9828TIP3    H150975   2.253   1.237   5.403 -0.6109 -0.5869 -0.6916
 9828TIP3    H250976   2.105   1.265   5.414 -0.4237  0.0587  0.2341
 9829TIP3   OH250977   4.713   5.526  14.813 -0.4700 -0.0989 -0.1917
 9829TIP3    H150978   4.747   5.502  14.899  1.2440  0.0400 -0.7961
 9829TIP3    H250979   4.758   5.468  14.752 -3.2563 -1.7112 -0.8654
 9830TIP3   OH250980   4.594   5.217  12.011 -0.3363  0.1000 -0.5087
 9830TIP3    H150981   4.538   5.270  12.067 -0.3247  0.6325 -0.9993
 9830TIP3    H250982   4.572   5.127  12.035 -0.2235  0.3144  0.4524
 9831TIP3   OH250983   1.097   1.605  14.021 -0.4513 -0.1196 -0.0523
 9831TIP3    H150984   1.183   1.593  13.981 -1.5263  0.0097 -2.5739
 9831TIP3    H250985   1.097   1.696  14.051  0.2513 -0.0781 -0.1639
 9832TIP3   OH250986   2.112   3.073  15.220  0.2944 -0.4943  0.2597
 9832TIP3    H150987   2.074   3.157  15.246  1.2033 -0.2391  0.8157
 9832TIP3    H250988   2.037   3.021  15.191 -0.1943  0.7427 -0.7689
 9833TIP3   OH250989   0.424   0.549   5.510  0.0803  0.2698  0.0641
 9833TIP3    H150990   0.370   0.482   5.553  0.9389  0.0178  0.7666
 9833TIP3    H250991   0.365   0.623   5.498 -0.2431  0.2546  1.4723
 9834TIP3   OH250992   0.671   6.521   3.336  0.9570  0.2626  0.1219
 9834TIP3    H150993   0.667   6.597   3.277 -0.0740  1.8854  2.1651
 9834TIP3    H250994   0.634   6.449   3.284  1.2963  1.2809 -1.6368
 9835TIP3   OH250995   1.698   1.918   0.465  0.4843 -0.0052 -0.0098
 9835TIP3    H150996   1.779   1.869   0.478  0.9872  0.2747 -1.8434
 9835TIP3    H250997   1.692   1.974   0.542  0.3343 -2.2581  1.7530
 9836TIP3   OH250998   0.684   6.362   2.824 -0.8502  0.0956  0.1489
 9836TIP3    H150999   0.754   6.371   2.759 -0.8253 -0.9282  0.0278
 9836TIP3    H251000   0.728   6.378   2.908  0.0004 -2.4657  0.2722
 9837TIP3   OH251001   4.482   0.071   0.065 -0.1423 -0.1407 -0.2902
 9837TIP3    H151002   4.540   0.143   0.039 -0.9966  0.1070 -1.6104
 9837TIP3    H251003   4.456   0.092   0.155  1.4910 -0.0665  0.1919
 9838TIP3   OH251004   6.711   1.295   1.733  0.2456  0.1869  0.8565
 9838TIP3    H151005   6.663   1.220   1.768 -0.4832  0.4312  0.4087
 9838TIP3    H251006   6.694   1.366   1.796 -4.2310  1.7613 -1.6356
 9839TIP3   OH251007   1.107   3.706  15.686 -0.7604  0.0117 -0.1805
 9839TIP3    H151008   1.072   3.701  15.597  2.5968 -0.2780 -1.6407
 9839TIP3    H251009   1.087   3.621  15.725 -2.2304  0.1234 -0.6357
 9840TIP3   OH251010   6.066   3.615   2.003 -0.2109  0.6491 -0.2117
 9840TIP3    H151011   6.090   3.616   1.910 -0.8025  0.9711 -0.3647
 9840TIP3    H251012   5.973   3.590   2.004  0.7212 -3.6831  0.5178
 9841TIP3   OH251013   5.387   6.388  15.749  0.2435 -0.5194  0.1149
 9841TIP3    H151014   5.465   6.333  15.758  0.3372 -0.6003 -1.1114
 9841TIP3    H251015   5.403   6.442  15.672 -0.8535 -0.4477 -0.0842
 9842TIP3   OH251016   2.714   5.739  15.912 -0.0518 -0.1748 -0.0546
 9842TIP3    H151017   2.667   5.725  15.829 -0.5316  1.3601 -0.0743
 9842TIP3    H251018   2.806   5.726  15.890 -0.2644 -0.8649 -0.5698
 9843TIP3   OH251019   0.918   1.645  11.678  0.2105  0.9072 -0.6092
 9843TIP3    H151020   0.844   1.666  11.621 -0.8823  1.6238  0.9992
 9843TIP3    H251021   0.879   1.594  11.750  1.7023 -0.8447 -0.9649
 9844TIP3   OH251022   3.254   0.372  14.595 -0.4075 -0.0759  0.1063
 9844TIP3    H151023   3.218   0.459  14.578 -0.5503 -0.6421 -3.0768
 9844TIP3    H251024   3.185   0.311  14.568  0.1918 -1.2118  1.0048
 9845TIP3   OH251025   6.535   0.800  15.744 -0.0045 -0.1829 -0.3618
 9845TIP3    H151026   6.557   0.874  15.801 -2.6006  0.0300  0.5022
 9845TIP3    H251027   6.579   0.725  15.784  0.0170  0.3530  0.6475
 9846TIP3   OH251028   0.284   1.531  14.967  0.3797 -0.1293  0.0358
 9846TIP3    H151029   0.318   1.448  15.001 -3.2021 -1.6048  0.4845
 9846TIP3    H251030   0.256   1.579  15.045  0.2902  0.4769 -0.3653
 9847TIP3   OH251031   1.129   6.676  16.779 -0.2530 -0.3227  0.9084
 9847TIP3    H151032   1.047   6.697  16.735 -0.8803 -0.5650  1.9185
 9847TIP3    H251033   1.137   6.741  16.849  0.7041  0.0349  0.4871
 9848TIP3   OH251034   0.729   4.759  12.006  0.6188 -0.1257  0.6083
 9848TIP3    H151035   0.775   4.842  12.013 -0.6420  0.5693  0.8698
 9848TIP3    H251036   0.728   4.724  12.095 -2.0937  1.4031  1.2704
 9849TIP3   OH251037   0.415   3.335  13.316  0.3252 -0.1694  0.1130
 9849TIP3    H151038   0.339   3.316  13.262 -0.0222  1.6702 -0.0912
 9849TIP3    H251039   0.476   3.264  13.298 -0.4091 -0.4234 -1.4965
 9850TIP3   OH251040   4.468   3.774  11.717  0.0018  0.3139  0.4293
 9850TIP3    H151041   4.521   3.779  11.637  1.4599  1.0916  1.3882
 9850TIP3    H251042   4.403   3.844  11.707  0.6635  0.9153  0.2500
 9851TIP3   OH251043   1.470   2.267  16.695  0.5099 -0.1527 -0.0529
 9851TIP3    H151044   1.400   2.229  16.642 -2.6547  3.2884  1.1826
 9851TIP3    H251045   1.475   2.210  16.773  0.6799 -1.6297 -1.1056
 9852TIP3   OH251046   3.573   3.733   5.495  0.0982 -0.2081 -0.4033
 9852TIP3    H151047   3.574   3.805   5.558 -0.9553 -0.0686 -0.5138
 9852TIP3    H251048   3.487   3.693   5.507 -0.5593  0.4745 -2.4510
 9853TIP3   OH251049   4.589   3.746   6.486 -0.3772 -0.3148  0.2580
 9853TIP3    H151050   4.553   3.662   6.457  0.5953 -0.7655  0.3027
 9853TIP3    H251051   4.553   3.759   6.573  0.5028 -1.3704  0.8132
 9854TIP3   OH251052   2.061   4.344  11.585  0.2644 -0.5694 -0.2246
 9854TIP3    H151053   2.040   4.308  11.672  3.5229  0.2785  1.0737
 9854TIP3    H251054   2.047   4.438  11.594 -0.1431 -0.5607 -0.8979
 9855TIP3   OH251055   4.218   1.839  14.860  0.1577  0.2876  0.1271
 9855TIP3    H151056   4.277   1.908  14.830 -1.0628  1.4542  0.2970
 9855TIP3    H251057   4.229   1.768  14.798 -0.1896  1.5235 -1.4018
 9856TIP3   OH251058   3.411   2.981  16.353  0.2413 -0.1014  0.3281
 9856TIP3    H151059   3.401   2.911  16.417  1.8737 -1.9296 -1.2769
 9856TIP3    H251060   3.321   3.010  16.334 -0.6982 -3.1393 -0.3473
 9857TIP3   OH251061   5.187   4.084  14.092  1.0843 -0.3653 -0.2181
 9857TIP3    H151062   5.231   4.169  14.088  2.1744 -0.8194  1.3860
 9857TIP3    H251063   5.251   4.022  14.057  1.9422 -1.0790  2.4023
 9858TIP3   OH251064   3.070   3.148   2.431  0.1170  0.9771 -0.0433
 9858TIP3    H151065   3.010   3.148   2.357  0.8751  1.0994 -0.6668
 9858TIP3    H251066   3.156   3.168   2.393  0.7815 -0.4372  0.6420
 9859TIP3   OH251067   4.732   5.112  13.445 -0.0624 -0.0427  0.2612
 9859TIP3    H151068   4.689   5.195  13.465  1.1072  0.3727  1.1593
 9859TIP3    H251069   4.660   5.052  13.424 -1.0389  0.7563  1.2097
 9860TIP3   OH251070   0.159   1.924   2.490  0.0616  0.1210 -0.3772
 9860TIP3    H151071   0.067   1.917   2.516  0.2998 -0.9818  0.2332
 9860TIP3    H251072   0.171   2.016   2.467 -1.1658  0.2965 -0.3698
 9861TIP3   OH251073   3.207   2.781  12.345 -0.1701  0.2256  0.1732
 9861TIP3    H151074   3.292   2.740  12.358  0.7379  1.2530 -2.0179
 9861TIP3    H251075   3.209   2.814  12.256 -1.9447  2.4564  0.8436
 9862TIP3   OH251076   3.421   5.828  12.112 -0.2546  0.1933 -0.2720
 9862TIP3    H151077   3.339   5.814  12.066 -1.9250  2.1512  1.8689
 9862TIP3    H251078   3.440   5.744  12.154 -2.3369  0.2327  0.8597
 9863TIP3   OH251079   0.222   4.662  11.643  0.1567 -0.1735  0.0513
 9863TIP3    H151080   0.243   4.658  11.737  2.9849  0.9172 -0.4508
 9863TIP3    H251081   0.129   4.640  11.639 -0.6556  1.9274  3.3470
 9864TIP3   OH251082   4.777   2.522   0.334  0.3270 -0.1498 -0.1247
 9864TIP3    H151083   4.687   2.493   0.349  0.9917 -2.1301  0.3563
 9864TIP3    H251084   4.830   2.444   0.350  2.0768  0.7661 -1.1909
 9865TIP3   OH251085   1.079   0.675  12.766  0.1273  0.0936  0.9569
 9865TIP3    H151086   1.024   0.600  12.746 -0.5331  0.6078  0.7928
 9865TIP3    H251087   1.133   0.687  12.687 -1.2707  1.0721  0.0939
 9866TIP3   OH251088   2.740   5.906  11.239  0.6041 -0.9750  0.1272
 9866TIP3    H151089   2.791   5.986  11.249  0.4367 -0.9676  1.0352
 9866TIP3    H251090   2.762   5.854  11.316 -0.9214 -0.8642  0.6917
 9867TIP3   OH251091   1.219   5.795  10.956  0.3201 -0.0012 -0.2374
 9867TIP3    H151092   1.135   5.751  10.952  1.0710 -1.4165 -1.2882
 9867TIP3    H251093   1.206   5.876  10.906 -0.5742  0.0987  0.1438
 9868TIP3   OH251094   6.832   1.658  14.919 -0.4280  0.5080 -0.6091
 9868TIP3    H151095   6.908   1.715  14.907  0.1120 -0.3887 -1.5698
 9868TIP3    H251096   6.774   1.708  14.976  0.0949  1.9526 -1.2982
 9869TIP3   OH251097   4.576   4.997  16.682 -0.5822 -0.9663  0.6036
 9869TIP3    H151098   4.481   4.993  16.694 -0.6335 -0.5896  0.3324
 9869TIP3    H251099   4.598   4.914  16.641 -0.6760 -1.4164  1.4434
 9870TIP3   OH251100   2.348   6.669  15.980 -0.2523 -0.2721 -0.6548
 9870TIP3    H151101   2.332   6.581  16.015 -0.5509  0.2559  0.5923
 9870TIP3    H251102   2.428   6.697  16.023 -0.6094  0.3834 -0.4090
 9871TIP3   OH251103   5.285   5.025   0.717 -0.1239 -0.1802 -0.5670
 9871TIP3    H151104   5.325   5.035   0.631 -0.6554  0.1518 -0.7742
 9871TIP3    H251105   5.357   4.996   0.773  0.2857 -0.1253 -1.0585
 9872TIP3   OH251106   6.037   1.156  14.105 -0.0484 -0.0750 -0.2534
 9872TIP3    H151107   6.104   1.224  14.092  1.6054 -1.5394  0.1601
 9872TIP3    H251108   5.987   1.155  14.024  1.5421 -0.0849 -1.2714
 9873TIP3   OH251109   4.574   6.305  13.815  0.1531  0.1403  0.2568
 9873TIP3    H151110   4.605   6.395  13.804 -0.1167  0.7481  3.5705
 9873TIP3    H251111   4.533   6.304  13.901  0.2904 -3.2388  0.4094
 9874TIP3   OH251112   4.373   0.271   5.150  0.4707 -0.2005  0.2973
 9874TIP3    H151113   4.410   0.233   5.230  2.7070 -0.4237 -0.7461
 9874TIP3    H251114   4.450   0.297   5.100 -0.9158  1.1045 -1.2291
 9875TIP3   OH251115   5.322   1.709   0.274  0.0626  0.1875 -0.1444
 9875TIP3    H151116   5.227   1.695   0.267  0.0510  0.7277 -1.2644
 9875TIP3    H251117   5.358   1.666   0.196  0.6603  0.7060 -0.1569
 9876TIP3   OH251118   2.560   3.172  13.378 -0.1277 -0.0077 -0.2623
 9876TIP3    H151119   2.617   3.112  13.427 -1.6494 -0.4169  1.0987
 9876TIP3    H251120   2.532   3.236  13.443 -1.5238 -0.0588 -0.7853
 9877TIP3   OH251121   1.760   5.267   2.134 -0.4308 -0.0510  0.0985
 9877TIP3    H151122   1.812   5.264   2.054  0.3027 -2.2637  0.5979
 9877TIP3    H251123   1.670   5.255   2.104 -0.7320  3.1939 -0.7072
 9878TIP3   OH251124   1.730   2.796  13.457 -0.1940 -0.0394  0.2738
 9878TIP3    H151125   1.698   2.885  13.474  1.3184  0.1638  2.5550
 9878TIP3    H251126   1.775   2.772  13.537  1.9507 -1.7721 -1.3488
 9879TIP3   OH251127   2.937   3.161  12.164 -0.5363  0.6070  0.1916
 9879TIP3    H151128   2.849   3.177  12.130 -0.5166 -0.6579 -0.5183
 9879TIP3    H251129   2.927   3.082  12.218 -0.4051  2.0982  2.5405
 9880TIP3   OH251130   6.164   3.466  11.149  0.7164  0.7721 -0.3030
 9880TIP3    H151131   6.077   3.465  11.109  0.8079 -2.4546 -0.7049
 9880TIP3    H251132   6.224   3.482  11.077  0.5395  2.4420 -0.1163
 9881TIP3   OH251133   5.064   1.499   2.431 -0.4501 -0.3329  0.2938
 9881TIP3    H151134   5.112   1.552   2.494 -0.8151 -0.4266  0.6575
 9881TIP3    H251135   5.069   1.410   2.466  1.0758 -0.7502 -0.8603
 9882TIP3   OH251136   5.786   5.234   3.353 -0.1882  0.1630 -0.0800
 9882TIP3    H151137   5.797   5.170   3.283  0.5947 -0.0813  0.2576
 9882TIP3    H251138   5.852   5.301   3.335 -0.5152  0.5053 -0.0199
 9883TIP3   OH251139   0.023   0.310   4.404 -0.3915  0.1860 -0.0048
 9883TIP3    H151140  -0.059   0.260   4.405 -0.7613  0.7334 -1.0189
 9883TIP3    H251141   0.090   0.246   4.381 -0.5875 -0.1827  0.4256
 9884TIP3   OH251142   3.728   0.393  16.756  0.2334 -0.2995  0.1948
 9884TIP3    H151143   3.701   0.478  16.788 -0.1714 -0.0814 -0.6914
 9884TIP3    H251144   3.652   0.336  16.771  0.6164 -0.5956  1.0846
 9885TIP3   OH251145   6.266   3.648   1.261  0.0794 -0.0975 -0.3978
 9885TIP3    H151146   6.263   3.645   1.166  0.0451  0.7355 -0.4249
 9885TIP3    H251147   6.197   3.709   1.286 -0.2191 -0.6568  0.1898
 9886TIP3   OH251148   5.071   5.492   4.117 -0.1162  0.0542 -0.5261
 9886TIP3    H151149   5.031   5.467   4.033  0.5051  0.8533 -1.0746
 9886TIP3    H251150   5.161   5.515   4.095  1.3045 -3.4150  0.9378
 9887TIP3   OH251151   4.207   6.071   5.767  0.1140  0.6235 -0.2083
 9887TIP3    H151152   4.170   6.104   5.849 -0.1127  1.6613 -0.7155
 9887TIP3    H251153   4.132   6.032   5.721  0.0463  0.9056 -0.3402
 9888TIP3   OH251154   5.670   2.047   5.933 -0.3567  0.3511  0.3793
 9888TIP3    H151155   5.758   2.009   5.936 -0.3485  0.2868 -0.5158
 9888TIP3    H251156   5.680   2.134   5.972  0.2696  0.6531 -0.4347
 9889TIP3   OH251157   5.604   0.049  13.111  0.1176 -0.7010 -0.0356
 9889TIP3    H151158   5.553   0.061  13.031 -0.6541  0.6101  0.6192
 9889TIP3    H251159   5.647   0.134  13.125 -0.3838 -0.6416  1.3361
 9890TIP3   OH251160   4.813   3.578  11.466 -0.0094 -0.1296  0.7899
 9890TIP3    H151161   4.884   3.520  11.494 -0.5318 -0.9486  0.4428
 9890TIP3    H251162   4.794   3.552  11.376 -1.1768 -0.3740  1.0848
 9891TIP3   OH251163   6.713   1.471   3.463 -0.3186 -0.5910  0.1392
 9891TIP3    H151164   6.675   1.448   3.548  2.8639 -1.0069  1.5806
 9891TIP3    H251165   6.726   1.388   3.419  1.7210 -0.7943  1.0188
 9892TIP3   OH251166   0.038   3.949   3.363 -0.2421 -0.1829  0.8496
 9892TIP3    H151167   0.071   4.000   3.289 -0.7007 -2.1688 -0.8420
 9892TIP3    H251168   0.116   3.907   3.400 -0.0580  0.5209  1.2724
 9893TIP3   OH251169   1.535   5.756   1.225 -0.3438  0.4700  0.0788
 9893TIP3    H151170   1.558   5.785   1.313  0.6566  4.3748 -1.2622
 9893TIP3    H251171   1.439   5.752   1.225 -0.3663  0.6775  1.2798
 9894TIP3   OH251172   1.725   1.192  17.101  0.0252 -0.0485  0.1398
 9894TIP3    H151173   1.807   1.167  17.144  0.5936  1.9912  0.3198
 9894TIP3    H251174   1.661   1.127  17.131  1.8034 -2.5237 -1.0507
 9895TIP3   OH251175   4.200   5.617  12.088  0.3515  0.3933  0.2140
 9895TIP3    H151176   4.184   5.612  11.994 -0.1916  0.5943  0.2927
 9895TIP3    H251177   4.186   5.528  12.120  0.7588  0.2787  0.0684
 9896TIP3   OH251178   1.646   4.381   4.054  0.2815  0.2235  0.3708
 9896TIP3    H151179   1.689   4.366   3.969  0.9007  0.3222  0.6575
 9896TIP3    H251180   1.715   4.363   4.118 -0.1663  0.2147  0.8489
 9897TIP3   OH251181   0.869   4.734  13.254  0.1707  0.3582 -0.2082
 9897TIP3    H151182   0.882   4.656  13.200  0.7063  0.1244  0.2495
 9897TIP3    H251183   0.774   4.740  13.264  0.1271 -0.3008 -0.1649
 9898TIP3   OH251184   0.353   4.498   3.581  0.6810 -0.2770 -0.6823
 9898TIP3    H151185   0.429   4.442   3.599  0.1924 -0.5615  0.6202
 9898TIP3    H251186   0.363   4.572   3.640  1.6097  1.3631 -2.7783
 9899TIP3   OH251187   4.442   4.560   6.264 -0.0333 -0.0270  0.2793
 9899TIP3    H151188   4.453   4.469   6.290  0.5375  0.3959  1.6078
 9899TIP3    H251189   4.494   4.610   6.327  0.8500  1.1368 -1.2785
 9900TIP3   OH251190   6.241   0.036   5.680 -0.7121 -0.2354 -0.1196
 9900TIP3    H151191   6.292   0.104   5.723  2.5656 -1.4297 -1.7776
 9900TIP3    H251192   6.253  -0.042   5.734 -0.3938 -0.6302 -0.7472
 9901TIP3   OH251193   3.834   4.309   1.676 -0.2116 -0.2763  0.0638
 9901TIP3    H151194   3.788   4.386   1.709 -0.4649 -0.4737  0.1762
 9901TIP3    H251195   3.794   4.236   1.723  0.3228 -0.4366  0.2741
 9902TIP3   OH251196   1.496   6.726   2.545  0.3411 -0.0628  0.1047
 9902TIP3    H151197   1.448   6.690   2.620  1.1913  1.1887  1.3022
 9902TIP3    H251198   1.447   6.805   2.521  0.8563  0.3081  0.2622
 9903TIP3   OH251199   6.085   5.492  10.466  0.0389  0.2646 -0.0765
 9903TIP3    H151200   6.047   5.409  10.494  0.3341  0.0891 -0.1970
 9903TIP3    H251201   6.163   5.503  10.522 -0.0720  0.5216  0.0298
 9904TIP3   OH251202   0.248   5.530  15.774  0.0007  0.0894  0.0006
 9904TIP3    H151203   0.321   5.472  15.795  0.5184  0.6442 -0.2098
 9904TIP3    H251204   0.289   5.616  15.763 -0.5725  0.2598 -0.9402
 9905TIP3   OH251205   5.698   3.835  10.894  0.1408 -0.2324 -0.1936
 9905TIP3    H151206   5.605   3.845  10.875  0.1378  1.6252  0.5634
 9905TIP3    H251207   5.740   3.903  10.840  1.2681 -2.1163 -1.8140
 9906TIP3   OH251208   5.247   4.461  16.227  0.3440 -0.5076 -0.3211
 9906TIP3    H151209   5.330   4.457  16.180  1.4718 -0.7412  1.5875
 9906TIP3    H251210   5.262   4.525  16.297 -1.3169 -0.0356 -0.3613
 9907TIP3   OH251211   3.373   6.293   1.829  0.0339 -0.1915 -0.2984
 9907TIP3    H151212   3.374   6.334   1.916 -1.5582  0.3999 -0.5379
 9907TIP3    H251213   3.458   6.315   1.792 -0.0893  1.3867  0.2908
 9908TIP3   OH251214   0.541   3.067   2.334 -1.0336  0.1581  0.1960
 9908TIP3    H151215   0.578   3.084   2.421  2.0492 -3.0108 -0.2539
 9908TIP3    H251216   0.604   3.106   2.273 -0.6084 -1.6074 -0.5695
 9909TIP3   OH251217   2.603   0.150  10.619 -0.3153  0.0163  0.5219
 9909TIP3    H151218   2.615   0.105  10.702 -0.9106  0.4314  0.8341
 9909TIP3    H251219   2.640   0.238  10.633  2.8484 -0.9552 -0.7225
 9910TIP3   OH251220   5.749   4.559  11.218 -0.0364 -0.0322  0.2593
 9910TIP3    H151221   5.717   4.537  11.305 -2.9232 -0.7727 -0.8432
 9910TIP3    H251222   5.827   4.505  11.206  0.3074 -0.0414  2.2762
 9911TIP3   OH251223   3.826   6.683  12.922  0.1415  0.3449  0.2871
 9911TIP3    H151224   3.905   6.633  12.904  1.1975  1.2154  2.2731
 9911TIP3    H251225   3.821   6.746  12.850 -0.4456 -1.5574 -1.4775
 9912TIP3   OH251226   3.972   6.368  13.822 -0.2044 -0.1886  0.7845
 9912TIP3    H151227   4.035   6.325  13.764 -0.5077  2.6946 -1.8957
 9912TIP3    H251228   3.890   6.322  13.806  0.0957 -0.5533  0.2613
 9913TIP3   OH251229   4.360   4.732   0.618 -0.1221 -0.2686 -0.4517
 9913TIP3    H151230   4.382   4.747   0.526 -1.5922  0.8853 -0.6691
 9913TIP3    H251231   4.276   4.686   0.615 -0.6104  0.5384  0.2953
 9914TIP3   OH251232   2.225   3.620   2.404 -0.6952 -0.4303  0.2808
 9914TIP3    H151233   2.241   3.537   2.360  0.0648 -1.7708  2.9054
 9914TIP3    H251234   2.299   3.676   2.379 -1.6460 -0.1531 -2.1749
 9915TIP3   OH251235   6.340   3.892   1.831  0.1406 -0.3854 -0.8522
 9915TIP3    H151236   6.256   3.896   1.877  0.2930 -0.8883 -0.5231
 9915TIP3    H251237   6.385   3.973   1.856  0.8869 -1.3749  1.2096
 9916TIP3   OH251238   1.049   1.209  12.794  0.1677 -0.3655  0.3199
 9916TIP3    H151239   0.995   1.131  12.808 -2.9028  1.3446 -1.0754
 9916TIP3    H251240   1.107   1.186  12.721 -0.6247 -1.3784 -0.0061
 9917TIP3   OH251241   1.058   2.940   3.303  0.1470  0.0658 -0.4395
 9917TIP3    H151242   1.094   3.028   3.312 -1.0460  0.5993 -0.7111
 9917TIP3    H251243   1.012   2.940   3.219  0.7215 -1.0471 -0.7843
 9918TIP3   OH251244   1.099   2.334   2.451  0.4419 -0.3256  0.0005
 9918TIP3    H151245   1.004   2.338   2.459  0.0164 -0.9110 -3.2819
 9918TIP3    H251246   1.130   2.311   2.539 -2.4309 -0.3365  1.1077
 9919TIP3   OH251247   5.380   0.764   4.586 -0.0130  0.5399 -0.2703
 9919TIP3    H151248   5.402   0.771   4.493 -0.8392  1.7007 -0.3931
 9919TIP3    H251249   5.308   0.701   4.589  0.6308 -0.2278 -0.2865
 9920TIP3   OH251250   4.475   0.997  16.683 -0.1488  0.3041 -0.6112
 9920TIP3    H151251   4.437   1.002  16.770 -4.3642 -2.5123 -1.9931
 9920TIP3    H251252   4.452   1.080  16.641 -0.5566  0.5373  0.0670
 9921TIP3   OH251253   3.550   1.512   3.700 -0.1446 -0.1391  0.4949
 9921TIP3    H151254   3.573   1.580   3.636 -1.5984 -0.4084 -0.3588
 9921TIP3    H251255   3.584   1.545   3.783  1.0141  0.6389 -0.2607
 9922TIP3   OH251256   3.590   3.646   5.962 -0.4510 -0.2677 -0.4288
 9922TIP3    H151257   3.676   3.671   5.928 -1.0779  1.6847 -0.6548
 9922TIP3    H251258   3.608   3.619   6.052  0.3746  0.3988 -0.3808
 9923TIP3   OH251259   1.734   3.567  11.987  0.4521  0.8639 -0.5083
 9923TIP3    H151260   1.730   3.540  11.896 -0.8708 -0.9172  0.0183
 9923TIP3    H251261   1.644   3.560  12.019  0.9902  0.7725  1.0986
 9924TIP3   OH251262   2.198   3.440  14.378  0.8182  0.4680  0.0850
 9924TIP3    H151263   2.140   3.500  14.330  1.1572  0.9374  0.2640
 9924TIP3    H251264   2.226   3.489  14.455  0.7999 -0.0555  0.4330
 9925TIP3   OH251265   4.534   4.322   6.021 -0.4084  0.2781 -0.2442
 9925TIP3    H151266   4.599   4.354   6.084 -0.5852  1.6775 -0.7502
 9925TIP3    H251267   4.573   4.242   5.985 -0.4747 -0.8321  1.9091
 9926TIP3   OH251268   1.832   3.620  14.501 -0.2314  0.2012 -0.2619
 9926TIP3    H151269   1.796   3.536  14.473 -0.0536  0.7754 -2.3340
 9926TIP3    H251270   1.926   3.612  14.485 -0.4873  1.6762 -3.1292
 9927TIP3   OH251271   4.643   2.658  16.893 -0.1179  0.1968  0.3302
 9927TIP3    H151272   4.619   2.734  16.947  0.3041  1.1877 -0.8434
 9927TIP3    H251273   4.738   2.662  16.888 -0.0496 -0.7656  0.7409
 9928TIP3   OH251274   2.641   4.202  11.855 -0.0525 -0.2930  0.4720
 9928TIP3    H151275   2.728   4.238  11.873 -0.2883  1.2287 -1.1001
 9928TIP3    H251276   2.645   4.112  11.888  0.8495  0.8536  3.8508
 9929TIP3   OH251277   0.739   2.290   0.193 -0.3424  0.4050  0.3414
 9929TIP3    H151278   0.742   2.367   0.249 -1.7787 -0.0968  1.1666
 9929TIP3    H251279   0.794   2.313   0.118 -1.0832  2.4103  0.3369
 9930TIP3   OH251280   6.189   4.574  10.238  0.0798 -0.1316  0.8170
 9930TIP3    H151281   6.229   4.533  10.161  0.5251  1.0823  0.3752
 9930TIP3    H251282   6.106   4.527  10.250  0.5976 -1.1832  0.3775
 9931TIP3   OH251283   0.105   6.138   0.655 -0.6929 -0.3764  0.1306
 9931TIP3    H151284   0.099   6.053   0.699 -2.1363 -0.1964  0.3200
 9931TIP3    H251285   0.107   6.117   0.562 -3.5661 -0.5957  0.0297
 9932TIP3   OH251286   0.133   0.412  15.993 -0.7753 -0.3214  0.3677
 9932TIP3    H151287   0.126   0.418  15.898 -1.6690  0.1364  0.4519
 9932TIP3    H251288   0.225   0.389  16.009 -0.2403  1.0555 -0.5508
 9933TIP3   OH251289   0.521   5.633   5.530  0.0987  0.5265 -0.8749
 9933TIP3    H151290   0.579   5.589   5.593  1.7335  0.5102 -2.3304
 9933TIP3    H251291   0.560   5.720   5.518 -1.0963  1.1005 -0.6953
 9934TIP3   OH251292   2.700   1.116  13.951  0.4829 -0.2494  0.2026
 9934TIP3    H151293   2.635   1.046  13.958 -1.1230  0.9458 -1.4760
 9934TIP3    H251294   2.709   1.151  14.039 -0.0761 -1.3828  0.7204
 9935TIP3   OH251295   2.636   4.238  14.607 -0.5481  0.1201  0.7838
 9935TIP3    H151296   2.699   4.286  14.553  1.5908 -1.4240  1.7518
 9935TIP3    H251297   2.570   4.207  14.545  0.0069  1.1996 -0.3969
 9936TIP3   OH251298   2.310   6.414  11.928 -0.6720 -0.3517  0.4103
 9936TIP3    H151299   2.341   6.377  12.010 -0.3829  0.5835  0.7363
 9936TIP3    H251300   2.230   6.461  11.952 -0.4195  0.1823  0.2266
 9937TIP3   OH251301   4.216   0.499  16.279 -0.7577  0.4837  0.3812
 9937TIP3    H151302   4.231   0.533  16.191 -0.0797 -0.7982 -0.0317
 9937TIP3    H251303   4.187   0.575  16.330  0.8185  1.7063 -0.4468
 9938TIP3   OH251304   5.487   2.030   0.682  0.6375  0.0831 -0.1964
 9938TIP3    H151305   5.557   1.996   0.626  0.5379  0.3639 -0.4952
 9938TIP3    H251306   5.406   1.996   0.643  0.6023 -0.2032  0.1214
 9939TIP3   OH251307   0.243   1.993   1.217  0.0571  0.4690  0.1599
 9939TIP3    H151308   0.319   1.951   1.178 -0.5121 -0.1481 -0.3249
 9939TIP3    H251309   0.277   2.072   1.258  0.9500  0.2097 -0.0576
 9940TIP3   OH251310   3.683   0.850   2.519  0.7164 -0.2105  0.1491
 9940TIP3    H151311   3.638   0.767   2.503  0.7253 -0.1529 -0.1947
 9940TIP3    H251312   3.695   0.854   2.614  0.4269 -0.4521  0.1965
 9941TIP3   OH251313   4.136   4.123   5.365  0.2342 -0.1553  0.1823
 9941TIP3    H151314   4.190   4.046   5.348  1.6309  1.0106 -0.8557
 9941TIP3    H251315   4.155   4.183   5.293 -2.4864  0.3185 -0.2468
 9942TIP3   OH251316   3.988   1.883  12.705 -0.2710 -0.5656 -0.2867
 9942TIP3    H151317   4.077   1.851  12.687 -0.1441 -0.3887  0.0190
 9942TIP3    H251318   3.995   1.978  12.695  0.6117 -0.0254  3.8425
 9943TIP3   OH251319   6.567   5.648   4.229  0.6013  0.4926 -0.2132
 9943TIP3    H151320   6.499   5.708   4.260 -0.5331 -0.7061 -0.2898
 9943TIP3    H251321   6.649   5.694   4.246 -0.0141  0.6088  3.0360
 9944TIP3   OH251322   3.272   0.988   5.072  0.5364  0.0338 -0.2481
 9944TIP3    H151323   3.241   1.031   4.992  1.9610  1.7256  0.0509
 9944TIP3    H251324   3.246   0.897   5.061 -2.9664  0.9267 -0.7689
 9945TIP3   OH251325   6.232   0.250   0.928 -0.2720  0.1495  0.5838
 9945TIP3    H151326   6.280   0.309   0.870 -1.5824 -1.5167 -2.4957
 9945TIP3    H251327   6.290   0.174   0.939 -0.4304  0.0265  0.5823
 9946TIP3   OH251328   2.581   1.482  16.552 -0.0818  0.0034 -0.0248
 9946TIP3    H151329   2.533   1.547  16.501 -0.8820 -1.2423 -0.9376
 9946TIP3    H251330   2.601   1.525  16.634  2.3532  2.5437 -1.7694
 9947TIP3   OH251331   6.730   1.620  15.976  0.4032 -0.0506  0.5703
 9947TIP3    H151332   6.736   1.709  16.011  0.3897 -0.2817  1.1775
 9947TIP3    H251333   6.638   1.611  15.949  0.8234  0.7636 -1.2926
 9948TIP3   OH251334   3.321   0.576   2.930  0.4792 -0.2641  0.0626
 9948TIP3    H151335   3.410   0.575   2.895  0.4847  1.3115 -0.0508
 9948TIP3    H251336   3.268   0.612   2.858 -0.3128 -1.4734  0.0192
 9949TIP3   OH251337   6.002   1.759  10.988  0.2357  0.6272 -0.0548
 9949TIP3    H151338   5.999   1.664  11.002 -0.4639  0.7506  0.7091
 9949TIP3    H251339   5.912   1.788  11.001  0.9782  1.8472  3.3114
 9950TIP3   OH251340   2.385   5.847  12.457 -0.7745  0.1649 -0.1260
 9950TIP3    H151341   2.478   5.871  12.459 -0.7930  0.4560 -1.5405
 9950TIP3    H251342   2.359   5.843  12.549  0.8362 -0.7558  0.3217
 9951TIP3   OH251343   2.157   4.512  11.896  0.0004 -0.4617 -0.2908
 9951TIP3    H151344   2.236   4.462  11.876 -0.1988 -1.2119  0.7150
 9951TIP3    H251345   2.176   4.601  11.864  0.8575 -0.8647 -0.9440
 9952TIP3   OH251346   3.717   1.196  12.999  0.0099  0.0510 -0.2251
 9952TIP3    H151347   3.729   1.106  12.970  1.6741 -0.4798  1.8257
 9952TIP3    H251348   3.781   1.246  12.948 -0.1248 -0.1106 -0.5564
 9953TIP3   OH251349   4.795   6.078   2.448  0.0381  0.0782  0.1267
 9953TIP3    H151350   4.726   6.144   2.461  1.0359  1.2964 -0.6184
 9953TIP3    H251351   4.815   6.081   2.355  1.1964 -0.1572  0.3487
 9954TIP3   OH251352   5.612   5.065  15.234  0.3556 -0.2039  0.7458
 9954TIP3    H151353   5.694   5.030  15.202  0.9765  2.0965 -0.3909
 9954TIP3    H251354   5.567   5.098  15.156 -1.6743 -1.3770  1.3326
 9955TIP3   OH251355   5.519   6.540   1.547 -0.6720 -0.1443  0.2403
 9955TIP3    H151356   5.586   6.521   1.481 -1.6228 -1.4561 -0.3939
 9955TIP3    H251357   5.436   6.536   1.499 -1.2411  1.2711  1.0472
 9956TIP3   OH251358   4.108   6.525  16.471  0.1439  0.6874 -0.0138
 9956TIP3    H151359   4.128   6.440  16.511 -2.0348 -0.4965 -1.2568
 9956TIP3    H251360   4.189   6.552  16.429  0.4974 -1.5400 -0.8625
 9957TIP3   OH251361   5.820   0.329  17.128  0.9668 -0.1600 -0.1539
 9957TIP3    H151362   5.828   0.395  17.197  1.8486 -0.7253  0.2952
 9957TIP3    H251363   5.856   0.373  17.050  1.1506  0.0375  0.0387
 9958TIP3   OH251364   5.463   1.089   5.782  0.1971 -0.2532 -0.2516
 9958TIP3    H151365   5.458   0.998   5.813 -0.2447 -0.1249  0.0537
 9958TIP3    H251366   5.552   1.117   5.805  0.1390 -0.4177  0.1896
 9959TIP3   OH251367   4.120   3.199   5.345 -0.4605 -0.0903 -0.3350
 9959TIP3    H151368   4.195   3.257   5.357 -0.4396 -0.2741  0.5222
 9959TIP3    H251369   4.097   3.171   5.434 -0.2343 -1.6833 -0.7504
 9960TIP3   OH251370   3.760   5.317  17.119 -0.0550  0.2822 -0.0437
 9960TIP3    H151371   3.709   5.249  17.163  0.0707  0.9122  1.1032
 9960TIP3    H251372   3.772   5.284  17.030  0.9007 -1.7050  0.7701
 9961TIP3   OH251373   4.259   2.151  15.532 -0.1357  0.0401  0.2933
 9961TIP3    H151374   4.260   2.240  15.499 -0.6275 -0.3735 -0.9021
 9961TIP3    H251375   4.235   2.097  15.456 -0.1540 -1.0759  1.0579
 9962TIP3   OH251376   2.372   6.153   3.013  0.5458  0.2196  0.1607
 9962TIP3    H151377   2.310   6.161   3.085 -1.7009  0.4240 -1.6741
 9962TIP3    H251378   2.422   6.234   3.014  0.5868  0.1938  1.4882
 9963TIP3   OH251379   0.833   2.967   1.452 -0.3127  0.5707 -0.4295
 9963TIP3    H151380   0.895   2.912   1.404 -1.7729 -0.0649 -1.6835
 9963TIP3    H251381   0.779   2.905   1.500 -1.2376  0.9518 -0.9409
 9964TIP3   OH251382   4.836   4.352  14.539 -0.5842 -0.2232 -0.1593
 9964TIP3    H151383   4.761   4.341  14.598 -0.6316  0.6500 -0.0387
 9964TIP3    H251384   4.841   4.446  14.524  2.4573  0.2058  2.4682
 9965TIP3   OH251385   0.080   2.729  11.789  0.3029 -0.5934  0.0374
 9965TIP3    H151386   0.074   2.637  11.765 -1.8358 -0.7867  1.0630
 9965TIP3    H251387   0.070   2.730  11.885  1.2507  0.6557  0.1651
 9966TIP3   OH251388   6.220   5.284   2.291  0.2778 -0.4266  0.0919
 9966TIP3    H151389   6.281   5.318   2.226  1.3398 -2.0510  0.1688
 9966TIP3    H251390   6.261   5.303   2.376  0.5009 -1.1526  0.1581
 9967TIP3   OH251391   5.839   6.560   5.343  0.1705 -0.3509 -0.4557
 9967TIP3    H151392   5.830   6.641   5.393  0.9460 -0.7440  0.3282
 9967TIP3    H251393   5.921   6.570   5.295  0.2850 -0.6940 -0.3310
 9968TIP3   OH251394   5.855   2.346   1.821 -0.6562  0.0717  0.3668
 9968TIP3    H151395   5.803   2.416   1.861 -0.2528 -0.0952  1.2101
 9968TIP3    H251396   5.946   2.373   1.833 -0.4602 -0.9654  1.4505
 9969TIP3   OH251397   0.927   2.550  16.067  0.2625 -0.0579 -0.1270
 9969TIP3    H151398   0.885   2.595  16.141 -1.8045 -1.3759 -0.4352
 9969TIP3    H251399   0.972   2.475  16.107  0.8201  0.3293 -0.0104
 9970TIP3   OH251400   5.613   4.058  17.143  0.1578 -0.2862  0.1999
 9970TIP3    H151401   5.592   4.139  17.097 -1.7112 -1.3158 -0.8608
 9970TIP3    H251402   5.566   4.064  17.226 -3.5074 -1.9192 -1.5399
 9971TIP3   OH251403   0.686   5.530  13.786  0.6897  0.2456 -1.1086
 9971TIP3    H151404   0.724   5.532  13.699 -0.0479  0.8820 -1.4288
 9971TIP3    H251405   0.594   5.553  13.773  0.5802  0.4092 -0.1596
 9972TIP3   OH251406   0.893   2.270   3.822  0.0146 -0.3670 -0.4553
 9972TIP3    H151407   0.859   2.349   3.781 -1.2223 -0.7502 -0.2162
 9972TIP3    H251408   0.893   2.289   3.916 -0.6577 -0.7648 -0.3644
 9973TIP3   OH251409   0.324   0.413  13.476  0.1226 -0.4764 -0.0764
 9973TIP3    H151410   0.229   0.422  13.463  0.3538 -0.2231 -1.8960
 9973TIP3    H251411   0.362   0.488  13.428  1.1909  0.5331  2.2115
 9974TIP3   OH251412   1.908   2.932  11.954  0.6580  0.4947  0.1541
 9974TIP3    H151413   1.995   2.909  11.986  0.5067 -0.8494 -0.3268
 9974TIP3    H251414   1.858   2.954  12.033  1.0566 -0.0724  0.5747
 9975TIP3   OH251415   3.031   0.289   4.050 -0.0798 -0.0526  0.1879
 9975TIP3    H151416   3.097   0.325   3.991  0.1514  1.2169  1.1784
 9975TIP3    H251417   2.951   0.286   3.999  1.1858 -4.4279 -2.0819
 9976TIP3   OH251418   1.910   3.000   1.044 -0.5202  0.8496 -0.4622
 9976TIP3    H151419   1.948   2.934   1.101  0.8958  1.6849 -0.3974
 9976TIP3    H251420   1.825   2.964   1.020 -0.8501  0.1444  1.5602
 9977TIP3   OH251421   1.576   5.649   3.864  0.1477 -0.3068 -0.8898
 9977TIP3    H151422   1.550   5.689   3.780  1.3793  1.4899 -0.4906
 9977TIP3    H251423   1.602   5.724   3.918 -1.4352 -1.3430  1.4395
 9978TIP3   OH251424   2.208   5.418   6.011  0.1603 -0.1484  0.2679
 9978TIP3    H151425   2.186   5.443   6.101 -0.3181  0.0555  0.0971
 9978TIP3    H251426   2.123   5.409   5.967  0.4007  0.1182 -0.2576
 9979TIP3   OH251427   6.774   0.964  12.325 -0.0196 -0.8495 -0.2650
 9979TIP3    H151428   6.781   1.013  12.244 -2.9600  0.0614 -0.0865
 9979TIP3    H251429   6.824   0.884  12.310  2.3364  0.7787 -1.6754
 9980TIP3   OH251430   4.240   3.297   1.769  0.9309  0.8046 -0.3187
 9980TIP3    H151431   4.229   3.392   1.777 -1.2537  0.8565 -2.5168
 9980TIP3    H251432   4.310   3.287   1.704  1.0337  0.9194 -0.2263
 9981TIP3   OH251433   1.303   0.184   3.043  0.2271  0.0006 -0.5568
 9981TIP3    H151434   1.384   0.232   3.026  0.9697 -1.0309 -0.0146
 9981TIP3    H251435   1.329   0.110   3.098 -1.0998 -0.2973 -0.2807
 9982TIP3   OH251436   3.217   5.470  12.225 -0.9866  0.7403  0.7576
 9982TIP3    H151437   3.291   5.492  12.169 -2.0448  2.7081  0.0399
 9982TIP3    H251438   3.187   5.385  12.193  0.4199  0.3077  0.5145
 9983TIP3   OH251439   4.100   3.087  13.384  0.1889 -0.5212  0.0301
 9983TIP3    H151440   4.047   3.153  13.341 -0.6857 -1.4704 -0.3717
 9983TIP3    H251441   4.173   3.071  13.324  0.1615 -0.2575 -0.0728
 9984TIP3   OH251442   6.827   6.317  10.702  0.2861  0.5526 -0.2658
 9984TIP3    H151443   6.825   6.409  10.727  1.1738  0.6966 -0.7080
 9984TIP3    H251444   6.833   6.270  10.786 -1.2799  0.8202  0.0352
 9985TIP3   OH251445   0.197   0.798   4.564 -0.0411 -0.2916 -0.2317
 9985TIP3    H151446   0.142   0.720   4.557 -0.2465 -0.1208 -0.4894
 9985TIP3    H251447   0.148   0.857   4.621  0.9679 -1.0984  1.5522
 9986TIP3   OH251448   6.671   0.178  15.537 -0.2552 -0.1423 -0.2058
 9986TIP3    H151449   6.758   0.140  15.550  0.8288  1.5157 -2.0315
 9986TIP3    H251450   6.614   0.103  15.519  1.5751 -1.0754 -2.6281
 9987TIP3   OH251451   2.391   1.963   5.128 -0.2404 -0.1499 -0.2888
 9987TIP3    H151452   2.338   1.883   5.135 -1.8504  0.9466  0.8431
 9987TIP3    H251453   2.330   2.030   5.098  0.5341  1.1207  0.8362
 9988TIP3   OH251454   2.730   4.138  16.770  0.0704 -0.3847 -0.4613
 9988TIP3    H151455   2.799   4.156  16.706  0.0940 -3.8616 -1.6237
 9988TIP3    H251456   2.763   4.065  16.822 -1.1117  0.5709  1.7723
 9989TIP3   OH251457   6.070   1.914   4.272  0.3509  0.3621  0.1734
 9989TIP3    H151458   6.037   1.826   4.254 -0.6977  0.9521 -1.0041
 9989TIP3    H251459   6.015   1.945   4.344 -2.5358  1.6689 -2.3493
 9990TIP3   OH251460   3.781   0.284   4.349  0.0616 -0.0270 -0.4303
 9990TIP3    H151461   3.693   0.322   4.344  0.4972  0.8617 -1.8593
 9990TIP3    H251462   3.768   0.201   4.396 -1.1786  1.0471  1.2761
 9991TIP3   OH251463   3.274   3.680  16.219 -0.6653  0.3466  0.1524
 9991TIP3    H151464   3.221   3.744  16.172 -0.6403  0.7514  0.6639
 9991TIP3    H251465   3.326   3.637  16.151 -1.6536 -0.0749 -0.3557
 9992TIP3   OH251466   3.681   4.785  12.982 -0.9566  0.1192  0.3705
 9992TIP3    H151467   3.609   4.728  12.956 -0.0279 -0.8060 -0.2273
 9992TIP3    H251468   3.759   4.732  12.968 -0.1718  1.0387  1.2060
 9993TIP3   OH251469   5.623   1.103  11.524 -0.0989  0.0636  0.1047
 9993TIP3    H151470   5.615   1.198  11.525 -0.7849  0.0090  0.6528
 9993TIP3    H251471   5.571   1.074  11.449 -1.6499 -0.0030  1.1604
 9994TIP3   OH251472   3.937   5.098   2.110 -0.6711  0.6455  0.5365
 9994TIP3    H151473   3.938   5.193   2.106  1.4066  0.6340 -0.6162
 9994TIP3    H251474   3.998   5.076   2.181 -1.8426  0.1679  1.4169
 9995TIP3   OH251475   4.031   1.395   1.601 -0.2571 -0.0494 -0.0751
 9995TIP3    H151476   4.105   1.450   1.630 -1.1812  1.4473 -0.4583
 9995TIP3    H251477   3.999   1.438   1.522 -2.5106  0.2551  0.9243
 9996TIP3   OH251478   5.401   3.007  12.549 -0.3335 -0.0349  0.3159
 9996TIP3    H151479   5.465   3.045  12.609 -1.2917  0.1494  1.2501
 9996TIP3    H251480   5.347   3.081  12.520  0.3589 -0.0499 -1.1183
 9997TIP3   OH251481   6.078   2.516   0.463 -0.3491  0.6448 -0.0466
 9997TIP3    H151482   6.050   2.425   0.468  0.6340  0.3379  0.1365
 9997TIP3    H251483   6.006   2.561   0.420 -0.5239 -0.3658 -0.8540
 9998TIP3   OH251484   0.853   4.176  12.723 -0.0104 -0.2689 -0.4084
 9998TIP3    H151485   0.764   4.211  12.718  0.3022  0.9009  1.2163
 9998TIP3    H251486   0.841   4.084  12.748 -0.8071  0.6979  3.3639
 9999TIP3   OH251487   3.379   0.529   3.615 -0.0293 -0.2367 -0.0587
 9999TIP3    H151488   3.288   0.508   3.596 -0.1820  1.0207 -0.8820
 9999TIP3    H251489   3.409   0.576   3.537  0.5508  1.6251  1.2117
10000TIP3   OH251490   5.348   6.331  16.208  0.5016 -0.1106  0.1705
10000TIP3    H151491   5.356   6.374  16.293  1.8920  0.2618 -0.1421
10000TIP3    H251492   5.254   6.335  16.189  0.4397  1.7178  0.6908
10001TIP3   OH251493   3.489   5.858  15.806  0.4498 -0.5282 -0.4667
10001TIP3    H151494   3.570   5.826  15.846 -0.5464 -0.4617  1.7622
10001TIP3    H251495   3.422   5.841  15.872 -0.8363  2.2473 -0.9201
10002TIP3   OH251496   6.472   2.073   4.127 -0.2937  0.4793  0.0200
10002TIP3    H151497   6.378   2.066   4.109  0.0363 -0.0249 -1.5979
10002TIP3    H251498   6.514   2.067   4.042  1.2180  0.8625  0.7066
10003TIP3   OH251499   2.605   3.636   0.780  0.1278 -0.0542  0.2789
10003TIP3    H151500   2.561   3.673   0.857  0.3141  1.1189 -0.1540
10003TIP3    H251501   2.665   3.705   0.752  1.1772 -1.0669 -0.0180
10004TIP3   OH251502   3.616   2.836  14.257  0.4482  0.1388 -0.1274
10004TIP3    H151503   3.525   2.808  14.262  0.1596  0.9689 -0.5822
10004TIP3    H251504   3.638   2.863  14.347  0.8046 -1.6892  0.3747
10005TIP3   OH251505   3.638   3.534  12.338 -0.6946  0.7663 -0.8342
10005TIP3    H151506   3.552   3.553  12.375 -0.1043 -1.0784  1.7680
10005TIP3    H251507   3.696   3.600  12.377 -0.8119  1.8331 -2.3696
10006TIP3   OH251508   0.493   3.727  15.846  0.0470  0.2806  0.0726
10006TIP3    H151509   0.490   3.636  15.814 -0.4499 -0.2899  1.6645
10006TIP3    H251510   0.403   3.758  15.839 -0.5421 -0.5681  2.7581
10007TIP3   OH251511   1.748   4.501  10.994 -0.0305  0.4371  0.8804
10007TIP3    H151512   1.742   4.515  10.900  0.2260  0.9675  0.9389
10007TIP3    H251513   1.675   4.552  11.031  0.0227  0.4392  0.9849
10008TIP3   OH251514   6.552   2.636   4.321  0.3329 -0.3015  0.2692
10008TIP3    H151515   6.467   2.672   4.347  0.6211  0.7827 -0.2274
10008TIP3    H251516   6.566   2.668   4.231  0.8955 -1.1544  0.0322
10009TIP3   OH251517   2.391   6.010  14.510  0.1908 -0.3500  0.0019
10009TIP3    H151518   2.305   5.967  14.516 -0.4602  0.8986  0.0841
10009TIP3    H251519   2.408   6.016  14.416 -0.3122  0.3177 -0.0543
10010TIP3   OH251520   0.733   2.275   2.722  0.4912  0.3842  0.2163
10010TIP3    H151521   0.662   2.314   2.671  0.5838 -1.7253 -1.6973
10010TIP3    H251522   0.689   2.216   2.783  0.5177 -0.4473 -0.5400
10011TIP3   OH251523   6.499   6.631  12.148 -0.6253  0.0443  0.0405
10011TIP3    H151524   6.484   6.697  12.217 -0.2036 -0.1869  0.3559
10011TIP3    H251525   6.594   6.620  12.146 -0.7360 -1.2127  0.6212
10012TIP3   OH251526   0.287   2.410  16.856  0.1208  0.0232 -0.0424
10012TIP3    H151527   0.224   2.350  16.816 -1.6756  2.5164 -1.2206
10012TIP3    H251528   0.242   2.446  16.932  0.6903  0.7660 -0.0484
10013TIP3   OH251529   5.085   5.594  13.919  0.8516  0.3354  0.3473
10013TIP3    H151530   4.991   5.600  13.934  1.2037  1.6389  2.6343
10013TIP3    H251531   5.097   5.515  13.867 -1.4721  0.1021  0.0590
10014TIP3   OH251532   4.886   5.146   1.206 -0.3390  0.0274  0.3343
10014TIP3    H151533   4.903   5.207   1.277  0.0006  0.8105 -0.3957
10014TIP3    H251534   4.801   5.174   1.170 -0.3055 -0.0878  0.1608
10015TIP3   OH251535   5.909   3.624   1.051 -0.6613  0.2907  0.1262
10015TIP3    H151536   5.992   3.578   1.041 -1.2096 -0.5560 -0.7910
10015TIP3    H251537   5.914   3.696   0.989 -0.5543  0.3143  0.1627
10016TIP3   OH251538   6.163   0.756  13.315  1.0752 -0.1508 -0.1220
10016TIP3    H151539   6.160   0.716  13.228 -0.1138  0.3602 -0.3393
10016TIP3    H251540   6.104   0.831  13.308 -1.9803 -2.1186  2.1306
10017TIP3   OH251541   4.604   6.815  16.543 -0.0718  0.0356 -0.8790
10017TIP3    H151542   4.586   6.783  16.454  0.1218 -0.3148 -0.7958
10017TIP3    H251543   4.533   6.778  16.596  0.1006 -0.1864 -0.7995
10018TIP3   OH251544   3.911   0.111   5.249 -0.5431 -0.6092  0.0479
10018TIP3    H151545   3.880   0.172   5.181  0.1292 -1.3701 -0.9605
10018TIP3    H251546   3.833   0.063   5.276 -0.5695 -1.3404 -1.2746
10019TIP3   OH251547   1.786   6.652   3.704  0.3551 -0.1037 -0.0587
10019TIP3    H151548   1.695   6.674   3.683 -0.0268  0.4150  1.9632
10019TIP3    H251549   1.791   6.656   3.799  2.9157  1.6134 -0.1456
10020TIP3   OH251550   6.551   3.264  14.515 -0.4957 -0.7471  0.5513
10020TIP3    H151551   6.456   3.249  14.518 -0.3948 -1.3667  0.8483
10020TIP3    H251552   6.583   3.227  14.598 -0.0384 -0.2338  0.6026
10021TIP3   OH251553   1.530   6.775  14.787  0.0717  0.3106  0.2127
10021TIP3    H151554   1.501   6.768  14.696 -0.3997  0.4938  0.3412
10021TIP3    H251555   1.621   6.803  14.781  0.1390  0.0133 -0.2058
10022TIP3   OH251556   3.811   5.152  15.773 -0.0973  0.1973  0.2154
10022TIP3    H151557   3.839   5.207  15.846 -4.3992  0.4806  1.9266
10022TIP3    H251558   3.780   5.214  15.707  0.6859 -0.1410 -0.4919
10023TIP3   OH251559   4.588   1.468   1.297  0.2503  0.2746  0.0442
10023TIP3    H151560   4.584   1.380   1.332 -2.4335 -0.9111 -2.7712
10023TIP3    H251561   4.544   1.522   1.362 -0.2404 -0.9084  0.7131
10024TIP3   OH251562   1.068   1.256   1.350 -0.1938 -0.1107 -0.2069
10024TIP3    H151563   1.009   1.327   1.328 -0.0968 -0.1053 -0.4549
10024TIP3    H251564   1.016   1.177   1.340 -0.6172 -0.0232  1.1161
10025TIP3   OH251565   1.555   6.189   3.309  0.0288  0.1917  0.1036
10025TIP3    H151566   1.512   6.178   3.224  0.2677 -1.3657  0.1552
10025TIP3    H251567   1.516   6.122   3.365  1.6951 -0.5095  0.4745
10026TIP3   OH251568   3.636   3.621   6.724 -1.2785  0.9534  0.6273
10026TIP3    H151569   3.661   3.545   6.672  0.6263  1.9981 -0.0592
10026TIP3    H251570   3.581   3.585   6.794 -2.9844 -0.6141 -1.4112
10027TIP3   OH251571   2.286   2.764  13.292  0.3548  0.2489  0.4458
10027TIP3    H151572   2.280   2.712  13.372  0.7711  0.2936  0.5086
10027TIP3    H251573   2.301   2.700  13.223  2.6947  0.3825  0.7467
10028TIP3   OH251574   3.103   3.459   5.659 -0.4397 -0.1408  0.1910
10028TIP3    H151575   3.032   3.411   5.702 -0.1957 -0.5523  0.1447
10028TIP3    H251576   3.158   3.390   5.621 -1.6288  0.2107 -2.4051
10029TIP3   OH251577   4.040   5.524  12.431 -0.3838 -0.0423 -0.6392
10029TIP3    H151578   4.034   5.610  12.473 -1.1325  0.2974 -1.4129
10029TIP3    H251579   4.011   5.463  12.498  2.6072 -0.0471  0.8417
10030TIP3   OH251580   6.501   6.626   1.152  0.1298  0.4858  0.2376
10030TIP3    H151581   6.523   6.613   1.244  0.0359  1.4064  0.3923
10030TIP3    H251582   6.416   6.670   1.153 -1.2079 -1.8807 -0.3339
10031TIP3   OH251583   1.440   1.719  13.017 -0.4744 -0.0595  0.5449
10031TIP3    H151584   1.350   1.743  13.040 -0.5942  1.7656 -1.5071
10031TIP3    H251585   1.494   1.766  13.080 -0.9144 -0.3088  1.1229
10032TIP3   OH251586   6.686   1.986  12.258  0.6768  0.4686  0.6396
10032TIP3    H151587   6.724   1.940  12.183 -1.2938  0.3537 -0.3462
10032TIP3    H251588   6.692   2.079  12.235 -0.4103  0.4086  0.0732
10033TIP3   OH251589   1.073   5.092   2.615  0.4922 -0.4272  0.6525
10033TIP3    H151590   1.018   5.148   2.561 -1.4415 -1.6867  1.2395
10033TIP3    H251591   1.127   5.154   2.665  0.8747  0.7954 -1.1699
10034TIP3   OH251592   6.038   4.199   6.187  0.4556  0.2962 -0.1780
10034TIP3    H151593   6.067   4.285   6.217  2.0452 -0.5192  0.7341
10034TIP3    H251594   6.110   4.140   6.209 -0.3132 -1.1686 -1.3986
10035TIP3   OH251595   0.297   5.942   5.565  0.1465 -0.0424 -0.2998
10035TIP3    H151596   0.289   5.942   5.661 -0.4996 -0.1790 -0.3482
10035TIP3    H251597   0.227   5.884   5.535  0.3773 -0.0377 -0.8559
10036TIP3   OH251598   2.788   2.825   4.412  0.0236  1.1356 -0.2077
10036TIP3    H151599   2.819   2.769   4.341  1.8563  1.4332  0.2866
10036TIP3    H251600   2.821   2.783   4.491 -0.5249  1.7069  0.3295
10037TIP3   OH251601   5.942   1.577  11.475 -0.1692 -0.6457  0.2247
10037TIP3    H151602   5.884   1.558  11.549 -0.9449  0.7029  0.0032
10037TIP3    H251603   6.024   1.605  11.516 -0.0236 -1.5253  0.5520
10038TIP3   OH251604   0.787   2.988  11.196 -0.1602 -0.0994  0.6793
10038TIP3    H151605   0.725   3.040  11.247 -0.6146  0.7513 -0.6650
10038TIP3    H251606   0.872   3.027  11.214 -0.5934  1.7946 -1.0022
10039TIP3   OH251607   6.132   5.385  14.372 -0.0578  0.1733  0.1381
10039TIP3    H151608   6.130   5.305  14.425 -1.2961 -0.2033 -0.4481
10039TIP3    H251609   6.108   5.356  14.284  1.0613  0.9412 -0.4587
10040TIP3   OH251610   1.486   0.857  10.837 -0.2186 -0.1746 -0.1151
10040TIP3    H151611   1.519   0.942  10.806 -2.2253  0.0413 -1.9003
10040TIP3    H251612   1.403   0.879  10.881 -0.5079 -1.1637 -0.1481
10041TIP3   OH251613   6.700   1.235  12.431  0.7121 -0.1899  0.4481
10041TIP3    H151614   6.741   1.301  12.373 -0.9191  0.5252  0.0527
10041TIP3    H251615   6.704   1.154  12.381  0.9248  0.0481  0.0733
10042TIP3   OH251616   2.607   2.596   1.899 -0.0505  0.1854 -0.5219
10042TIP3    H151617   2.649   2.648   1.968  1.3240 -1.3266 -0.1724
10042TIP3    H251618   2.659   2.613   1.821  0.4619 -0.7091 -0.3852
10043TIP3   OH251619   0.503   5.112  16.712  0.9174  0.3804  0.4055
10043TIP3    H151620   0.506   5.153  16.798 -3.9688  0.5832  0.7452
10043TIP3    H251621   0.422   5.062  16.711  0.6544  0.4457 -4.0796
10044TIP3   OH251622   2.071   0.011   3.802  0.1612 -0.2613 -0.0273
10044TIP3    H151623   2.149  -0.022   3.757  0.3394  0.5233 -0.3110
10044TIP3    H251624   2.095   0.013   3.895 -0.4773 -2.6540  0.2484
10045TIP3   OH251625   6.260   5.357   0.207 -0.4260  0.6723 -0.0624
10045TIP3    H151626   6.326   5.305   0.160  1.9537  0.6929  2.9249
10045TIP3    H251627   6.268   5.445   0.170  1.6900  0.7942  0.5534
10046TIP3   OH251628   4.353   5.029   4.015  0.6409  0.0746 -0.1876
10046TIP3    H151629   4.287   5.070   4.072  2.1494  1.7408  0.4778
10046TIP3    H251630   4.344   5.076   3.932  1.0055  0.3493 -0.0754
10047TIP3   OH251631   1.919   3.683  12.734  0.2295  0.2245  0.0602
10047TIP3    H151632   2.014   3.670  12.741 -0.0052 -1.7810  0.1789
10047TIP3    H251633   1.908   3.750  12.666  1.7356  1.1222  0.6538
10048TIP3   OH251634   5.973   1.010   3.448  0.0057  0.0301 -0.1746
10048TIP3    H151635   5.939   0.964   3.526 -0.4091  0.6136 -0.0051
10048TIP3    H251636   6.045   1.063   3.481 -0.4435  0.6046 -0.1070
10049TIP3   OH251637   4.784   1.600   6.601 -0.0618 -0.5187 -0.6122
10049TIP3    H151638   4.723   1.651   6.548 -0.2248  0.7179  0.6953
10049TIP3    H251639   4.805   1.524   6.547 -1.7631 -0.3352 -1.6079
10050TIP3   OH251640   3.420   4.468  12.659  0.6219 -0.3873  0.0231
10050TIP3    H151641   3.369   4.505  12.587  1.9479 -0.4665 -1.0132
10050TIP3    H251642   3.475   4.401  12.617  0.2950 -1.5472  1.3917
10051TIP3   OH251643   6.782   5.122  13.405  0.1081 -0.4820 -0.3271
10051TIP3    H151644   6.872   5.126  13.436 -0.1429 -1.1461  0.5215
10051TIP3    H251645   6.736   5.190  13.455 -0.3548 -1.7337  1.0046
10052TIP3   OH251646   5.756   5.283  11.220 -0.2998 -0.0791  0.6484
10052TIP3    H151647   5.722   5.262  11.307  1.0090 -1.8256  0.7849
10052TIP3    H251648   5.696   5.349  11.187 -0.9446  0.4946  2.7931
10053TIP3   OH251649   2.584   5.772  13.685  0.4954  0.0986  0.6183
10053TIP3    H151650   2.555   5.841  13.745  0.0557  0.1426  0.3621
10053TIP3    H251651   2.595   5.816  13.601  0.0817 -0.1630  0.4219
10054TIP3   OH251652   6.043   1.496  17.070  0.3519 -0.0095 -0.1482
10054TIP3    H151653   5.980   1.458  17.130 -0.9365  0.5694 -1.0885
10054TIP3    H251654   6.091   1.421  17.035  0.4039 -0.4268  0.7919
10055TIP3   OH251655   3.301   1.047   3.174  0.0059  0.4086 -0.1729
10055TIP3    H151656   3.342   0.980   3.120  1.9260 -0.1983  1.8902
10055TIP3    H251657   3.350   1.127   3.154  1.7475 -0.1267  1.6247
10056TIP3   OH251658   0.802   5.696  15.751  0.1914 -0.5504 -0.1182
10056TIP3    H151659   0.711   5.694  15.721  0.1489  1.3107 -0.2187
10056TIP3    H251660   0.805   5.632  15.822 -1.3091 -0.3705  0.1477
10057TIP3   OH251661   6.603   6.086  15.139  0.5199 -0.3069  0.7741
10057TIP3    H151662   6.541   6.031  15.091 -0.1199  1.2024 -0.2174
10057TIP3    H251663   6.552   6.120  15.213  0.1450  0.8525  0.0164
10058TIP3   OH251664   2.370   2.890  11.193 -0.2116  0.2251  0.0085
10058TIP3    H151665   2.395   2.953  11.260  0.6862 -1.1218  0.9848
10058TIP3    H251666   2.390   2.934  11.110  1.1071  0.9380  0.6761
10059TIP3   OH251667   0.835   6.652  12.927 -0.1202  0.1082  0.1294
10059TIP3    H151668   0.826   6.731  12.873 -1.0834  0.9470  1.4502
10059TIP3    H251669   0.925   6.622  12.912  0.4638  1.8121  0.0546
10060TIP3   OH251670   2.683   2.255   2.779 -0.7293 -0.6951  0.0158
10060TIP3    H151671   2.710   2.169   2.811 -0.7115 -1.1316 -1.1176
10060TIP3    H251672   2.607   2.278   2.832 -0.4252 -1.1778  0.6704
10061TIP3   OH251673   6.779   3.301  12.069  0.2740  0.2169  0.0819
10061TIP3    H151674   6.799   3.210  12.049 -1.5620 -0.4134  0.8849
10061TIP3    H251675   6.801   3.310  12.162 -1.9910 -0.2063  0.7075
10062TIP3   OH251676   1.295   4.368   0.183  0.0640 -0.3000 -0.5559
10062TIP3    H151677   1.354   4.304   0.143  0.8653 -1.0009  1.5788
10062TIP3    H251678   1.251   4.319   0.253 -1.0304  0.9185 -0.3653
10063TIP3   OH251679   1.823   2.900  15.460  0.0479 -0.9184  0.0692
10063TIP3    H151680   1.860   2.843  15.394 -1.9366 -0.9467 -1.0827
10063TIP3    H251681   1.753   2.849  15.500 -0.1226 -0.1666  0.7599
10064TIP3   OH251682   4.661   2.005  16.315 -0.3700  0.1113  0.2744
10064TIP3    H151683   4.697   2.092  16.299 -0.6743  1.1577  4.0865
10064TIP3    H251684   4.735   1.955  16.350 -0.8806 -0.0865  1.1085
10065TIP3   OH251685   5.719   1.265   4.543  0.2769  0.1625 -0.5891
10065TIP3    H151686   5.723   1.224   4.629  1.0205  1.1369 -0.1388
10065TIP3    H251687   5.652   1.215   4.495  1.8610 -2.2698 -0.4655
10066TIP3   OH251688   6.336   0.197   0.197 -0.0714  0.4855 -0.3475
10066TIP3    H151689   6.290   0.121   0.159 -1.2523  0.8475  0.3013
10066TIP3    H251690   6.405   0.159   0.251  0.2665 -0.0831 -1.1611
10067TIP3   OH251691   5.873   3.089  11.676 -0.4064 -0.3473 -0.0116
10067TIP3    H151692   5.791   3.133  11.696 -0.5672 -0.1719 -1.0013
10067TIP3    H251693   5.876   3.014  11.736 -1.2649 -0.3277  0.0652
10068TIP3   OH251694   6.426   3.589  13.073  0.1685  0.7613  0.3292
10068TIP3    H151695   6.377   3.527  13.127 -0.2466 -1.9259 -2.7709
10068TIP3    H251696   6.517   3.563  13.082  0.0095 -0.3221 -0.8447
10069TIP3   OH251697   2.050   1.024  11.389  0.0088  0.3757 -0.1464
10069TIP3    H151698   2.143   1.021  11.410  0.1678  1.4379 -0.6606
10069TIP3    H251699   2.044   0.989  11.301 -0.3435 -1.5732  0.5972
10070TIP3   OH251700   4.954   1.523  11.773  0.2781  0.1598 -0.4823
10070TIP3    H151701   4.952   1.428  11.787 -0.7597 -0.0848 -2.0393
10070TIP3    H251702   4.981   1.559  11.857  3.2246 -1.6387 -0.5195
10071TIP3   OH251703   5.102   0.089   0.108 -0.6026 -0.2223  0.0660
10071TIP3    H151704   5.150   0.128   0.181 -1.5870 -0.9135  1.1166
10071TIP3    H251705   5.036   0.034   0.150 -1.1250 -0.7116 -1.3585
10072TIP3   OH251706   2.671   3.135   6.310 -0.0989  0.6289 -0.1148
10072TIP3    H151707   2.715   3.199   6.366  1.2717 -0.2671 -0.0998
10072TIP3    H251708   2.742   3.079   6.278 -1.2945 -1.1700  0.2397
10073TIP3   OH251709   5.790   2.741   2.636  0.5679 -0.2819 -0.1042
10073TIP3    H151710   5.734   2.665   2.649 -0.3846  0.4727  0.3505
10073TIP3    H251711   5.872   2.718   2.681 -0.2012 -0.5017  1.2434
10074TIP3   OH251712   2.147   1.469   0.065 -0.2976 -0.4639  0.4602
10074TIP3    H151713   2.121   1.507  -0.019  1.2908 -0.7274 -0.1697
10074TIP3    H251714   2.087   1.395   0.077  0.5561 -1.5071 -1.3107
10075TIP3   OH251715   3.920   4.633  13.000  0.3265 -0.5654 -0.5400
10075TIP3    H151716   3.883   4.592  13.078 -0.6531 -0.0055 -0.6960
10075TIP3    H251717   4.012   4.604  12.999  0.9169  0.9265  1.8595
10076TIP3   OH251718   1.251   2.821   6.254  0.3089 -0.3484  0.6859
10076TIP3    H151719   1.189   2.874   6.304  0.6367  0.4223  0.2890
10076TIP3    H251720   1.303   2.885   6.205 -0.7963 -1.1222 -1.6244
10077TIP3   OH251721   2.142   4.248   4.637  0.0242 -0.3761  0.2525
10077TIP3    H151722   2.115   4.335   4.669  0.9771 -0.5907  1.7121
10077TIP3    H251723   2.061   4.196   4.639 -0.3006  0.1325  0.5695
10078TIP3   OH251724   6.337   2.063  13.309 -0.1400  0.3435  0.0286
10078TIP3    H151725   6.325   2.019  13.224  0.4374  0.4300 -0.1015
10078TIP3    H251726   6.253   2.052  13.353  0.0140 -0.9954  0.0414
10079TIP3   OH251727   1.758   2.222  12.752 -0.7239  0.0327 -0.1443
10079TIP3    H151728   1.794   2.137  12.727  2.3628  1.2423 -0.2735
10079TIP3    H251729   1.740   2.215  12.845  1.9410 -0.1028  0.4341
10080TIP3   OH251730   1.798   0.844   5.464  0.4148 -0.2636 -0.9226
10080TIP3    H151731   1.732   0.825   5.398 -1.8231  0.9705  0.8483
10080TIP3    H251732   1.828   0.932   5.443 -1.4458  0.7670  0.5364
10081TIP3   OH251733   6.520   5.447   0.958  0.0581 -0.0301 -0.1879
10081TIP3    H151734   6.582   5.383   0.923 -1.5489 -1.3377 -0.8145
10081TIP3    H251735   6.510   5.511   0.887  0.2996 -0.1203 -0.3042
10082TIP3   OH251736   3.459   3.395   2.347 -0.4335 -0.2219  0.3127
10082TIP3    H151737   3.523   3.348   2.292 -0.2605  0.5135 -0.1327
10082TIP3    H251738   3.454   3.482   2.308 -1.6986 -0.2606  0.3640
10083TIP3   OH251739   0.524   3.568  11.821  0.1963  0.1720  0.7492
10083TIP3    H151740   0.551   3.482  11.851  0.0844 -0.2051 -0.1945
10083TIP3    H251741   0.445   3.552  11.769  0.1580  0.8413  0.5906
10084TIP3   OH251742   3.710   3.681   0.185  0.4179  0.0100  0.7907
10084TIP3    H151743   3.686   3.750   0.123 -1.9982  0.7472  2.3864
10084TIP3    H251744   3.754   3.727   0.256  1.7893 -0.6184  0.3843
10085TIP3   OH251745   0.087   3.407   4.497 -0.4705 -0.1484 -0.6275
10085TIP3    H151746   0.095   3.325   4.448 -1.3412 -1.3219  1.0991
10085TIP3    H251747   0.177   3.431   4.518 -0.2422 -2.7186  1.9799
10086TIP3   OH251748   5.578   5.659   5.054  0.0511  0.1735 -0.3687
10086TIP3    H151749   5.584   5.657   4.958 -0.7135  0.3020 -0.4222
10086TIP3    H251750   5.539   5.743   5.075 -3.0973 -1.2069 -0.1665
10087TIP3   OH251751   4.652   5.962   4.615 -0.0742  0.4720 -0.1396
10087TIP3    H151752   4.690   5.949   4.528 -0.7338  0.9279 -0.5110
10087TIP3    H251753   4.565   5.998   4.597 -0.6850 -0.5606  0.6852
10088TIP3   OH251754   0.017   5.745   0.248  0.3400 -0.3541  0.2831
10088TIP3    H151755   0.009   5.781   0.160 -0.5585 -0.2804  0.3794
10088TIP3    H251756   0.111   5.734   0.262  0.4673 -1.0063 -0.9420
10089TIP3   OH251757   3.752   5.178  11.534 -0.5297 -0.1440 -0.3765
10089TIP3    H151758   3.698   5.234  11.478 -1.1263 -0.9929 -0.6749
10089TIP3    H251759   3.693   5.110  11.564  0.0696 -0.3478  0.3695
10090TIP3   OH251760   5.181   2.252   4.677  0.0034  0.3590 -0.5261
10090TIP3    H151761   5.253   2.263   4.615 -0.4435 -0.4640 -1.2242
10090TIP3    H251762   5.219   2.203   4.750  0.3654  0.7252 -0.4671
10091TIP3   OH251763   4.384   0.847   5.106 -0.4833 -0.1480 -0.7195
10091TIP3    H151764   4.350   0.910   5.043 -0.2298 -0.2038 -0.9121
10091TIP3    H251765   4.411   0.772   5.053  2.1451  0.8021 -0.8661
10092TIP3   OH251766   3.632   3.558   5.287 -0.5427 -0.0553  0.4027
10092TIP3    H151767   3.607   3.628   5.347 -0.4071 -0.3416  0.8000
10092TIP3    H251768   3.701   3.596   5.233  0.9343 -0.4521  1.8963
10093TIP3   OH251769   6.813   6.799  15.304  0.5102  0.5411  0.1838
10093TIP3    H151770   6.865   6.827  15.380  1.7417  0.4179 -0.5966
10093TIP3    H251771   6.797   6.706  15.319 -0.1118  0.7315  0.7719
10094TIP3   OH251772   4.915   1.349   0.450 -0.7469 -0.1883  0.1385
10094TIP3    H151773   4.888   1.436   0.480 -0.4879  0.5209 -1.5971
10094TIP3    H251774   4.890   1.346   0.358  1.0427 -1.1871 -0.3658
10095TIP3   OH251775   2.346   2.305   0.070 -0.1149 -0.0158 -0.2075
10095TIP3    H151776   2.350   2.326   0.163  0.5567 -0.7318 -0.0630
10095TIP3    H251777   2.254   2.288   0.053 -0.1295 -0.7011  0.5197
10096TIP3   OH251778   0.395   6.141  10.969 -0.4106 -0.3358  0.0259
10096TIP3    H151779   0.455   6.114  11.039  1.0388  0.0339 -1.0313
10096TIP3    H251780   0.415   6.234  10.956  0.6742 -0.8051 -2.0963
10097TIP3   OH251781   0.103   1.012   3.191 -0.0403 -0.5042 -0.2742
10097TIP3    H151782   0.179   0.967   3.155  1.1111  0.2578  1.0785
10097TIP3    H251783   0.061   0.947   3.247 -1.0798 -1.2755 -1.8687
10098TIP3   OH251784   4.539   4.089  12.334  0.5311  0.3678 -0.0332
10098TIP3    H151785   4.554   4.021  12.269 -0.7945 -0.3927  0.4121
10098TIP3    H251786   4.475   4.148  12.293  0.9878  0.8412 -0.0706
10099TIP3   OH251787   0.131   1.227  15.295 -0.1239  0.2514  0.1864
10099TIP3    H151788   0.059   1.164  15.295 -0.9806  1.1815  0.9862
10099TIP3    H251789   0.197   1.188  15.352 -1.4165  0.8452  2.2068
10100TIP3   OH251790   5.298   6.041  16.801 -0.3831  0.6254 -0.0148
10100TIP3    H151791   5.346   6.121  16.822 -0.7041  0.9202 -0.3864
10100TIP3    H251792   5.359   5.971  16.822  0.3499  1.0032 -0.8135
10101TIP3   OH251793   1.046   5.133  16.686 -0.3858 -0.4543  0.0699
10101TIP3    H151794   0.998   5.111  16.606  1.1083 -0.2488 -0.9149
10101TIP3    H251795   1.064   5.226  16.679  2.2174 -0.9465 -0.7926
10102TIP3   OH251796   6.351   5.365   4.992  0.3608 -0.1500 -0.5970
10102TIP3    H151797   6.411   5.420   4.942 -0.0309 -0.0209 -0.9392
10102TIP3    H251798   6.284   5.426   5.024  0.9378 -0.1380  0.6116
10103TIP3   OH251799   1.442   6.767   0.464  0.5545  0.2956  0.1339
10103TIP3    H151800   1.477   6.816   0.390  0.2271  0.0027 -0.2229
10103TIP3    H251801   1.360   6.729   0.430  0.0319  0.7591  0.8664
10104TIP3   OH251802   3.239   5.953  15.449 -0.3093 -0.2580  0.1476
10104TIP3    H151803   3.270   5.865  15.427  2.9606  0.4116  1.3639
10104TIP3    H251804   3.264   6.007  15.373  0.7522  0.1287  0.7442
10105TIP3   OH251805   5.126   0.460   2.307 -0.1684 -0.6293 -0.5209
10105TIP3    H151806   5.128   0.489   2.398  1.0140 -0.6148 -0.5375
10105TIP3    H251807   5.033   0.442   2.290 -1.0441  2.9828 -0.4812
10106TIP3   OH251808   5.700   6.643  12.262 -0.2993 -0.2095 -0.0460
10106TIP3    H151809   5.722   6.596  12.343  1.2957  1.0907  0.3157
10106TIP3    H251810   5.737   6.589  12.192  1.1705  0.2642  0.3381
10107TIP3   OH251811   3.550   6.255  15.104 -0.0183  0.2983  0.1063
10107TIP3    H151812   3.535   6.344  15.072  0.0096 -0.1969 -1.3595
10107TIP3    H251813   3.490   6.247  15.179 -1.5769  0.8794 -1.0126
10108TIP3   OH251814   3.699   0.251   1.239  0.5827 -0.3117  0.3891
10108TIP3    H151815   3.754   0.192   1.186  0.3640  0.2419 -0.4657
10108TIP3    H251816   3.757   0.324   1.260  0.8131 -0.7575  1.3365
10109TIP3   OH251817   3.396   5.348   1.265  0.1476 -0.1209 -0.1839
10109TIP3    H151818   3.322   5.289   1.255  0.1886 -0.1053 -0.5930
10109TIP3    H251819   3.359   5.435   1.253  0.3576 -0.1515 -1.1842
10110TIP3   OH251820   5.114   4.387   2.581  0.3212  0.3326  0.0087
10110TIP3    H151821   5.085   4.431   2.501 -1.2003 -1.0985 -0.2760
10110TIP3    H251822   5.175   4.320   2.551  1.6502  1.3343  0.3295
10111TIP3   OH251823   5.901   2.309   5.360 -0.4460 -0.4948  0.3002
10111TIP3    H151824   5.871   2.221   5.338  0.0815 -0.9861  1.4533
10111TIP3    H251825   5.828   2.366   5.336 -1.2081 -1.3645  0.4862
10112TIP3   OH251826   2.898   0.326   0.961  1.0855 -0.2280 -0.0335
10112TIP3    H151827   2.953   0.391   0.918 -0.1605  0.7742 -0.1722
10112TIP3    H251828   2.809   0.356   0.946  0.5113 -1.3990  0.8332
10113TIP3   OH251829   5.994   0.754   0.290  0.2808  0.2352 -0.6005
10113TIP3    H151830   6.077   0.775   0.247  0.7910 -1.1091 -0.3181
10113TIP3    H251831   5.942   0.834   0.281  1.3568  0.8854 -1.3549
10114TIP3   OH251832   0.045   3.346  12.333  0.4172  0.8685 -0.3416
10114TIP3    H151833   0.054   3.288  12.409 -0.2135  1.2121  0.0078
10114TIP3    H251834   0.077   3.431  12.363  0.1872  1.0005 -0.4611
10115TIP3   OH251835   6.279   6.437   3.364 -0.4156 -0.0253 -0.1972
10115TIP3    H151836   6.328   6.392   3.295  0.8697 -0.0624  0.7089
10115TIP3    H251837   6.286   6.530   3.340  0.5544  0.0122  0.1940
10116TIP3   OH251838   5.564   0.144  10.891 -0.7299 -0.3265 -0.1296
10116TIP3    H151839   5.493   0.117  10.833 -0.8850  0.2711 -0.2286
10116TIP3    H251840   5.540   0.109  10.977 -0.1757 -1.7735 -0.5415
10117TIP3   OH251841   0.091   2.172  13.268 -0.7454  0.2867  0.0808
10117TIP3    H151842   0.110   2.173  13.174 -1.6597 -0.0701 -0.1163
10117TIP3    H251843   0.043   2.090  13.282 -0.5746  0.3112  0.8709
10118TIP3   OH251844   6.366   4.307   4.299  0.5571  0.2373  0.1066
10118TIP3    H151845   6.299   4.347   4.243  0.2152 -2.9325 -2.0270
10118TIP3    H251846   6.332   4.317   4.387 -1.4812  0.9815 -0.7014
10119TIP3   OH251847   1.026   2.606  16.928  0.0169  0.4612  0.0050
10119TIP3    H151848   1.112   2.621  16.889  0.8129  2.5036  2.2192
10119TIP3    H251849   0.987   2.693  16.933 -2.0146 -0.3748 -0.5455
10120TIP3   OH251850   2.126   4.834   3.501  0.4649  0.2096 -1.0197
10120TIP3    H151851   2.117   4.800   3.411 -2.0914  0.5194 -0.9313
10120TIP3    H251852   2.085   4.920   3.499 -0.3607 -0.1098  0.6254
10121TIP3   OH251853   2.368   5.035   5.989 -0.0050 -0.6177 -0.4313
10121TIP3    H151854   2.279   5.035   5.953 -0.1287 -0.5664 -0.1313
10121TIP3    H251855   2.404   5.121   5.966  0.1540 -0.8313 -1.0006
10122TIP3   OH251856   6.430   1.202  13.432 -0.1750  0.2142  0.6519
10122TIP3    H151857   6.425   1.115  13.392  0.5065  0.9911 -1.2422
10122TIP3    H251858   6.441   1.261  13.358  1.6305  1.7125  2.0336
10123TIP3   OH251859   6.546   2.192   5.834  0.1389  0.0414  0.4401
10123TIP3    H151860   6.550   2.216   5.741 -1.7457  0.4395  0.4151
10123TIP3    H251861   6.556   2.275   5.880 -2.2299  0.4021  0.4539
10124TIP3   OH251862   2.192   1.161   6.012  0.2795 -0.1019  0.4344
10124TIP3    H151863   2.158   1.248   6.035  1.1696  0.5332 -0.5785
10124TIP3    H251864   2.134   1.101   6.059 -0.5112  1.0177  0.9682
10125TIP3   OH251865   0.556   6.059  12.921 -0.2957  0.0395 -0.1515
10125TIP3    H151866   0.500   6.042  12.846 -0.0924  1.0707 -0.5549
10125TIP3    H251867   0.526   6.143  12.955  2.0556  1.5070 -1.4282
10126TIP3   OH251868   5.160   0.141   0.568 -0.3599  0.0523  0.1439
10126TIP3    H151869   5.076   0.131   0.612  0.0218 -0.2550  0.8244
10126TIP3    H251870   5.188   0.052   0.548  0.2861  0.0756  0.8771
10127TIP3   OH251871   6.593   4.676  12.332  0.2849 -0.0595 -0.0538
10127TIP3    H151872   6.529   4.605  12.332 -0.0504  0.2267  0.4513
10127TIP3    H251873   6.674   4.637  12.300 -0.1716 -0.4057 -0.7896
10128TIP3   OH251874   6.632   3.352   6.290 -0.1226  0.2311 -0.1174
10128TIP3    H151875   6.662   3.290   6.357  0.7325  0.9189  0.1544
10128TIP3    H251876   6.599   3.297   6.219  1.2247 -0.5571 -0.1626
10129TIP3   OH251877   5.623   3.980   4.421 -0.3574 -0.0198  0.2641
10129TIP3    H151878   5.639   3.901   4.371  0.9516  0.6530 -0.4257
10129TIP3    H251879   5.595   3.949   4.507  1.1334 -1.2497  0.3448
10130TIP3   OH251880   5.063   3.062   0.870  0.8040 -0.0426 -0.3289
10130TIP3    H151881   5.018   3.146   0.879  1.3268  0.1833  0.3562
10130TIP3    H251882   5.108   3.050   0.954  0.4253 -1.1987 -0.2688
10131TIP3   OH251883   2.938   4.111  10.708 -0.1904 -0.4136  0.4629
10131TIP3    H151884   2.893   4.193  10.730 -0.5938 -0.9101  1.5371
10131TIP3    H251885   3.025   4.138  10.681 -0.1752  0.3435  1.2462
10132TIP3   OH251886   4.682   5.617  16.376  0.3621 -0.0438  0.3957
10132TIP3    H151887   4.650   5.538  16.421  1.8036 -1.5148 -1.0064
10132TIP3    H251888   4.604   5.670  16.362 -0.8441 -1.7298  0.4434
10133TIP3   OH251889   0.491   5.255   0.117  0.5292  0.0059  0.2046
10133TIP3    H151890   0.484   5.239   0.023  0.6883 -0.6129  0.2875
10133TIP3    H251891   0.404   5.283   0.144 -0.2123 -2.1766  0.2805
10134TIP3   OH251892   2.827   0.592  14.714  0.1869 -0.3475 -0.6915
10134TIP3    H151893   2.797   0.517  14.766 -0.7491 -0.8800 -1.9245
10134TIP3    H251894   2.746   0.636  14.687  0.7308  1.9817  1.1667
10135TIP3   OH251895   4.062   6.212  14.036  0.4457  0.5304  0.5634
10135TIP3    H151896   4.023   6.185  14.119 -2.6419 -0.2246 -0.9707
10135TIP3    H251897   4.004   6.282  14.005  0.6186 -0.2294 -1.5999
10136TIP3   OH251898   3.947   5.761   1.030  0.4064 -0.1826 -0.3828
10136TIP3    H151899   3.921   5.674   1.062  0.2101  0.1701  0.4130
10136TIP3    H251900   3.898   5.822   1.085  0.4591  0.4356 -1.0192
10137TIP3   OH251901   5.980   2.859   4.815 -0.2999  0.3602 -0.0748
10137TIP3    H151902   5.913   2.816   4.868  0.7740 -0.1361  0.9398
10137TIP3    H251903   5.982   2.810   4.733  0.4027 -1.0974  0.7836
10138TIP3   OH251904   0.698   1.319  12.678 -0.4180  0.5871 -0.0588
10138TIP3    H151905   0.703   1.299  12.585  0.7700  1.1101 -0.1312
10138TIP3    H251906   0.609   1.353  12.691 -1.0732 -0.8305 -0.7033
10139TIP3   OH251907   5.414   2.952  15.635  0.1725 -0.3226 -0.1105
10139TIP3    H151908   5.318   2.954  15.628  0.1185 -2.8827 -1.0936
10139TIP3    H251909   5.431   2.931  15.726 -0.2052 -0.4270 -0.0624
10140TIP3   OH251910   6.182   1.203   3.449  0.2672 -0.0015 -0.5452
10140TIP3    H151911   6.183   1.190   3.544 -0.5542  0.8719 -0.4033
10140TIP3    H251912   6.274   1.214   3.425  0.5455 -0.8984  0.0400
10141TIP3   OH251913   5.629   0.573  12.258 -0.1633  0.0867 -0.8308
10141TIP3    H151914   5.652   0.557  12.166  2.4364  0.8148 -0.3757
10141TIP3    H251915   5.704   0.541  12.307 -1.3840 -0.0116  1.0677
10142TIP3   OH251916   1.111   3.213   0.889  0.0097 -0.0484  0.3242
10142TIP3    H151917   1.165   3.291   0.905  0.2491 -0.6172  2.6318
10142TIP3    H251918   1.039   3.245   0.835  0.8636  1.4465  0.0044
10143TIP3   OH251919   6.436   4.406   3.983 -0.5941 -0.2235  0.0947
10143TIP3    H151920   6.395   4.481   3.940  0.7038  0.1999 -0.4686
10143TIP3    H251921   6.372   4.335   3.973 -2.1776  0.9650  1.3010
10144TIP3   OH251922   0.841   0.331  16.665  1.0514 -0.2192 -0.5322
10144TIP3    H151923   0.779   0.362  16.731  2.1918 -0.5333  0.7327
10144TIP3    H251924   0.787   0.313  16.588 -0.1991  0.9194  0.0469
10145TIP3   OH251925   1.949   4.051  12.808 -0.1788  0.4788  0.3756
10145TIP3    H151926   2.021   4.108  12.782  0.7692 -1.0955 -0.6291
10145TIP3    H251927   1.988   3.989  12.869 -0.6181 -0.5190 -0.3244
10146TIP3   OH251928   4.464   3.963   3.175  0.2075 -0.9543 -0.2317
10146TIP3    H151929   4.525   3.983   3.247  1.0160 -1.4346 -0.7665
10146TIP3    H251930   4.495   4.017   3.102  0.1877 -1.4448 -0.6057
10147TIP3   OH251931   3.145   2.234  14.867  0.7471 -0.2596  0.0482
10147TIP3    H151932   3.164   2.174  14.795 -1.2996 -0.2386 -0.5771
10147TIP3    H251933   3.051   2.249  14.861  0.4016 -0.6237  3.0128
10148TIP3   OH251934   3.811   4.489  13.194  0.7029 -0.4607 -0.0581
10148TIP3    H151935   3.721   4.463  13.217  0.7669 -0.1129  0.6273
10148TIP3    H251936   3.865   4.416  13.223  0.7334 -0.2394  0.4571
10149TIP3   OH251937   1.157   2.190   4.315 -0.1512 -0.3234 -0.3391
10149TIP3    H151938   1.215   2.264   4.297  0.8164  0.1351  3.6738
10149TIP3    H251939   1.214   2.113   4.307 -0.8735 -0.6521 -3.3474
10150TIP3   OH251940   5.149   4.591   2.781  0.0004  0.3780  0.2053
10150TIP3    H151941   5.236   4.630   2.777  1.4530 -2.3011  2.3373
10150TIP3    H251942   5.152   4.518   2.719 -0.8017  0.3500  0.1842
10151TIP3   OH251943   0.083   6.303   1.970 -0.2672  0.0436 -0.2738
10151TIP3    H151944   0.055   6.391   1.948 -1.8417 -0.4800 -0.4864
10151TIP3    H251945   0.069   6.296   2.064 -0.9958 -0.2603 -0.4005
10152TIP3   OH251946   6.493   0.882   0.231 -0.0070 -0.6323 -0.0265
10152TIP3    H151947   6.412   0.832   0.241  0.3042 -0.7529  2.4108
10152TIP3    H251948   6.469   0.954   0.172 -1.3954 -1.6484 -0.7523
10153TIP3   OH251949   4.765   2.605   1.298  0.0945 -0.4528  0.1978
10153TIP3    H151950   4.841   2.558   1.334 -0.0279 -0.1340  0.8850
10153TIP3    H251951   4.790   2.625   1.208  1.6444  1.3890  0.9715
10154TIP3   OH251952   3.822   5.535   2.582 -0.1956 -0.0867 -0.5563
10154TIP3    H151953   3.820   5.462   2.645 -0.5168  1.5210  1.4058
10154TIP3    H251954   3.735   5.574   2.588 -1.1922 -1.3898 -4.0267
10155TIP3   OH251955   1.812   4.042  13.234 -0.6328  0.0515  0.3002
10155TIP3    H151956   1.797   4.120  13.287 -0.2133  0.5548 -0.3063
10155TIP3    H251957   1.773   4.062  13.149  1.9761  0.7793 -0.8138
10156TIP3   OH251958   1.860   3.035   4.156 -0.0426  0.4879 -0.1308
10156TIP3    H151959   1.921   2.970   4.123  2.0513  0.6553  2.9713
10156TIP3    H251960   1.861   3.105   4.091  2.6640  0.2000 -0.4907
10157TIP3   OH251961   1.964   0.546  11.928  0.5917  0.3450 -0.2264
10157TIP3    H151962   2.015   0.574  11.851 -0.9313 -1.4244 -2.0040
10157TIP3    H251963   1.988   0.454  11.939  1.2632  0.7268  1.9012
10158TIP3   OH251964   3.835   2.906  13.170  0.3553  0.2415  0.4907
10158TIP3    H151965   3.829   2.870  13.081  1.6313 -0.2421  0.5828
10158TIP3    H251966   3.889   2.985  13.160  1.8406 -0.6623  1.0443
10159TIP3   OH251967   1.850   6.074  13.956 -0.1075 -0.3004 -0.6821
10159TIP3    H151968   1.756   6.076  13.935  0.2332  0.3036 -2.2294
10159TIP3    H251969   1.880   6.163  13.941  0.8647 -0.6550 -0.9021
10160TIP3   OH251970   1.358   3.653  16.501 -0.0563 -0.1286  0.0615
10160TIP3    H151971   1.279   3.608  16.533  0.2329 -0.0531  0.8941
10160TIP3    H251972   1.352   3.741  16.538  0.1444  0.0542 -0.3363
10161TIP3   OH251973   5.269   0.687  12.634 -0.0368 -0.1338 -0.3566
10161TIP3    H151974   5.318   0.744  12.693 -0.7806  0.0678  0.0776
10161TIP3    H251975   5.270   0.733  12.550  0.9377 -0.3736 -0.4903
10162TIP3   OH251976   4.096   2.563  15.085  0.4903  0.6150 -0.0186
10162TIP3    H151977   4.186   2.546  15.057  0.8190 -0.6781  1.6892
10162TIP3    H251978   4.047   2.486  15.058  0.1941  0.6645  0.3748
10163TIP3   OH251979   1.473   2.555  11.973  0.4363  0.9301  0.5172
10163TIP3    H151980   1.535   2.589  12.037  0.8655  1.3785 -0.1307
10163TIP3    H251981   1.410   2.505  12.025  2.5101 -1.3549  1.0229
10164TIP3   OH251982   4.629   5.308  11.374  0.3608  0.4941  0.3210
10164TIP3    H151983   4.571   5.285  11.302 -1.9063  0.9877  1.8627
10164TIP3    H251984   4.705   5.250  11.364 -0.7049 -0.6927 -1.4054
10165TIP3   OH251985   3.397   6.498  13.973 -0.1892  0.0564  0.2258
10165TIP3    H151986   3.439   6.581  13.997  1.7636 -1.1181  1.1691
10165TIP3    H251987   3.362   6.466  14.056  0.2706 -0.6714  0.1446
10166TIP3   OH251988   4.827   1.186  10.809 -0.3230 -0.2136 -0.0399
10166TIP3    H151989   4.850   1.094  10.795 -2.0746 -1.1022  2.2795
10166TIP3    H251990   4.770   1.185  10.886 -0.1643  2.8726  0.2366
10167TIP3   OH251991   4.802   3.662  17.004 -0.2381 -0.1027 -0.0632
10167TIP3    H151992   4.738   3.643  17.072  0.6626 -0.2920  0.7573
10167TIP3    H251993   4.874   3.704  17.050  0.3468 -0.1523 -0.9133
10168TIP3   OH251994   2.722   5.577  16.140 -0.2339 -0.5508  0.4306
10168TIP3    H151995   2.813   5.594  16.165 -0.4037 -0.0475  0.7258
10168TIP3    H251996   2.706   5.634  16.065 -0.1295 -1.0776  0.0063
10169TIP3   OH251997   6.829   6.619   2.226  0.4200 -0.4344 -0.2786
10169TIP3    H151998   6.842   6.524   2.229  0.4274 -0.4410 -0.5220
10169TIP3    H251999   6.896   6.651   2.167 -1.0212 -0.5505 -2.0834
10170TIP3   OH252000   0.432   4.750   3.103 -0.3881  0.2313 -0.1370
10170TIP3    H152001   0.370   4.808   3.058  0.4472  0.3458 -1.1641
10170TIP3    H252002   0.403   4.752   3.195 -1.0953  1.3396 -0.3562
10171TIP3   OH252003   0.297   4.880   4.171  0.6401  0.1046  0.1117
10171TIP3    H152004   0.316   4.930   4.091  0.7191  0.4338  0.3369
10171TIP3    H252005   0.382   4.873   4.215  1.0190 -1.8373 -0.8315
10172TIP3   OH252006   4.750   0.407   0.704 -0.2975 -0.0961  0.3047
10172TIP3    H152007   4.750   0.458   0.623 -0.6152 -0.3364  0.1495
10172TIP3    H252008   4.684   0.339   0.689 -0.6558  0.1091  0.9189
10173TIP3   OH252009   1.007   6.184  13.848  0.1066  0.1550 -0.6241
10173TIP3    H152010   0.960   6.147  13.922 -0.1279  1.7806  0.0873
10173TIP3    H252011   0.952   6.165  13.772  0.4584 -1.7185 -0.4509
10174TIP3   OH252012   3.031   0.517  15.894  0.0931 -0.1275 -0.0961
10174TIP3    H152013   2.969   0.489  15.961 -2.5655  1.7168 -1.6526
10174TIP3    H252014   3.033   0.445  15.831 -2.2771  0.6545 -1.1544
10175TIP3   OH252015   4.349   0.049   4.485  0.2538 -0.0167 -0.2317
10175TIP3    H152016   4.269   0.002   4.506  0.1296  0.7126  1.0253
10175TIP3    H252017   4.411   0.022   4.552  1.2242 -0.9008 -1.4378
10176TIP3   OH252018   3.882   6.779   2.711  0.5405  0.4173 -0.1157
10176TIP3    H152019   3.813   6.735   2.759  0.5712  0.4857 -0.0082
10176TIP3    H252020   3.889   6.865   2.752 -0.4565  1.0466 -1.1814
10177TIP3   OH252021   5.515   0.720  14.405 -0.3379 -0.0526  0.0128
10177TIP3    H152022   5.476   0.760  14.327  1.1934  0.7275 -0.3902
10177TIP3    H252023   5.488   0.628  14.400 -1.9244  0.3880 -0.3310
10178TIP3   OH252024   2.142   1.008  13.132  0.2310  0.1417  0.0323
10178TIP3    H152025   2.231   1.040  13.114  0.3866  1.6215  2.8660
10178TIP3    H252026   2.154   0.937  13.195 -0.5367 -0.5850 -0.6254
10179TIP3   OH252027   1.355   3.523  13.173  0.1123  0.0473 -0.1036
10179TIP3    H152028   1.411   3.598  13.153  1.9446 -0.9700  0.9578
10179TIP3    H252029   1.397   3.449  13.130 -0.5646 -0.7161  0.5085
10180TIP3   OH252030   6.791   4.169  11.329  0.7999 -0.1696  0.0428
10180TIP3    H152031   6.847   4.244  11.310  0.9391 -0.2278  0.2204
10180TIP3    H252032   6.763   4.182  11.420  2.0123 -1.0891  0.5724
10181TIP3   OH252033   0.863   2.180   5.111  0.2088 -0.5820 -0.1638
10181TIP3    H152034   0.922   2.244   5.071 -2.5657  1.7148 -0.9763
10181TIP3    H252035   0.858   2.109   5.047  0.1542  0.3971 -1.2803
10182TIP3   OH252036   3.455   2.659  11.743  0.6208 -0.1498  0.3167
10182TIP3    H152037   3.404   2.691  11.669 -0.5515 -0.6035  0.8989
10182TIP3    H252038   3.542   2.641  11.707  1.0173  2.5183 -0.2914
10183TIP3   OH252039   0.043   1.560  11.897  0.0913 -0.1439  0.9710
10183TIP3    H152040   0.083   1.634  11.852 -0.4133 -0.2259  0.3744
10183TIP3    H252041  -0.050   1.582  11.903 -0.2941 -1.2829 -0.3695
10184TIP3   OH252042   4.263   2.283   5.216 -0.1604 -0.0521  0.5698
10184TIP3    H152043   4.301   2.197   5.237 -1.3599 -1.0511 -1.1079
10184TIP3    H252044   4.283   2.296   5.124 -2.7120 -0.0580 -0.0496
10185TIP3   OH252045   4.412   3.751  13.353 -0.4578 -0.0114 -0.3417
10185TIP3    H152046   4.391   3.706  13.435  1.2982  2.7947  1.8724
10185TIP3    H252047   4.488   3.704  13.318 -1.3701 -1.3778 -0.5390
10186TIP3   OH252048   2.540   1.765   1.118  0.4472  0.3903 -0.0054
10186TIP3    H152049   2.611   1.821   1.150 -0.8580  1.1098  1.7644
10186TIP3    H252050   2.523   1.797   1.029  1.7852  0.7342 -0.1625
10187TIP3   OH252051   2.108   5.557   1.513  0.2480 -0.7046 -0.3713
10187TIP3    H152052   2.133   5.566   1.421  1.1050  0.5705 -0.0417
10187TIP3    H252053   2.034   5.616   1.524 -0.9012 -2.0362 -0.5734
10188TIP3   OH252054   5.412   0.525   4.067  0.1668  0.0657  0.1635
10188TIP3    H152055   5.479   0.461   4.091 -0.3316 -0.3969  0.3403
10188TIP3    H252056   5.455   0.583   4.005  0.7796 -0.1250  0.4047
10189TIP3   OH252057   4.055   4.909   5.733  0.2182  0.4800 -0.0772
10189TIP3    H152058   4.099   4.968   5.794 -0.2782 -0.1741  0.9577
10189TIP3    H252059   4.113   4.833   5.728 -0.6510 -0.3158  1.1689
10190TIP3   OH252060   5.555   3.537  13.513 -0.0344 -0.1021 -1.0866
10190TIP3    H152061   5.594   3.599  13.451  0.1128  0.1713 -0.7208
10190TIP3    H252062   5.501   3.591  13.571  0.4331 -0.2543 -0.4963
10191TIP3   OH252063   1.617   2.398   0.090 -0.0819 -0.1681  0.7020
10191TIP3    H152064   1.591   2.432   0.176 -0.2123  0.5938  0.3643
10191TIP3    H252065   1.667   2.469   0.050 -0.2100 -0.4366  0.0532
10192TIP3   OH252066   3.694   2.589  15.039 -0.0207  0.2183  0.3666
10192TIP3    H152067   3.765   2.577  14.975 -0.9767  1.7980 -1.0660
10192TIP3    H252068   3.737   2.630  15.114  0.7850  0.0650  0.0037
10193TIP3   OH252069   6.588   6.553  16.588  0.5231  0.0259 -0.2608
10193TIP3    H152070   6.608   6.533  16.497 -1.1909  0.5859 -0.7969
10193TIP3    H252071   6.575   6.647  16.590 -0.6914 -0.1373  0.2806
10194TIP3   OH252072   2.194   5.239   4.503  0.1140 -0.4454  0.2465
10194TIP3    H152073   2.231   5.299   4.568 -0.3708  1.5331 -1.2064
10194TIP3    H252074   2.269   5.207   4.454  0.2080  1.1544 -0.7142
10195TIP3   OH252075   5.764   5.301   0.482  0.6053  0.3187 -0.5451
10195TIP3    H152076   5.775   5.315   0.576 -0.1601 -1.1203 -0.2020
10195TIP3    H252077   5.780   5.207   0.470  2.0452  0.7151 -2.0761
10196TIP3   OH252078   4.555   6.810   4.657  0.6590  0.1747 -0.5806
10196TIP3    H152079   4.508   6.754   4.720  1.8219  0.5841  0.7065
10196TIP3    H252080   4.613   6.749   4.611 -0.1251 -0.1120 -1.2136
10197TIP3   OH252081   4.750   1.337  17.101 -0.3285  0.3341 -0.3768
10197TIP3    H152082   4.674   1.305  17.150 -0.5501  0.0581 -0.9009
10197TIP3    H252083   4.714   1.405  17.043 -0.4469 -0.8438 -1.7240
10198TIP3   OH252084   4.043   5.751   4.566  0.4833  0.7265 -0.1856
10198TIP3    H152085   4.038   5.788   4.654  1.4728 -1.0692  0.6592
10198TIP3    H252086   4.007   5.820   4.510  0.9758  2.4081  1.4590
10199TIP3   OH252087   2.145   1.937  12.158  0.2723  0.8945 -0.0348
10199TIP3    H152088   2.124   1.915  12.249 -0.3113  1.0674 -0.1215
10199TIP3    H252089   2.066   1.915  12.109  1.0841 -0.5687 -0.7449
10200TIP3   OH252090   1.552   5.429  14.959 -0.1267 -0.5385  0.0969
10200TIP3    H152091   1.630   5.438  15.013 -0.6781  0.6610  0.7289
10200TIP3    H252092   1.505   5.511  14.971 -1.0254 -0.8632 -1.0157
10201TIP3   OH252093   2.527   3.463   4.409  0.7170 -0.2752  0.0587
10201TIP3    H152094   2.478   3.539   4.440 -0.1285 -0.4051 -0.9040
10201TIP3    H252095   2.585   3.498   4.342 -0.4507 -0.6123 -1.1719
10202TIP3   OH252096   0.573   5.702   0.333 -0.1262 -0.1201  0.2427
10202TIP3    H152097   0.636   5.771   0.315  1.0222 -0.8772  1.1802
10202TIP3    H252098   0.602   5.628   0.279 -0.3493 -0.3993  0.4980
10203TIP3   OH252099   2.743   4.186   3.498  0.2027 -0.3619 -0.4842
10203TIP3    H152100   2.752   4.091   3.487 -0.1074 -0.4616  0.0859
10203TIP3    H252101   2.814   4.209   3.558 -0.0560 -0.3152 -0.1976
10204TIP3   OH252102   6.073   6.293   0.188  0.1473 -0.2498  0.4846
10204TIP3    H152103   6.022   6.242   0.252 -0.3477  1.2803  1.3593
10204TIP3    H252104   6.162   6.258   0.195  0.0057 -0.4071  1.7061
10205TIP3   OH252105   6.435   3.567  11.193  0.0113  0.0220 -1.2288
10205TIP3    H152106   6.423   3.561  11.098 -0.5570  1.3764 -1.2706
10205TIP3    H252107   6.397   3.486  11.228 -1.8229  0.4968 -2.0042
10206TIP3   OH252108   6.205   5.110  10.175  0.0129 -0.0278 -0.0341
10206TIP3    H152109   6.247   5.148  10.097  0.5832 -1.9954 -0.7457
10206TIP3    H252110   6.113   5.104  10.152  0.0684  0.0525 -0.2836
10207TIP3   OH252111   6.805   2.471   3.040  0.1432 -0.1087 -0.3973
10207TIP3    H152112   6.778   2.385   3.006 -1.3194  0.6884 -1.3335
10207TIP3    H252113   6.772   2.534   2.976  0.9905  1.1906  0.3934
10208TIP3   OH252114   3.720   2.122  14.262  0.2179 -0.2256  0.7223
10208TIP3    H152115   3.745   2.030  14.266  2.2627  0.2145 -0.3303
10208TIP3    H252116   3.799   2.169  14.292  0.2237  1.2555 -1.4319
10209TIP3   OH252117   1.149   5.858   3.688  0.1995  0.0870 -0.8297
10209TIP3    H152118   1.137   5.765   3.672  0.0333 -0.9380  3.9091
10209TIP3    H252119   1.244   5.870   3.690  0.2217  0.1049 -1.5995
10210TIP3   OH252120   3.112   2.620   2.456  0.5124  0.3449 -0.0138
10210TIP3    H152121   3.028   2.580   2.433  1.0743 -0.3068 -0.9836
10210TIP3    H252122   3.090   2.711   2.477 -0.5135  0.0331  0.3334
10211TIP3   OH252123   1.644   2.913  12.623  0.6049 -0.0479 -0.4309
10211TIP3    H152124   1.612   2.914  12.533 -0.4489  0.1141 -0.0611
10211TIP3    H252125   1.583   2.969  12.671  0.5983 -0.8906  0.5733
10212TIP3   OH252126   6.487   1.450  14.898  0.4177  0.3556  0.3926
10212TIP3    H152127   6.577   1.426  14.919  0.6000  0.9160  0.2887
10212TIP3    H252128   6.495   1.533  14.850 -0.2929  1.7799  2.5802
10213TIP3   OH252129   6.839   0.831   5.712  0.8564 -0.1320 -0.3387
10213TIP3    H152130   6.910   0.805   5.771  0.7099  0.7481  0.2514
10213TIP3    H252131   6.853   0.925   5.698 -0.6412  0.2279  0.4184
10214TIP3   OH252132   0.871   4.605   2.409  0.3480 -0.0069  0.2836
10214TIP3    H152133   0.963   4.578   2.414 -0.5381 -3.0865  1.8729
10214TIP3    H252134   0.853   4.644   2.495 -0.1420 -0.5677  0.4380
10215TIP3   OH252135   6.493   0.188   2.444 -0.2777 -0.4921  0.4952
10215TIP3    H152136   6.489   0.112   2.502 -1.1398 -0.3563  0.6200
10215TIP3    H252137   6.419   0.176   2.384  0.6239 -0.6559 -0.6135
10216TIP3   OH252138   1.661   2.346  14.064  0.1522 -0.3281  0.3379
10216TIP3    H152139   1.670   2.277  13.997  0.4696  0.6866 -0.6949
10216TIP3    H252140   1.667   2.299  14.147 -0.0793 -1.6091 -0.3385
10217TIP3   OH252141   4.581   1.452  13.866 -0.3835  0.0754 -0.0592
10217TIP3    H152142   4.594   1.547  13.864 -0.6841  0.2033  1.9376
10217TIP3    H252143   4.487   1.440  13.857 -0.3226 -0.0614 -0.5564
10218TIP3   OH252144   5.289   1.987  12.943  0.1210  0.5167 -0.4637
10218TIP3    H152145   5.228   2.033  13.001 -0.3717 -1.9221  1.0845
10218TIP3    H252146   5.271   2.023  12.856 -0.8883  2.4920  0.5054
10219TIP3   OH252147   1.142   5.868  16.481  0.2190  0.1540 -0.1330
10219TIP3    H152148   1.135   5.782  16.440 -1.4228 -0.0228  0.4562
10219TIP3    H252149   1.191   5.852  16.562  1.1317  0.0399 -0.6942
10220TIP3   OH252150   1.244   5.013   2.273  0.1921 -0.6360  0.1037
10220TIP3    H152151   1.239   4.965   2.190 -1.1274 -3.3119  1.6166
10220TIP3    H252152   1.248   4.946   2.340  1.3377  1.4368  2.2865
10221TIP3   OH252153   5.376   0.398   2.147  0.3003 -0.6191 -0.0761
10221TIP3    H152154   5.441   0.443   2.093  1.7904 -1.3522  1.0145
10221TIP3    H252155   5.320   0.467   2.181 -0.4760 -0.1060 -2.2254
10222TIP3   OH252156   1.957   6.411   2.849 -0.3132  0.1972  0.0736
10222TIP3    H152157   1.953   6.335   2.792 -0.6563  0.0571  0.2808
10222TIP3    H252158   2.027   6.465   2.813  0.7087 -0.7552  0.5942
10223TIP3   OH252159   5.263   5.398  11.333  0.5670 -0.1796  1.1400
10223TIP3    H152160   5.316   5.422  11.409  0.7238  3.3894  0.0838
10223TIP3    H252161   5.174   5.426  11.356  0.1671 -1.1351  0.8129
10224TIP3   OH252162   0.509   4.378   0.924 -0.4464  0.1123  0.0439
10224TIP3    H152163   0.415   4.397   0.916 -0.1464  1.4432 -0.4797
10224TIP3    H252164   0.552   4.450   0.878  0.8836  0.1563  1.3107
10225TIP3   OH252165   5.599   2.068   3.573  0.3296 -1.0790 -0.9303
10225TIP3    H152166   5.599   2.053   3.479  2.0753 -0.0463 -1.1428
10225TIP3    H252167   5.668   2.134   3.587  0.3794 -1.4949  1.0997
10226TIP3   OH252168   0.723   6.619   0.604  0.0546 -0.7068 -0.3675
10226TIP3    H152169   0.709   6.643   0.513 -2.4558 -1.4942 -0.2544
10226TIP3    H252170   0.659   6.550   0.621  0.9789 -1.1284  1.7980
10227TIP3   OH252171   4.879   5.035  15.123  0.4997  0.5255 -0.4905
10227TIP3    H152172   4.825   5.100  15.168  1.2663 -0.4448  1.9487
10227TIP3    H252173   4.822   4.959  15.112  0.1851  0.8967 -1.6464
10228TIP3   OH252174   1.568   1.566   4.932  0.1334 -0.3126 -0.1877
10228TIP3    H152175   1.559   1.540   4.840  0.4048  0.6587 -0.5049
10228TIP3    H252176   1.484   1.605   4.954  0.8890  1.8692 -0.8598
10229TIP3   OH252177   2.832   3.411  13.344 -0.0698  0.1679  0.5153
10229TIP3    H152178   2.839   3.479  13.277 -2.2805  0.2515  0.3164
10229TIP3    H252179   2.822   3.329  13.294 -2.0328  0.2664  0.6907
10230TIP3   OH252180   2.335   5.035   1.081 -0.1671  0.5991  0.0113
10230TIP3    H152181   2.253   5.063   1.120  0.2338  0.9175  0.6493
10230TIP3    H252182   2.380   4.987   1.151 -0.5543 -1.1244 -0.8572
10231TIP3   OH252183   5.432   0.281   0.641  0.0730 -0.0939 -0.4197
10231TIP3    H152184   5.463   0.254   0.728  0.0043  1.1735  0.0166
10231TIP3    H252185   5.338   0.291   0.651 -0.1509 -1.3614 -1.0490
10232TIP3   OH252186   4.144   4.445  11.313 -0.3712  0.3332 -0.0732
10232TIP3    H152187   4.190   4.396  11.381 -0.2109 -0.9889 -1.0918
10232TIP3    H252188   4.055   4.412  11.314 -0.2156 -0.1431 -0.8996
10233TIP3   OH252189   1.471   3.842  12.786  0.4149 -0.5332  0.4325
10233TIP3    H152190   1.444   3.932  12.769 -0.6637 -0.8997  0.0913
10233TIP3    H252191   1.567   3.844  12.783  0.4481  0.7692  1.3478
10234TIP3   OH252192   2.412   4.666   1.843  0.3158 -0.0049 -0.5022
10234TIP3    H152193   2.354   4.616   1.900 -0.3206  0.3316 -0.8495
10234TIP3    H252194   2.361   4.743   1.818  0.8519  0.2120 -0.9446
10235TIP3   OH252195   4.758   0.565   3.504 -0.2165  0.5166  0.4100
10235TIP3    H152196   4.700   0.489   3.503 -0.6327  0.8163  1.2044
10235TIP3    H252197   4.752   0.599   3.593 -0.0470  1.4948  0.0631
10236TIP3   OH252198   6.684   3.960  12.889  0.1641 -0.8658  0.6602
10236TIP3    H152199   6.600   3.988  12.854 -0.5108 -2.8301  0.6109
10236TIP3    H252200   6.663   3.903  12.962  1.3438 -2.7351 -0.3495
10237TIP3   OH252201   0.934   1.387   3.037  0.5600  0.1611  0.4281
10237TIP3    H152202   0.955   1.419   3.125 -2.4723  0.6046  1.1309
10237TIP3    H252203   0.850   1.342   3.048  0.1435  0.1277 -2.2408
10238TIP3   OH252204   4.931   2.481  13.437  0.0720  0.2077 -0.1750
10238TIP3    H152205   4.860   2.540  13.462 -0.4161  0.4166 -1.9410
10238TIP3    H252206   4.938   2.490  13.342  2.3711  0.0724 -0.0811
10239TIP3   OH252207   0.331   3.944   3.159  0.0895  0.3227  0.2401
10239TIP3    H152208   0.397   3.877   3.174  0.9066  0.8971 -0.6210
10239TIP3    H252209   0.342   4.006   3.231 -1.7770 -1.2383  1.9931
10240TIP3   OH252210   5.368   2.834  14.133 -0.5769 -0.0762  0.3232
10240TIP3    H152211   5.456   2.869  14.150 -0.9417  0.5598  0.9210
10240TIP3    H252212   5.381   2.739  14.135  0.2585 -0.0021 -0.4809
10241TIP3   OH252213   2.027   1.549  13.428 -0.4446 -0.1375  0.1250
10241TIP3    H152214   1.971   1.536  13.351  0.3658 -0.9473 -0.3474
10241TIP3    H252215   2.085   1.473  13.428  0.9557  0.9059  0.3368
10242TIP3   OH252216   4.203   3.071   0.602  0.1088 -0.4557 -0.2942
10242TIP3    H152217   4.233   2.995   0.552  3.0949 -0.0687  0.6930
10242TIP3    H252218   4.278   3.130   0.603 -2.0559  2.5383 -0.9348
10243TIP3   OH252219   3.382   1.532   3.419  0.1652 -0.4044 -0.4606
10243TIP3    H152220   3.401   1.597   3.486 -0.7058 -0.8689  0.2617
10243TIP3    H252221   3.381   1.581   3.337 -1.5018  0.6909  0.1723
10244TIP3   OH252222   3.144   0.917  14.283  0.5255  0.4502  0.2583
10244TIP3    H152223   3.187   1.002  14.266  2.7445 -0.7169 -0.4604
10244TIP3    H252224   3.099   0.897  14.201  1.8322 -0.0090 -0.3884
10245TIP3   OH252225   6.153   5.528  13.076  0.0168 -0.1772  0.2636
10245TIP3    H152226   6.216   5.524  13.004  1.1039  2.2371  0.9492
10245TIP3    H252227   6.068   5.535  13.034  0.6363  1.1554 -0.8611
10246TIP3   OH252228   3.140   2.217   0.900  0.2541 -0.1834 -0.1659
10246TIP3    H152229   3.071   2.156   0.872  0.3589 -0.0648 -0.7093
10246TIP3    H252230   3.130   2.223   0.995  0.6401 -1.5421 -0.0173
10247TIP3   OH252231   4.134   2.391   4.036  0.3323 -0.6820 -0.5286
10247TIP3    H152232   4.110   2.463   4.094 -2.1377 -0.9255 -1.1177
10247TIP3    H252233   4.219   2.361   4.068  1.0502  1.9204  0.2439
10248TIP3   OH252234   0.515   4.076  13.259  0.4818 -0.8266  0.3321
10248TIP3    H152235   0.573   4.109  13.328 -0.6782  0.4887  0.7091
10248TIP3    H252236   0.427   4.086  13.294 -0.0832 -1.2143 -0.9060
10249TIP3   OH252237   4.605   3.076   0.885  0.1754  0.4986  0.5873
10249TIP3    H152238   4.647   3.005   0.837 -1.3240 -1.0361  1.4131
10249TIP3    H252239   4.676   3.120   0.932  0.9683 -1.4561  1.2981
10250TIP3   OH252240   5.163   3.328  11.344 -0.3663  0.3422  0.0606
10250TIP3    H152241   5.140   3.421  11.344  0.5280  0.5705  1.0108
10250TIP3    H252242   5.093   3.286  11.395  0.1528  0.7413  1.1212
10251TIP3   OH252243   2.497   3.485  12.629 -0.2559  0.1550 -0.7630
10251TIP3    H152244   2.473   3.427  12.556 -1.3918 -0.0388 -0.2526
10251TIP3    H252245   2.428   3.472  12.693  0.8743  0.1151  0.4861
10252TIP3   OH252246   4.514   2.049  11.282 -0.2825 -0.3899 -0.2362
10252TIP3    H152247   4.552   2.027  11.197 -0.1097  1.1742 -0.5915
10252TIP3    H252248   4.588   2.083  11.333 -0.4436 -1.0441  0.4548
10253TIP3   OH252249   2.487   0.535   1.412  0.0852  0.0602  0.3095
10253TIP3    H152250   2.531   0.498   1.336 -0.0608 -2.2473  1.2667
10253TIP3    H252251   2.478   0.628   1.392  1.5219 -0.1843 -1.7528
10254TIP3   OH252252   6.377   3.963   3.466  0.1486 -0.1182  0.0019
10254TIP3    H152253   6.282   3.974   3.474  0.2794  0.5347  0.6995
10254TIP3    H252254   6.399   4.005   3.383 -0.1783 -0.3343 -0.1988
10255TIP3   OH252255   3.970   2.209   3.621  0.5995 -0.9243  0.3758
10255TIP3    H152256   3.981   2.119   3.591  0.1027 -0.6383 -0.7254
10255TIP3    H252257   4.040   2.222   3.685  1.3885 -1.7305 -0.2953
10256TIP3   OH252258   5.566   2.817   1.824  0.1084  0.4848  0.0659
10256TIP3    H152259   5.622   2.742   1.804 -0.6021 -0.4265  1.3553
10256TIP3    H252260   5.477   2.784   1.813 -0.2656  0.5372  2.4850
10257TIP3   OH252261   5.679   4.899  14.699 -0.0851  0.1657 -0.4038
10257TIP3    H152262   5.658   4.938  14.615 -0.2790 -0.4950 -0.6684
10257TIP3    H252263   5.683   4.805  14.682  1.0321  0.1146  0.0801
10258TIP3   OH252264   6.137   6.658  13.311  0.0339 -0.2577 -0.2896
10258TIP3    H152265   6.075   6.586  13.293 -0.3488 -0.0136  0.0147
10258TIP3    H252266   6.084   6.737  13.304 -0.2856 -0.1498  2.2479
10259TIP3   OH252267   2.122   1.507  15.762 -0.0423 -0.2995 -0.5980
10259TIP3    H152268   2.113   1.463  15.846 -0.2425 -0.7344 -0.8469
10259TIP3    H252269   2.113   1.600  15.783  1.9430 -0.2212  0.1790
10260TIP3   OH252270   3.354   1.532   3.038  0.2367  0.1806  0.4986
10260TIP3    H152271   3.404   1.517   2.958  1.0281 -0.0694  1.0283
10260TIP3    H252272   3.384   1.618   3.069  1.3863 -0.5635  1.5501
10261TIP3   OH252273   4.990   0.418   1.375  0.2558  0.2779 -0.5911
10261TIP3    H152274   5.016   0.440   1.464  0.3887  0.0659 -0.5741
10261TIP3    H252275   5.028   0.487   1.321  0.9546 -0.0793 -0.5769
10262TIP3   OH252276   2.245   6.069  16.126 -0.0777  0.0184  0.5450
10262TIP3    H152277   2.204   6.141  16.079 -0.5157  0.0617  0.9916
10262TIP3    H252278   2.241   5.995  16.065  0.1372  0.3030  0.1876
10263TIP3   OH252279   2.816   6.268   6.092  1.0563 -0.2191 -0.2922
10263TIP3    H152280   2.882   6.201   6.108  1.9686  1.1031  1.9781
10263TIP3    H252281   2.865   6.342   6.055  1.0552  0.9886  1.9521
10264TIP3   OH252282   3.059   0.597   2.439  0.3453  0.0506  0.6736
10264TIP3    H152283   3.001   0.590   2.363 -1.3066 -0.6207  1.9334
10264TIP3    H252284   3.102   0.682   2.429  0.0804  0.0346 -0.9272
10265TIP3   OH252285   0.118   3.498   5.257 -0.2228 -0.3914 -0.3465
10265TIP3    H152286   0.199   3.464   5.218  0.0307 -0.8898  0.5853
10265TIP3    H252287   0.071   3.419   5.285  0.1709 -0.0293  1.4674
10266TIP3   OH252288   0.351   6.304   0.393 -0.7259  0.0937  0.1761
10266TIP3    H152289   0.409   6.262   0.330 -0.3033  1.0762 -0.1138
10266TIP3    H252290   0.311   6.376   0.344  0.7466  1.8295  1.3946
10267TIP3   OH252291   0.656   6.613   0.293 -0.0515  0.6050 -0.0313
10267TIP3    H152292   0.582   6.633   0.350  0.0659  2.5285 -0.4688
10267TIP3    H252293   0.644   6.670   0.217  1.3472  0.2452 -0.5629
10268TIP3   OH252294   5.199   2.561  14.938  0.4114 -0.1117  0.1453
10268TIP3    H152295   5.133   2.505  14.977  0.3820  0.0850  0.3813
10268TIP3    H252296   5.204   2.533  14.846  0.6151 -0.7028  0.3321
10269TIP3   OH252297   4.031   3.134   0.816  0.0535 -0.0936  0.2869
10269TIP3    H152298   3.963   3.188   0.775  1.7843  0.5063 -2.0196
10269TIP3    H252299   4.092   3.115   0.745  2.4692 -0.3311  2.2838
10270TIP3   OH252300   0.054   0.763   0.370 -0.2971  0.8002 -0.5293
10270TIP3    H152301   0.023   0.772   0.460 -0.4017 -0.9103 -0.3667
10270TIP3    H252302   0.148   0.750   0.378 -0.5661 -1.5909 -0.4446
10271TIP3   OH252303   4.847   6.220   0.737  0.6521 -0.1891 -0.8134
10271TIP3    H152304   4.894   6.303   0.739  0.2709  0.0434 -1.2694
10271TIP3    H252305   4.885   6.173   0.662  0.4417 -0.1700 -0.9320
10272TIP3   OH252306   0.753   5.123  11.853  0.0235  0.5294  0.4323
10272TIP3    H152307   0.710   5.085  11.776 -0.2998  0.7612  0.4987
10272TIP3    H252308   0.820   5.180  11.816  0.9390 -0.5633  0.3310
10273TIP3   OH252309   3.411   0.472  16.401 -0.1742 -0.2468 -0.6005
10273TIP3    H152310   3.398   0.467  16.496 -0.8133 -1.1968 -0.7199
10273TIP3    H252311   3.446   0.386  16.378 -1.3452 -0.5348 -1.4030
10274TIP3   OH252312   4.015   1.927  12.383  0.2450 -0.3955  0.0383
10274TIP3    H152313   4.026   1.832  12.390  0.2965 -0.2763  2.3311
10274TIP3    H252314   3.920   1.940  12.388  0.1423 -0.3551 -1.4928
10275TIP3   OH252315   0.318   0.541  15.311 -0.1403 -0.2270 -0.0859
10275TIP3    H152316   0.247   0.505  15.258  0.4887 -1.5167 -0.0985
10275TIP3    H252317   0.288   0.532  15.402  0.1104 -1.0621 -0.0741
10276TIP3   OH252318   1.042   0.993  14.987 -0.3417 -0.2336 -0.7277
10276TIP3    H152319   1.081   0.953  14.909  1.9634 -1.7119  1.0700
10276TIP3    H252320   0.984   0.926  15.023  0.5904 -0.5595  0.2081
10277TIP3   OH252321   1.432   0.632   2.944  0.2223 -0.5692  0.2746
10277TIP3    H152322   1.383   0.557   2.911 -0.6884  0.9649 -2.1943
10277TIP3    H252323   1.504   0.643   2.883  0.1424  0.7205  0.3800
10278TIP3   OH252324   3.559   5.647   2.684 -0.2301 -0.4332  0.1489
10278TIP3    H152325   3.501   5.572   2.700  0.2606 -0.6009  1.2154
10278TIP3    H252326   3.614   5.652   2.762  1.2410 -0.3066 -0.8705
10279TIP3   OH252327   5.487   4.425  10.641 -0.0799 -0.4082  0.4225
10279TIP3    H152328   5.453   4.404  10.728  0.4452 -1.8093  0.3103
10279TIP3    H252329   5.539   4.505  10.653 -1.3370  0.3496  1.0627
10280TIP3   OH252330   6.386   0.546  13.618 -0.5278 -0.2218  0.3345
10280TIP3    H152331   6.450   0.540  13.547 -0.6178 -0.8035  0.2958
10280TIP3    H252332   6.437   0.533  13.698 -0.6816 -1.3374  0.2662
10281TIP3   OH252333   1.316   5.603  16.752  0.0124  0.0174 -0.1782
10281TIP3    H152334   1.380   5.551  16.802  0.6082  1.1086  0.2280
10281TIP3    H252335   1.277   5.661  16.817 -0.5391  0.1871 -0.6551
10282TIP3   OH252336   5.371   0.530  12.937 -0.0204  0.1810  0.4229
10282TIP3    H152337   5.462   0.530  12.909  0.0566  0.5305  0.6564
10282TIP3    H252338   5.371   0.486  13.022 -0.1113 -0.0584  0.2991
10283TIP3   OH252339   2.484   4.852   3.199  0.3456 -0.0927  0.8951
10283TIP3    H152340   2.468   4.763   3.229 -0.8839  0.3127  1.4959
10283TIP3    H252341   2.397   4.886   3.177  0.8271  0.8717  0.4155
10284TIP3   OH252342   6.719   4.848   3.179  0.3837  0.2858  0.7078
10284TIP3    H152343   6.698   4.905   3.253 -0.9104  0.1014  0.5129
10284TIP3    H252344   6.671   4.886   3.105  2.6514  1.2139 -0.3984
10285TIP3   OH252345   2.158   4.848  10.261  0.0565  0.4815  0.3545
10285TIP3    H152346   2.169   4.782  10.329  1.6969 -0.1969 -0.5166
10285TIP3    H252347   2.097   4.807  10.199  0.9847 -0.2075 -0.1308
10286TIP3   OH252348   6.739   3.590   4.227 -0.1509 -0.2573  0.1214
10286TIP3    H152349   6.787   3.665   4.192 -0.3705 -0.1232  0.1074
10286TIP3    H252350   6.807   3.528   4.254  0.1778  1.2359  3.1199
10287TIP3   OH252351   2.787   0.746   1.679  0.5517  0.1762  0.4598
10287TIP3    H152352   2.816   0.837   1.688  0.7568  0.1511  0.0765
10287TIP3    H252353   2.744   0.743   1.593  1.4389 -0.3193  0.0208
10288TIP3   OH252354   6.749   2.960   0.024  0.2279  0.0934  0.6328
10288TIP3    H152355   6.702   2.972  -0.058 -0.1063 -1.1464  0.6239
10288TIP3    H252356   6.688   2.913   0.081  0.7360  0.2379  1.3168
10289TIP3   OH252357   5.336   4.665  11.223  0.2294  0.2850  0.0934
10289TIP3    H152358   5.305   4.710  11.143  1.7011  1.0557 -0.0667
10289TIP3    H252359   5.259   4.617  11.253 -0.3315 -0.1735 -1.8863
10290TIP3   OH252360   1.087   1.783   1.143 -0.4329 -0.4409  0.0142
10290TIP3    H152361   1.143   1.706   1.154 -0.8185 -0.8763 -0.9475
10290TIP3    H252362   1.143   1.857   1.168  0.5641 -0.8641 -0.8599
10291TIP3   OH252363   6.216   3.169   2.729 -0.2823  0.7182  0.1886
10291TIP3    H152364   6.208   3.111   2.654 -3.0717 -1.2641  1.8300
10291TIP3    H252365   6.271   3.241   2.698 -0.2954 -0.5929 -3.3191
10292TIP3   OH252366   6.145   0.651  13.554 -0.2952  0.1975  0.6167
10292TIP3    H152367   6.230   0.613  13.576  0.2511  1.6674  1.2392
10292TIP3    H252368   6.159   0.691  13.468 -0.5344 -0.0807  0.4507
10293TIP3   OH252369   4.829   0.957   0.254 -0.5616 -0.3146  0.0131
10293TIP3    H152370   4.797   0.922   0.171 -3.0430 -1.8428  1.4747
10293TIP3    H252371   4.856   0.879   0.303 -1.6756  0.2591  1.6067
10294TIP3   OH252372   4.487   5.049  16.277  0.1442 -0.1565  0.1897
10294TIP3    H152373   4.561   5.084  16.228 -0.9791  1.4238 -0.4634
10294TIP3    H252374   4.456   5.122  16.330 -0.8208 -0.8362  0.5932
10295TIP3   OH252375   1.849   3.494   1.143  0.3131 -0.0952 -0.2331
10295TIP3    H152376   1.840   3.439   1.220  0.6800  0.9289  0.5700
10295TIP3    H252377   1.940   3.525   1.146  0.2250  0.2492 -0.8675
10296TIP3   OH252378   0.161   1.986   5.229  0.1002 -0.4395 -0.6730
10296TIP3    H152379   0.100   1.963   5.159  0.4746 -1.6688 -0.6173
10296TIP3    H252380   0.112   2.046   5.285 -1.0402 -1.3449 -0.6657
10297TIP3   OH252381   2.092   3.914  16.743 -0.0330 -0.0492 -0.1310
10297TIP3    H152382   2.039   3.982  16.786 -1.0603 -1.1590  0.4282
10297TIP3    H252383   2.162   3.896  16.806 -0.3496 -0.2168  0.1798
10298TIP3   OH252384   3.491   4.128   5.389 -0.1436  0.3723  0.1464
10298TIP3    H152385   3.471   4.220   5.404 -0.9561  0.4055 -1.0777
10298TIP3    H252386   3.417   4.081   5.427  1.5420 -0.0186  3.3911
10299TIP3   OH252387   1.812   3.296  16.687 -0.0323 -0.2465  0.5966
10299TIP3    H152388   1.801   3.218  16.632 -2.3741  0.3954  0.0601
10299TIP3    H252389   1.848   3.362  16.628 -2.1954  0.3315 -0.1425
10300TIP3   OH252390   6.790   0.482  16.164 -0.3295  0.6110  0.2280
10300TIP3    H152391   6.859   0.501  16.100 -0.0156  1.1688  0.7202
10300TIP3    H252392   6.807   0.392  16.192  1.6299  1.4610  2.0475
10301TIP3   OH252393   3.469   0.280   3.725  0.7373 -0.5238 -0.0421
10301TIP3    H152394   3.559   0.274   3.756  1.2573 -1.0657 -1.5728
10301TIP3    H252395   3.466   0.361   3.674  0.0397  0.0704  0.9007
10302TIP3   OH252396   2.312   4.233  15.118 -0.0803  0.6253 -0.2819
10302TIP3    H152397   2.379   4.290  15.156  2.5244 -1.8345 -0.8031
10302TIP3    H252398   2.323   4.243  15.024  1.0883 -1.3127 -0.4041
10303TIP3   OH252399   1.112   4.359  13.164  0.3143 -1.0549  0.5777
10303TIP3    H152400   1.162   4.440  13.168  0.8760 -1.4431  1.9074
10303TIP3    H252401   1.026   4.385  13.131  0.0480  0.3336  2.2465
10304TIP3   OH252402   5.482   5.362  16.444  0.0069 -0.0438 -0.0960
10304TIP3    H152403   5.461   5.435  16.502  0.9492 -0.2805  0.5534
10304TIP3    H252404   5.407   5.303  16.453  0.1149 -0.0506  0.8439
10305TIP3   OH252405   0.403   2.172  11.854  0.4042 -0.2181  0.1602
10305TIP3    H152406   0.452   2.225  11.792 -0.6752 -0.0610 -0.5751
10305TIP3    H252407   0.465   2.104  11.882  0.9596 -0.1728 -0.9365
10306TIP3   OH252408   5.157   6.726   4.995 -0.0021  0.1806 -0.0460
10306TIP3    H152409   5.223   6.663   4.968 -2.1475 -1.5957 -1.4791
10306TIP3    H252410   5.158   6.724   5.091 -0.2668 -2.3516 -0.0479
10307TIP3   OH252411   4.107   6.378   4.559 -0.2809  0.4924 -0.5317
10307TIP3    H152412   4.058   6.451   4.521 -0.9760  0.3116  0.0165
10307TIP3    H252413   4.139   6.411   4.643 -2.4309 -0.4899  0.7573
10308TIP3   OH252414   2.285   3.443  13.264 -0.2713  0.2021  0.0696
10308TIP3    H152415   2.302   3.460  13.357 -0.2796 -2.7186  0.7071
10308TIP3    H252416   2.354   3.491  13.218  3.1401 -2.4332  1.9494
10309TIP3   OH252417   0.776   3.398  17.006 -0.0130 -0.0740 -0.5463
10309TIP3    H152418   0.723   3.476  16.992  0.2059  0.1296 -0.2422
10309TIP3    H252419   0.714   3.325  16.996 -0.7005  0.2033  1.2760
10310TIP3   OH252420   4.220   1.677   1.311  0.4170  0.6262 -0.5709
10310TIP3    H152421   4.297   1.627   1.338 -0.0175  0.5465  0.5775
10310TIP3    H252422   4.244   1.714   1.226  1.5513  0.2439 -0.4345
10311TIP3   OH252423   4.067   2.577   0.771  0.0865  0.0233 -0.0003
10311TIP3    H152424   4.025   2.663   0.777  0.3614  0.0873  1.6513
10311TIP3    H252425   4.114   2.578   0.687  3.1791  2.9853  1.5010
10312TIP3   OH252426   6.729   1.089   1.056 -0.2482 -0.1641  0.1661
10312TIP3    H152427   6.787   1.045   0.994  1.3491  0.3666  1.2211
10312TIP3    H252428   6.731   1.181   1.030  0.8839  0.1567  1.2941
10313TIP3   OH252429   3.159   1.478  15.644 -0.4555 -0.0335  0.1847
10313TIP3    H152430   3.123   1.567  15.653  1.7655  0.7733  2.3818
10313TIP3    H252431   3.254   1.492  15.636 -0.1553 -2.2085 -0.7018
10314TIP3   OH252432   2.653   1.488   0.461  0.2211 -0.5803  0.5471
10314TIP3    H152433   2.716   1.416   0.471 -1.0561 -1.6813  0.9319
10314TIP3    H252434   2.656   1.533   0.545  1.9068  0.6007 -0.0969
10315TIP3   OH252435   3.017   5.235   0.587 -0.1259 -0.0082  0.0246
10315TIP3    H152436   3.053   5.323   0.594  0.3500 -0.2249  0.3344
10315TIP3    H252437   2.962   5.237   0.509  2.2722 -0.2843 -1.7503
10316TIP3   OH252438   1.809   1.592  12.052 -0.4132 -0.9628 -0.1760
10316TIP3    H152439   1.775   1.613  12.139 -0.6583 -1.6077 -0.1060
10316TIP3    H252440   1.898   1.561  12.069  0.0013  0.1143 -0.2937
10317TIP3   OH252441   4.401   6.273   0.591  0.0641  0.2635  0.1191
10317TIP3    H152442   4.430   6.219   0.518 -2.5166  0.5156 -1.1995
10317TIP3    H252443   4.421   6.363   0.564 -0.0156  0.2984  0.1769
10318TIP3   OH252444   3.517   0.407  12.501  0.4047 -0.1495 -0.4714
10318TIP3    H152445   3.501   0.415  12.595  2.1511  0.2264 -0.1745
10318TIP3    H252446   3.611   0.389  12.494  0.4717  0.6893 -2.1807
10319TIP3   OH252447   4.433   1.293  15.692  0.3495  0.4124 -0.3311
10319TIP3    H152448   4.436   1.209  15.646  3.6024  0.0142  0.3751
10319TIP3    H252449   4.342   1.322  15.682 -0.0398 -1.4103 -3.7307
10320TIP3   OH252450   1.097   3.624   4.060 -0.1076  0.3350 -0.1199
10320TIP3    H152451   1.067   3.628   3.969 -1.0869  1.2129  0.2136
10320TIP3    H252452   1.047   3.692   4.104 -0.2685 -0.6289  1.2565
10321TIP3   OH252453   5.523   2.286   0.859  0.2701 -0.1367  0.8761
10321TIP3    H152454   5.523   2.211   0.800  0.0225 -2.0458  3.1419
10321TIP3    H252455   5.615   2.310   0.867  0.2019  1.0658 -1.2663
10322TIP3   OH252456   4.711   4.169  14.225  0.8081  0.0967 -0.0677
10322TIP3    H152457   4.792   4.116  14.230  1.4364  0.9344 -1.0187
10322TIP3    H252458   4.740   4.253  14.189 -0.2502  0.9575  1.0529
10323TIP3   OH252459   1.408   5.257   0.652  0.6411 -0.3382  0.5741
10323TIP3    H152460   1.401   5.286   0.743  1.5248  1.6110  0.0707
10323TIP3    H252461   1.323   5.218   0.633  0.1619 -0.0377  1.9902
10324TIP3   OH252462   2.430   4.117  16.331  0.2706  0.1618  0.0272
10324TIP3    H152463   2.468   4.037  16.293 -0.5125 -0.5701  0.7619
10324TIP3    H252464   2.506   4.174  16.343  0.9070 -0.6037 -0.1747
10325TIP3   OH252465   3.466   2.273   0.204 -0.1530  0.0129  0.1548
10325TIP3    H152466   3.415   2.335   0.256 -1.0584 -0.9995  0.5301
10325TIP3    H252467   3.466   2.193   0.257 -0.5046 -0.8388 -1.0810
10326TIP3   OH252468   4.213   1.495   6.223 -0.8484 -0.0176 -0.5139
10326TIP3    H152469   4.260   1.521   6.302 -0.3984  0.0650 -0.8021
10326TIP3    H252470   4.121   1.494   6.249 -0.8100  1.0503 -0.2622
10327TIP3   OH252471   3.190   5.177  12.176 -0.1709 -0.3401 -0.3192
10327TIP3    H152472   3.285   5.173  12.167 -0.2056 -4.2895 -0.4664
10327TIP3    H252473   3.156   5.137  12.097 -1.9110 -0.3552  0.3895
10328TIP3   OH252474   2.056   2.203   1.595 -0.3532 -0.3453  0.1749
10328TIP3    H152475   1.988   2.220   1.529 -1.0424 -0.7846  0.7574
10328TIP3    H252476   2.061   2.284   1.645 -0.6922 -0.4251  0.3419
10329TIP3   OH252477   1.339   0.993   1.392 -0.1107 -0.2588 -1.1478
10329TIP3    H152478   1.369   1.028   1.475  2.5055 -2.1565 -1.1900
10329TIP3    H252479   1.315   1.071   1.341 -0.8589  0.9875  0.9819
10330TIP3   OH252480   3.552   6.497   0.938 -0.2064  0.1279 -0.5789
10330TIP3    H152481   3.515   6.410   0.952 -0.0196  0.2351  0.6720
10330TIP3    H252482   3.502   6.533   0.865 -0.0943 -1.1284 -1.2998
10331TIP3   OH252483   0.954   0.776   3.659 -0.6922  0.0524  0.1369
10331TIP3    H152484   0.978   0.836   3.730 -0.6720  0.2575 -0.0406
10331TIP3    H252485   1.036   0.731   3.637 -0.3387  1.1052 -0.8009
10332TIP3   OH252486   5.374   2.828  16.309  0.0652  0.2028  0.1015
10332TIP3    H152487   5.298   2.778  16.277  0.3711 -1.6288  2.0049
10332TIP3    H252488   5.434   2.830  16.235 -0.5125 -1.1648 -0.4411
10333TIP3   OH252489   5.128   3.972   1.171  0.2749 -0.3455  0.0501
10333TIP3    H152490   5.157   3.957   1.261 -0.9664 -0.2488  0.4860
10333TIP3    H252491   5.053   4.030   1.179  1.1197  0.9996 -1.1816
10334TIP3   OH252492   1.115   5.416   4.376  0.3874 -0.2995  0.0121
10334TIP3    H152493   1.158   5.364   4.309 -1.3123 -1.8430  0.0178
10334TIP3    H252494   1.154   5.503   4.369  0.5887 -0.5375 -2.6375
10335TIP3   OH252495   3.431   5.381   5.743  0.2504  0.7939 -0.1841
10335TIP3    H152496   3.450   5.291   5.768  2.6085  0.9388 -1.2444
10335TIP3    H252497   3.353   5.404   5.794  0.1646 -1.5069  0.8225
10336TIP3   OH252498   4.753   2.085   5.585  0.5994  0.0117 -0.2184
10336TIP3    H152499   4.733   1.991   5.581  0.2626  0.1251 -1.8980
10336TIP3    H252500   4.833   2.094   5.533 -0.1352  0.8240 -1.2565
10337TIP3   OH252501   5.208   3.724   2.504  0.1935  0.0532  0.0076
10337TIP3    H152502   5.241   3.658   2.442 -0.9556  0.9537 -1.6724
10337TIP3    H252503   5.259   3.711   2.583  2.9742 -0.0757 -1.6562
10338TIP3   OH252504   6.140   1.121   1.610  0.1421 -0.9320 -0.1224
10338TIP3    H152505   6.202   1.074   1.668 -0.5025 -1.5142  0.1093
10338TIP3    H252506   6.184   1.121   1.525 -0.1075 -2.5582 -0.2935
10339TIP3   OH252507   0.968   1.042   0.761 -0.3996 -0.1115 -0.3531
10339TIP3    H152508   1.053   1.022   0.722 -0.0536 -1.2348  0.8978
10339TIP3    H252509   0.988   1.060   0.853 -1.4288  0.4360 -0.2179
10340TIP3   OH252510   1.402   6.488   4.917  0.4229 -0.1944  0.3123
10340TIP3    H152511   1.434   6.437   4.991 -0.9261 -0.5722  0.6763
10340TIP3    H252512   1.343   6.552   4.956 -0.6939 -0.7231 -0.4555
10341TIP3   OH252513   1.298   2.315  15.675  0.0744 -0.6155  0.1410
10341TIP3    H152514   1.318   2.332  15.767 -1.2270  0.1428  0.3014
10341TIP3    H252515   1.299   2.402  15.634 -0.2262 -0.8546 -0.3802
10342TIP3   OH252516   3.144   1.396   4.858  0.6638  0.2123  0.3494
10342TIP3    H152517   3.197   1.473   4.877  0.7563  0.3769 -0.5425
10342TIP3    H252518   3.054   1.424   4.878  0.3003  1.5317 -2.5711
10343TIP3   OH252519   2.143   3.383  14.891 -0.0351 -0.3585 -0.0489
10343TIP3    H152520   2.156   3.467  14.934  2.0422 -0.2374 -0.7990
10343TIP3    H252521   2.213   3.378  14.827 -0.7576 -2.2111 -0.7631
10344TIP3   OH252522   6.772   5.164  12.627  0.1784  0.2076  0.1405
10344TIP3    H152523   6.845   5.104  12.613  0.9173  1.2073 -0.5074
10344TIP3    H252524   6.707   5.140  12.561  1.0065  0.8885 -0.9770
10345TIP3   OH252525   3.258   0.653  12.890 -0.1488 -0.1574  1.1027
10345TIP3    H152526   3.233   0.678  12.979  2.3386  0.8516  1.6039
10345TIP3    H252527   3.282   0.735  12.847 -1.3320 -0.6157 -0.5571
10346TIP3   OH252528   3.416   6.718   3.105  0.0540 -0.3908 -0.2620
10346TIP3    H152529   3.363   6.644   3.133  2.5598 -3.2228 -2.3695
10346TIP3    H252530   3.403   6.723   3.011  1.7710  0.2358 -0.5081
10347TIP3   OH252531   5.093   5.391   1.078  0.1546 -0.1137  0.3592
10347TIP3    H152532   5.067   5.335   1.006 -0.5019  0.4927  0.1168
10347TIP3    H252533   5.136   5.466   1.037 -2.5764  1.5640  0.3562
10348TIP3   OH252534   0.014   0.415   4.916  0.4820 -0.1917 -0.6029
10348TIP3    H152535  -0.059   0.355   4.930 -0.7590  1.5129  0.6334
10348TIP3    H252536   0.088   0.358   4.893 -1.0197 -2.0297 -1.1199
10349TIP3   OH252537   4.433   0.955   6.005 -0.4213 -0.5775  0.1231
10349TIP3    H152538   4.408   0.872   6.045 -0.8164 -0.8642 -0.6948
10349TIP3    H252539   4.484   1.000   6.072 -2.0194 -0.5353  1.3587
10350TIP3   OH252540   1.895   1.080   5.325  0.0741  0.0128  0.6042
10350TIP3    H152541   1.849   1.164   5.322  0.3748  0.1679  0.1348
10350TIP3    H252542   1.987   1.103   5.309 -0.1326 -0.6210 -1.8597
10351TIP3   OH252543   3.422   3.703   6.223  0.5905  0.3642  0.1201
10351TIP3    H152544   3.361   3.768   6.259 -1.4751 -1.1405 -0.4800
10351TIP3    H252545   3.478   3.679   6.297 -1.2509 -0.0808  1.4510
10352TIP3   OH252546   1.357   0.101   2.447 -0.0895 -0.8787 -0.5087
10352TIP3    H152547   1.339   0.188   2.484 -0.8742 -1.3209  0.1906
10352TIP3    H252548   1.273   0.071   2.414  0.1805 -1.3823 -0.7520
10353TIP3   OH252549   4.807   5.828  14.463 -0.0900  0.3707 -0.0362
10353TIP3    H152550   4.760   5.905  14.495 -0.7191  0.2570 -0.6663
10353TIP3    H252551   4.743   5.758  14.466  0.7139 -0.3571  1.3610
10354TIP3   OH252552   3.083   3.340  12.619 -0.3799  0.0671  0.2663
10354TIP3    H152553   3.065   3.419  12.569 -0.7639 -1.1183 -1.5650
10354TIP3    H252554   2.997   3.302  12.636 -0.1892 -0.0518  0.9885
10355TIP3   OH252555   1.558   5.423   1.919 -0.3133 -0.3895  0.3442
10355TIP3    H152556   1.521   5.421   2.007  1.6359 -1.6861  1.2133
10355TIP3    H252557   1.491   5.465   1.865 -2.3616 -1.3049  2.0603
10356TIP3   OH252558   3.861   0.558  16.196 -0.2222 -0.0166 -0.3825
10356TIP3    H152559   3.940   0.608  16.215 -1.0843  1.1941  0.2174
10356TIP3    H252560   3.805   0.572  16.273 -1.3118 -0.1994 -1.1084
10357TIP3   OH252561   5.584   3.782   4.712  0.2574  0.1231  0.3270
10357TIP3    H152562   5.568   3.699   4.758  0.7003 -0.0981  0.0935
10357TIP3    H252563   5.658   3.763   4.654 -0.5685  0.2559 -0.8135
10358TIP3   OH252564   2.225   2.094  16.588 -0.2673 -0.0302 -0.5371
10358TIP3    H152565   2.191   2.049  16.511  1.3353  0.0684 -1.3528
10358TIP3    H252566   2.276   2.167  16.553  0.7931 -0.1884  0.5830
10359TIP3   OH252567   3.779   4.210  16.383  0.7103 -0.1806  0.1686
10359TIP3    H152568   3.780   4.153  16.460  0.5249 -1.2683 -0.5919
10359TIP3    H252569   3.871   4.215  16.355  0.8497  0.6669  0.7742
10360TIP3   OH252570   0.941   2.736   4.535 -0.6414  0.0338 -0.3250
10360TIP3    H152571   0.987   2.796   4.593 -2.2361  0.2842  0.7493
10360TIP3    H252572   0.974   2.756   4.447  3.4311 -1.7753  0.5572
10361TIP3   OH252573   3.503   6.601  16.749  0.0359 -0.1767  0.3363
10361TIP3    H152574   3.426   6.587  16.804 -0.1439  2.1914  0.7961
10361TIP3    H252575   3.567   6.537  16.779 -0.4185  0.3643  2.6245
10362TIP3   OH252576   3.957   3.238   6.237 -0.3859 -0.5566 -0.3318
10362TIP3    H152577   3.901   3.302   6.193 -0.4667 -1.1762 -1.1442
10362TIP3    H252578   3.960   3.164   6.177  0.5614 -0.8967  0.1222
10363TIP3   OH252579   5.500   5.913  13.739 -0.4008 -0.2457  0.0118
10363TIP3    H152580   5.436   5.972  13.778 -0.4048  0.9257 -1.7060
10363TIP3    H252581   5.454   5.829  13.732 -0.7213 -0.2342  1.5284
10364TIP3   OH252582   5.099   6.525  16.991 -0.2956 -0.3739 -0.3840
10364TIP3    H152583   5.139   6.458  16.934  1.1156  0.3534 -0.3078
10364TIP3    H252584   5.141   6.607  16.964 -1.8201  0.4604 -0.3152
10365TIP3   OH252585   4.893   0.147  16.615 -0.1783  0.2080  0.6369
10365TIP3    H152586   4.878   0.162  16.522 -0.9283  1.5566  0.9502
10365TIP3    H252587   4.816   0.184  16.658  0.4298  0.1330  1.8291
10366TIP3   OH252588   4.445   2.899   5.369 -0.0527 -0.1166 -0.6163
10366TIP3    H152589   4.539   2.885   5.358 -0.0917 -0.6775 -0.3164
10366TIP3    H252590   4.415   2.930   5.284  0.4069  0.0797 -0.7109
10367TIP3   OH252591   5.895   3.211   1.195  0.2741  0.4295  0.8074
10367TIP3    H152592   5.921   3.144   1.131  0.0414  0.0870  1.0681
10367TIP3    H252593   5.803   3.229   1.175  0.2559  0.4643  0.9241
10368TIP3   OH252594   1.857   5.155  12.548  0.3584 -0.2265 -0.5900
10368TIP3    H152595   1.822   5.168  12.460  0.4638 -0.4545 -0.6675
10368TIP3    H252596   1.952   5.161  12.537  0.3573  0.1321 -0.4250
10369TIP3   OH252597   0.446   5.791   5.212  0.0653  0.0308  0.2423
10369TIP3    H152598   0.432   5.809   5.119 -0.5317 -0.5492  0.2125
10369TIP3    H252599   0.401   5.708   5.228 -1.2481  0.9127  1.4009
10370TIP3   OH252600   5.951   1.165  12.109  0.5043  0.5212 -0.0860
10370TIP3    H152601   5.967   1.178  12.016  0.8934  0.5830 -0.0132
10370TIP3    H252602   5.918   1.249  12.140 -1.5789 -0.0745 -0.5640
10371TIP3   OH252603   3.616   6.630  13.337  0.3282 -0.1274 -0.4184
10371TIP3    H152604   3.654   6.665  13.256  1.3001  0.4083  0.2588
10371TIP3    H252605   3.522   6.649  13.328  0.8860  3.7745  0.3770
10372TIP3   OH252606   0.947   4.942  16.925  0.5606  0.1199  0.0826
10372TIP3    H152607   1.025   4.941  16.980  0.5930  2.1006  0.1298
10372TIP3    H252608   0.962   5.013  16.863 -0.1302 -1.0872 -1.5586
10373TIP3   OH252609   4.928   4.229   1.761 -0.0790  0.3034  0.2701
10373TIP3    H152610   4.981   4.291   1.711 -1.2575  1.0247 -0.1400
10373TIP3    H252611   4.841   4.269   1.764 -0.7712 -1.1346  0.3680
10374TIP3   OH252612   5.975   1.680  14.549 -0.5518 -0.0700 -0.2264
10374TIP3    H152613   5.989   1.613  14.483 -0.5276  0.7760 -1.1005
10374TIP3    H252614   5.904   1.645  14.604  1.2297 -2.0041  1.0221
10375TIP3   OH252615   1.132   1.108   0.268 -0.4072  0.5490 -0.3208
10375TIP3    H152616   1.226   1.122   0.254 -0.4716 -0.1873 -1.6187
10375TIP3    H252617   1.103   1.187   0.313  0.5036  1.5710 -1.4673
10376TIP3   OH252618   0.253   2.581  15.213  0.1419  0.1585  0.0576
10376TIP3    H152619   0.188   2.622  15.271  0.3485  0.5376  0.0241
10376TIP3    H252620   0.227   2.608  15.125 -0.4134 -0.7550 -0.0700
10377TIP3   OH252621   3.923   5.534  14.748  0.4141 -0.3321  0.4414
10377TIP3    H152622   3.904   5.440  14.750  0.8313 -0.4134  1.3895
10377TIP3    H252623   3.924   5.557  14.656 -0.5889 -1.0786  0.2260
10378TIP3   OH252624   0.608   2.934  14.658 -0.2925 -0.4748  0.1788
10378TIP3    H152625   0.691   2.915  14.702  0.1360 -1.0442 -0.8716
10378TIP3    H252626   0.588   3.024  14.685  2.1440  0.7750 -1.8098
10379TIP3   OH252627   4.646   4.059   3.576 -0.0783  0.1979  0.5319
10379TIP3    H152628   4.711   4.116   3.616  0.0085 -1.4403  2.9552
10379TIP3    H252629   4.564   4.106   3.583  0.5399  1.6353 -1.1582
10380TIP3   OH252630   1.585   0.145   4.571  0.1803  0.4239  0.2416
10380TIP3    H152631   1.555   0.066   4.616  1.2244 -0.0528  0.1455
10380TIP3    H252632   1.505   0.188   4.541 -0.3833 -1.6665 -1.4909
10381TIP3   OH252633   3.391   1.148   4.294  0.0011 -0.0337  0.2665
10381TIP3    H152634   3.316   1.112   4.247 -0.7378 -0.9986  2.0880
10381TIP3    H252635   3.458   1.158   4.227 -1.0167 -1.2596 -1.0115
10382TIP3   OH252636   4.773   5.589  15.504  0.0229 -0.3487  0.3297
10382TIP3    H152637   4.709   5.630  15.562  1.5632 -0.6785  2.3694
10382TIP3    H252638   4.801   5.661  15.446 -1.0403  0.1667  0.4259
10383TIP3   OH252639   5.722   2.944   1.378 -0.1052  0.1493  0.1415
10383TIP3    H152640   5.736   2.849   1.376 -0.4646  0.0959 -0.3135
10383TIP3    H252641   5.799   2.980   1.421 -0.5741 -0.4516  1.5453
10384TIP3   OH252642   4.888   4.290  16.944  0.2573 -0.1487 -0.3269
10384TIP3    H152643   4.979   4.263  16.930 -0.2153 -1.6664 -0.6671
10384TIP3    H252644   4.848   4.286  16.858 -0.4092 -0.6206 -0.0021
10385TIP3   OH252645   4.830   5.480  16.162  0.0248 -0.2236  0.2597
10385TIP3    H152646   4.780   5.523  16.231 -0.2240  0.2600 -0.2102
10385TIP3    H252647   4.917   5.521  16.166 -0.0366 -0.0856  0.1888
10386TIP3   OH252648   5.734   4.559  16.247 -0.8934  0.2210  0.3911
10386TIP3    H152649   5.646   4.595  16.238 -1.7639 -1.4640  1.5620
10386TIP3    H252650   5.777   4.615  16.311 -0.8112  1.5250 -0.7684
10387TIP3   OH252651   4.752   2.020   2.540  0.2826  0.4956 -0.0860
10387TIP3    H152652   4.689   1.978   2.599  1.5686 -1.9359 -0.3388
10387TIP3    H252653   4.813   2.064   2.599 -0.8155  1.6998  0.2019
10388TIP3   OH252654   4.923   5.608   2.962  0.4990  0.3408  0.2641
10388TIP3    H152655   4.874   5.635   3.040  1.0989  2.8850 -0.1577
10388TIP3    H252656   4.939   5.689   2.914  1.1873 -0.9967 -1.9380
10389TIP3   OH252657   5.110   4.012   0.241 -0.3051 -0.3284  0.5700
10389TIP3    H152658   5.079   4.073   0.174  1.0994  1.1939  1.2340
10389TIP3    H252659   5.178   3.960   0.198 -0.1256 -0.0620  0.5300
10390TIP3   OH252660   3.024   3.103   5.450  0.0812 -0.3343 -0.7527
10390TIP3    H152661   2.965   3.085   5.377 -0.8509 -0.0175 -0.0857
10390TIP3    H252662   3.097   3.043   5.436 -0.1949 -0.4508 -1.8083
10391TIP3   OH252663   5.025   6.113  11.845 -0.0335 -0.2949  0.6896
10391TIP3    H152664   5.082   6.129  11.921 -0.5560 -1.0457  1.2460
10391TIP3    H252665   5.084   6.075  11.779  0.6024  1.1344  0.3922
10392TIP3   OH252666   0.431   6.417  17.005  0.6019 -0.0115  0.4780
10392TIP3    H152667   0.486   6.426  17.082  1.2422 -0.3123  0.0641
10392TIP3    H252668   0.491   6.389  16.935  0.6056  2.9247 -0.8361
10393TIP3   OH252669   6.809   5.722  16.756 -0.1833  0.3411  0.4537
10393TIP3    H152670   6.738   5.775  16.719 -0.7333 -0.5240  0.2370
10393TIP3    H252671   6.765   5.661  16.815  0.4581  0.2373  0.8252
10394TIP3   OH252672   3.938   2.891   2.697 -0.2187 -0.3547 -0.2273
10394TIP3    H152673   3.928   2.853   2.609 -0.6601 -0.4877 -0.1229
10394TIP3    H252674   3.867   2.954   2.704 -1.0954 -1.3978  0.5764
10395TIP3   OH252675   4.810   0.043   4.023  0.4496 -0.3051 -0.5069
10395TIP3    H152676   4.744   0.086   4.078 -0.6711 -1.8371 -0.5911
10395TIP3    H252677   4.889   0.096   4.035  0.2608 -0.5286  2.5589
10396TIP3   OH252678   5.537   3.792   3.830  0.4764  0.2779 -0.0790
10396TIP3    H152679   5.524   3.737   3.907  0.5488 -0.4925 -0.5932
10396TIP3    H252680   5.628   3.776   3.805  0.4014  0.3866 -0.4249
10397TIP3   OH252681   3.073   5.148   6.358  0.3896  0.0496 -0.1003
10397TIP3    H152682   3.160   5.136   6.396 -0.1932 -1.6911  0.7958
10397TIP3    H252683   3.068   5.085   6.287  0.8640  2.1607 -2.1011
10398TIP3   OH252684   4.109   0.672  15.214  0.2734 -0.7412 -0.3798
10398TIP3    H152685   4.093   0.606  15.147 -2.9072  0.1167 -0.6231
10398TIP3    H252686   4.063   0.639  15.292 -1.2969  1.0275 -0.4774
10399TIP3   OH252687   4.626   3.189  14.434  0.4310 -0.2390  0.5420
10399TIP3    H152688   4.697   3.131  14.408 -1.5149 -2.8259  0.6330
10399TIP3    H252689   4.579   3.208  14.352 -0.0335 -0.3608  0.7762
10400TIP3   OH252690   6.562   6.574   2.329  0.1820  0.2368 -0.0825
10400TIP3    H152691   6.540   6.491   2.287 -0.9667  1.4131 -1.9412
10400TIP3    H252692   6.651   6.593   2.301  1.1657 -1.1998  1.8553
10401TIP3   OH252693   5.585   2.529  12.715 -0.0953 -0.3648 -0.2381
10401TIP3    H152694   5.659   2.503  12.660  0.6964  0.8656  0.2167
10401TIP3    H252695   5.542   2.599  12.666  0.9619  1.1520  0.9341
10402TIP3   OH252696   5.005   2.665  14.667  0.6095 -0.2196 -0.5450
10402TIP3    H152697   5.074   2.726  14.694 -0.3725  1.0286 -0.8183
10402TIP3    H252698   4.991   2.683  14.574 -0.9196  0.4100 -0.2237
10403TIP3   OH252699   1.715   6.417   3.385  0.7914 -0.3189 -0.1107
10403TIP3    H152700   1.689   6.351   3.322  1.9987  0.3346 -1.3554
10403TIP3    H252701   1.783   6.375   3.437  3.9045  0.7453 -2.9451
10404TIP3   OH252702   5.782   3.495   5.529 -0.1619  0.8945  0.0954
10404TIP3    H152703   5.756   3.568   5.473 -2.4086  1.3820  1.6263
10404TIP3    H252704   5.860   3.527   5.575  0.9589  0.9497 -1.7293
10405TIP3   OH252705   3.554   6.277  15.877 -0.3568  0.7256 -0.5731
10405TIP3    H152706   3.569   6.221  15.801  0.9880  0.6560 -0.2858
10405TIP3    H252707   3.638   6.323  15.890 -0.3848  0.3554  1.1635
10406TIP3   OH252708   5.180   1.075  12.401 -0.9102 -0.0921  0.2057
10406TIP3    H152709   5.172   1.125  12.482  0.7923  1.0870 -0.2973
10406TIP3    H252710   5.101   1.095  12.352 -1.6909 -0.3778  1.3218
10407TIP3   OH252711   2.102   5.123   2.774 -0.0698 -0.3377 -0.2367
10407TIP3    H152712   2.011   5.145   2.795 -0.8747 -0.5353 -3.1729
10407TIP3    H252713   2.096   5.045   2.719  1.9679 -0.9092  0.2606
10408TIP3   OH252714   1.031   3.634  12.646 -0.1035 -0.1409 -0.0896
10408TIP3    H152715   1.090   3.563  12.621 -0.7357 -0.8504  0.3951
10408TIP3    H252716   1.081   3.686  12.709  0.4651  0.0128 -0.6618
10409TIP3   OH252717   0.150   6.514  14.874 -0.3287 -0.0498 -0.1955
10409TIP3    H152718   0.160   6.419  14.867 -0.6112 -0.0487 -0.6750
10409TIP3    H252719   0.186   6.536  14.960  0.5077 -0.4852 -0.4219
10410TIP3   OH252720   5.174   5.970  13.584  0.2100 -0.3007 -0.1034
10410TIP3    H152721   5.166   5.922  13.667  0.5050 -2.7818 -1.4184
10410TIP3    H252722   5.085   5.973  13.550  0.3598 -0.9934 -0.5730
10411TIP3   OH252723   5.265   6.678  12.919 -0.6398  0.3168 -0.1334
10411TIP3    H152724   5.288   6.602  12.972 -0.0620  0.2211 -0.5099
10411TIP3    H252725   5.178   6.703  12.949  0.1625  1.0355  1.7566
10412TIP3   OH252726   0.081   3.210  14.164  0.2646 -0.2458 -0.3151
10412TIP3    H152727   0.010   3.252  14.116  0.7747  0.0087 -0.8581
10412TIP3    H252728   0.157   3.218  14.107  0.8553 -0.0623  0.4757
10413TIP3   OH252729   6.698   2.272  12.268 -0.0562  0.0325 -0.3340
10413TIP3    H152730   6.748   2.263  12.350 -0.6707 -2.9910 -0.1743
10413TIP3    H252731   6.606   2.272  12.297 -0.2681 -0.7739 -0.9748
10414TIP3   OH252732   6.084   4.554   1.415 -0.1216 -0.3698  0.2695
10414TIP3    H152733   6.171   4.533   1.381  0.7821  0.4058  1.9796
10414TIP3    H252734   6.084   4.650   1.422 -1.9126 -0.1758 -1.6742
10415TIP3   OH252735   4.669   5.773  12.979  0.1709  0.6013  0.5267
10415TIP3    H152736   4.589   5.722  12.990  0.1858  0.6842  1.0279
10415TIP3    H252737   4.713   5.768  13.064  1.4795 -0.7532 -0.1950
10416TIP3   OH252738   5.745   1.230   5.722  0.6013  0.4492 -0.7818
10416TIP3    H152739   5.717   1.168   5.655 -0.7561  0.5188 -0.3062
10416TIP3    H252740   5.819   1.276   5.682 -0.1125  0.4210 -2.2109
10417TIP3   OH252741   2.248   1.406   4.429 -0.0643 -0.1220 -0.4548
10417TIP3    H152742   2.217   1.319   4.454 -0.4150  0.6919  2.2112
10417TIP3    H252743   2.181   1.466   4.461  1.3077  1.2762 -0.0370
10418TIP3   OH252744   2.446   5.278  11.699 -0.2695 -0.2168 -0.2970
10418TIP3    H152745   2.522   5.316  11.655  0.5345  0.0892  1.2601
10418TIP3    H252746   2.389   5.352  11.718  0.2671 -0.0466  0.7768
10419TIP3   OH252747   1.332   3.656   2.733  0.6168 -0.4415  0.1622
10419TIP3    H152748   1.316   3.631   2.824 -1.1037 -1.1631 -0.2944
10419TIP3    H252749   1.361   3.574   2.692  0.0926 -0.4392 -0.2156
10420TIP3   OH252750   2.481   4.854   0.198 -0.2454  0.3121 -0.4343
10420TIP3    H152751   2.575   4.865   0.212 -0.7006  2.5065  1.6116
10420TIP3    H252752   2.446   4.835   0.285 -1.7178 -0.5748 -1.1769
10421TIP3   OH252753   4.997   3.161  11.458 -0.2203 -0.5164  0.3652
10421TIP3    H152754   5.005   3.068  11.441 -1.6221 -0.3663 -1.4396
10421TIP3    H252755   4.983   3.167  11.553  1.3712 -1.9835  0.7347
10422TIP3   OH252756   5.649   3.483  11.647  0.2627 -0.4889  0.0563
10422TIP3    H152757   5.564   3.501  11.607  0.0956  0.4600  0.8078
10422TIP3    H252758   5.709   3.473  11.573  0.2097  2.4172 -0.4896
10423TIP3   OH252759   2.723   1.308  15.058 -0.1584  0.5453 -0.0680
10423TIP3    H152760   2.715   1.248  15.133  0.5338  2.1623  1.3603
10423TIP3    H252761   2.634   1.318  15.026 -0.3011 -1.2173 -0.3623
10424TIP3   OH252762   1.917   1.239   1.074  0.4147 -0.1022 -0.9943
10424TIP3    H152763   1.881   1.286   0.999  1.5559 -1.2603 -2.3297
10424TIP3    H252764   1.870   1.155   1.074  0.2180  0.0021 -0.2259
10425TIP3   OH252765   0.125   2.083   6.333 -0.0932 -0.3098 -0.1420
10425TIP3    H152766   0.060   2.151   6.319  0.0345 -0.4317 -1.4764
10425TIP3    H252767   0.082   2.002   6.306  0.6581 -0.3586 -1.2967
10426TIP3   OH252768   2.888   4.129  14.302  0.6459 -0.6032 -0.3703
10426TIP3    H152769   2.817   4.190  14.283  1.4483  0.1667 -0.9410
10426TIP3    H252770   2.966   4.183  14.308  0.9771 -1.2278  1.8894
10427TIP3   OH252771   3.380   5.986   4.581 -0.5307 -0.1466  0.2881
10427TIP3    H152772   3.370   6.068   4.534  1.3233 -0.3521 -0.5449
10427TIP3    H252773   3.450   5.940   4.535 -0.0545 -1.2536  2.0145
10428TIP3   OH252774   5.979   3.595  14.578 -0.0405 -0.6573  0.5894
10428TIP3    H152775   6.031   3.626  14.651 -0.4126 -0.2148  0.6753
10428TIP3    H252776   5.917   3.666  14.561 -1.0620 -1.4373  0.9310
10429TIP3   OH252777   6.372   6.301  12.718 -0.0616  0.0974 -0.9528
10429TIP3    H152778   6.451   6.248  12.732 -0.1871  0.0521 -0.3981
10429TIP3    H252779   6.303   6.255  12.765 -0.4091  0.1759 -1.3777
10430TIP3   OH252780   1.821   2.855   2.512  0.6556 -0.3005  0.1667
10430TIP3    H152781   1.903   2.902   2.526  1.2490 -0.6580 -1.8728
10430TIP3    H252782   1.845   2.778   2.460 -1.0761  0.1117 -1.3643
10431TIP3   OH252783   6.150   4.224  15.824 -0.7310  0.1799 -0.1540
10431TIP3    H152784   6.138   4.224  15.919 -0.2258  0.4653 -0.0862
10431TIP3    H252785   6.242   4.249  15.812 -0.6435 -0.3865 -0.6995
10432TIP3   OH252786   3.562   3.126   1.727  0.5141  0.1713  0.4048
10432TIP3    H152787   3.519   3.205   1.694 -1.6756 -0.8846  0.5579
10432TIP3    H252788   3.651   3.154   1.748  0.0921  2.3516 -0.4455
10433TIP3   OH252789   0.304   5.392   5.757 -0.2586  0.3880 -0.3067
10433TIP3    H152790   0.211   5.375   5.773 -0.2073  1.4849  1.4502
10433TIP3    H252791   0.343   5.392   5.845  0.9039  2.6287 -0.7629
10434TIP3   OH252792   2.798   1.332   6.231 -0.2661 -0.0180  0.7194
10434TIP3    H152793   2.715   1.380   6.223 -0.4586 -0.4490  0.0222
10434TIP3    H252794   2.798   1.300   6.321  0.0310  1.5665  1.3171
10435TIP3   OH252795   3.137   3.749  10.643  0.3108 -0.1907  0.3635
10435TIP3    H152796   3.060   3.788  10.602  0.4642 -0.8167 -0.5614
10435TIP3    H252797   3.192   3.823  10.667 -0.7480  0.2794  1.3989
10436TIP3   OH252798   5.111   5.020   5.355 -0.1457 -0.5688  0.9105
10436TIP3    H152799   5.047   5.043   5.287  0.1745 -0.9003  0.4925
10436TIP3    H252800   5.187   4.989   5.307  0.0773 -0.8270  1.4236
10437TIP3   OH252801   1.544   3.981   1.944  0.5199  0.4067 -0.6215
10437TIP3    H152802   1.575   3.890   1.947  1.1058  0.6211  0.7901
10437TIP3    H252803   1.548   4.010   2.035 -1.8106  1.1464 -0.6935
10438TIP3   OH252804   3.691   1.622   5.784  0.1574 -0.1223  0.1224
10438TIP3    H152805   3.755   1.675   5.738  1.3439  0.3254  2.1812
10438TIP3    H252806   3.616   1.680   5.799  1.1034  0.7639  1.6105
10439TIP3   OH252807   5.555   5.283  12.851 -0.4817 -0.1668  0.4330
10439TIP3    H152808   5.505   5.363  12.868 -0.3033 -0.3266  1.8752
10439TIP3    H252809   5.515   5.246  12.773 -1.3334  0.7289  0.4241
10440TIP3   OH252810   4.049   0.593   1.096 -0.3331  0.0729  0.3207
10440TIP3    H152811   4.011   0.676   1.124  0.8756  0.6054  0.4574
10440TIP3    H252812   4.088   0.612   1.010 -1.5537 -0.8178 -0.4667
10441TIP3   OH252813   1.059   4.015   4.302 -0.2406  0.0454 -0.0261
10441TIP3    H152814   1.098   3.930   4.321  1.4015  0.7132 -0.2205
10441TIP3    H252815   1.034   4.050   4.388 -3.9174 -1.8767 -0.1079
10442TIP3   OH252816   1.477   2.230   3.144  0.3243  0.8815 -0.3321
10442TIP3    H152817   1.522   2.221   3.060  0.9241  0.2650  0.0452
10442TIP3    H252818   1.425   2.150   3.153 -0.3251  1.2855 -0.4538
10443TIP3   OH252819   2.346   5.243   2.437  0.4881 -0.0543 -0.5543
10443TIP3    H152820   2.301   5.162   2.415  1.9934 -0.5283 -2.1396
10443TIP3    H252821   2.419   5.216   2.494  2.0552 -0.1369 -2.4974
10444TIP3   OH252822   0.971   4.052  14.817  0.2202 -0.0397 -0.4115
10444TIP3    H152823   0.930   4.059  14.731  0.4775  1.8855 -0.4120
10444TIP3    H252824   1.019   3.969  14.814  0.7558  0.2937 -2.3734
10445TIP3   OH252825   0.607   1.980  11.746 -0.5712 -0.5051 -0.1009
10445TIP3    H152826   0.521   1.989  11.705 -0.7482  1.5557  0.5962
10445TIP3    H252827   0.648   2.065  11.733  0.2263 -0.5008  2.0763
10446TIP3   OH252828   2.930   3.218   2.212  0.2395 -0.4780 -0.5496
10446TIP3    H152829   2.875   3.164   2.156 -1.0143  1.0356 -0.8437
10446TIP3    H252830   2.985   3.268   2.151  1.8978 -1.8413 -0.2679
10447TIP3   OH252831   3.205   6.268  12.124  0.0600  0.0423 -0.7855
10447TIP3    H152832   3.177   6.179  12.144  1.2306  0.1262  1.6012
10447TIP3    H252833   3.274   6.286  12.188 -0.3754  2.7914 -0.9825
10448TIP3   OH252834   1.914   3.923  14.887 -0.9502 -0.2212 -0.3306
10448TIP3    H152835   1.978   3.984  14.921  1.1138 -2.1156 -0.6016
10448TIP3    H252836   1.853   3.978  14.837  0.7382  1.6029 -0.5151
10449TIP3   OH252837   1.589   4.053  12.521  0.1075 -0.4253  0.0348
10449TIP3    H152838   1.504   4.048  12.565  0.3668  0.2511  0.6309
10449TIP3    H252839   1.571   4.098  12.439  0.2525  1.8632  1.1955
10450TIP3   OH252840   5.271   0.820  12.387 -0.1211  0.3298 -0.5401
10450TIP3    H152841   5.182   0.802  12.359 -0.1445 -0.6676  0.1151
10450TIP3    H252842   5.275   0.915  12.396 -0.4991  0.5738 -2.5125
10451TIP3   OH252843   6.209   1.358  15.545  0.6157  0.7440  0.4256
10451TIP3    H152844   6.130   1.308  15.567  2.0324 -0.7532  2.4946
10451TIP3    H252845   6.184   1.411  15.469 -1.5633 -1.7736 -0.7840
10452TIP3   OH252846   2.214   0.953   2.273 -0.3207  0.4013  0.2738
10452TIP3    H152847   2.136   0.909   2.307 -0.3008  0.2050  0.0660
10452TIP3    H252848   2.287   0.907   2.315 -0.3216  2.5014  2.9018
10453TIP3   OH252849   5.624   1.460   5.697 -0.4416  0.1703  0.4429
10453TIP3    H152850   5.648   1.371   5.724  0.1427 -0.3038 -1.4802
10453TIP3    H252851   5.528   1.456   5.687 -0.6524  0.3062  2.1060
10454TIP3   OH252852   1.984   1.875   1.538  0.4525 -0.1178  0.1421
10454TIP3    H152853   1.978   1.786   1.503 -1.6818  0.5710 -1.4381
10454TIP3    H252854   2.041   1.866   1.614 -0.2870 -2.9848  0.5068
10455TIP3   OH252855   0.975   2.639  14.521 -0.0940 -0.4863  1.0250
10455TIP3    H152856   0.950   2.730  14.507 -0.0895 -0.3583  1.8141
10455TIP3    H252857   1.014   2.612  14.438 -0.8040 -0.0121  0.5241
10456TIP3   OH252858   6.257   0.289   5.834  0.1223  0.2890  0.6486
10456TIP3    H152859   6.194   0.362   5.831  0.4854  0.5790 -0.4101
10456TIP3    H252860   6.315   0.310   5.907  0.8537  1.6227 -0.2600
10457TIP3   OH252861   3.682   6.259   5.666  1.0263 -0.3181  0.0817
10457TIP3    H152862   3.635   6.270   5.749 -1.2680 -1.3092 -0.9993
10457TIP3    H252863   3.649   6.329   5.610 -0.8459 -2.2345 -1.3576
10458TIP3   OH252864   3.942   4.748   2.680  0.1636 -0.7285 -0.0808
10458TIP3    H152865   4.036   4.740   2.663  0.3080  1.1440 -0.3539
10458TIP3    H252866   3.922   4.675   2.739  2.0536 -0.4427  0.9762
10459TIP3   OH252867   3.162   1.825  13.877  0.2921 -0.4134  0.9877
10459TIP3    H152868   3.171   1.909  13.831 -1.2172 -0.8870 -0.2483
10459TIP3    H252869   3.234   1.825  13.941  0.8142  1.4538  0.4631
10460TIP3   OH252870   2.400   1.748  15.410 -0.3966  0.0229  0.2312
10460TIP3    H152871   2.491   1.718  15.408 -0.3914  0.0736 -0.5150
10460TIP3    H252872   2.391   1.793  15.494  1.1169  2.6406 -0.9185
10461TIP3   OH252873   4.756   1.410   3.004  0.5692  0.4484 -0.2534
10461TIP3    H152874   4.672   1.414   3.051  1.4035  0.5219  1.2778
10461TIP3    H252875   4.822   1.403   3.072  1.8677  0.8516 -1.4167
10462TIP3   OH252876   1.163   1.670  11.529  0.0774  0.0105 -0.5840
10462TIP3    H152877   1.239   1.653  11.585  0.8365  2.0398 -0.9413
10462TIP3    H252878   1.092   1.687  11.591  0.5928  0.8929 -0.2156
10463TIP3   OH252879   6.695   0.218  14.717  0.3463 -0.1263  0.2258
10463TIP3    H152880   6.787   0.241  14.708  0.5220 -0.3263  1.4266
10463TIP3    H252881   6.693   0.143  14.776 -0.6688  0.7412  1.3530
10464TIP3   OH252882   4.917   1.178  15.682 -0.0226  0.1053  0.2124
10464TIP3    H152883   5.004   1.160  15.647  0.3567  3.3724 -0.8642
10464TIP3    H252884   4.858   1.125  15.628  1.1390 -0.8882 -0.1340
10465TIP3   OH252885   0.756   3.623  15.738  0.4979 -0.7805  0.0191
10465TIP3    H152886   0.682   3.660  15.689  1.1453 -1.8230 -1.8291
10465TIP3    H252887   0.718   3.550  15.786 -0.4309  1.0805  2.3014
10466TIP3   OH252888   3.591   5.313  11.385 -0.4828 -0.2133 -0.0959
10466TIP3    H152889   3.509   5.360  11.369 -0.6502 -0.4354  0.1051
10466TIP3    H252890   3.622   5.290  11.298 -1.0527 -0.8356 -0.1477
10467TIP3   OH252891   2.452   6.520   6.163  0.5163  0.5129  0.1768
10467TIP3    H152892   2.357   6.507   6.162  0.4178  1.2051 -0.4336
10467TIP3    H252893   2.481   6.491   6.076  0.8404  0.4949  0.2892
10468TIP3   OH252894   6.436   3.583  13.769 -0.2570 -0.3928 -0.1124
10468TIP3    H152895   6.452   3.663  13.719  0.5610 -0.0692  0.6277
10468TIP3    H252896   6.491   3.517  13.728  1.3327  0.1589  1.0293
10469TIP3   OH252897   2.118   1.662  12.968  0.1781 -0.1232  0.1949
10469TIP3    H152898   2.061   1.735  12.943  0.2592 -0.5921 -1.4627
10469TIP3    H252899   2.204   1.684  12.933  0.3820 -0.6776  0.3244
10470TIP3   OH252900   2.945   6.612  12.403  0.4917 -0.3028 -0.1052
10470TIP3    H152901   3.008   6.571  12.462  1.3250  0.7359 -0.2555
10470TIP3    H252902   2.988   6.610  12.318  0.2831  0.3326 -0.2256
10471TIP3   OH252903   2.248   4.154  13.484 -0.4605  0.0097  0.2545
10471TIP3    H152904   2.317   4.216  13.508  0.2672 -0.9706  0.7517
10471TIP3    H252905   2.287   4.098  13.417  0.1276 -2.1087  2.2322
10472TIP3   OH252906   3.222   1.186   4.503 -0.7361  0.0751 -0.3253
10472TIP3    H152907   3.213   1.096   4.534  1.2407  0.4304  1.5815
10472TIP3    H252908   3.294   1.183   4.440  1.0287  0.5627  1.5210
10473TIP3   OH252909   2.696   2.097  15.109  0.1648  0.2101  0.7197
10473TIP3    H152910   2.663   2.029  15.051  1.3342 -0.6391  1.0217
10473TIP3    H252911   2.730   2.164  15.050 -0.1075  0.0992  0.4319
10474TIP3   OH252912   4.478   5.530   5.860 -0.1580 -0.3114 -0.0857
10474TIP3    H152913   4.543   5.506   5.794 -1.6391  0.5552 -1.9543
10474TIP3    H252914   4.513   5.609   5.900  0.5730 -0.6181 -0.0958
10475TIP3   OH252915   0.648   0.691   4.660  0.4929  0.3721  0.4787
10475TIP3    H152916   0.609   0.637   4.728 -2.5626 -0.4797 -1.7291
10475TIP3    H252917   0.598   0.773   4.664  3.5097  2.3201  2.2480
10476TIP3   OH252918   2.928   4.764   4.874  0.2548 -0.5974 -0.2090
10476TIP3    H152919   2.892   4.852   4.875  0.5105 -0.4859  1.3067
10476TIP3    H252920   3.021   4.775   4.896 -0.1092 -1.3585  1.9819
10477TIP3   OH252921   6.305   3.935  13.954  0.5182  0.0545 -0.0709
10477TIP3    H152922   6.374   3.870  13.962  0.2859 -0.3302 -1.0054
10477TIP3    H252923   6.224   3.886  13.970  0.3508  0.1396 -0.6425
10478TIP3   OH252924   5.858   2.265   4.404  0.6354 -0.3790  0.0780
10478TIP3    H152925   5.864   2.329   4.475 -0.8773  1.0418 -1.0003
10478TIP3    H252926   5.864   2.180   4.448 -2.6783  0.3318  2.3042
10479TIP3   OH252927   1.419   0.693   3.215 -0.7789 -0.9223 -0.0253
10479TIP3    H152928   1.436   0.687   3.121  0.5031  0.5352  0.0580
10479TIP3    H252929   1.506   0.687   3.255 -1.4799 -4.0325  1.3076
10480TIP3   OH252930   2.267   5.836   4.415 -0.8721  0.0668 -0.0862
10480TIP3    H152931   2.195   5.796   4.463 -1.1560 -1.0417 -1.3769
10480TIP3    H252932   2.343   5.781   4.435 -0.7956  0.1280 -0.2065
10481TIP3   OH252933   5.723   4.650   2.092  0.6789 -0.2354  0.6279
10481TIP3    H152934   5.703   4.645   2.186  2.1292  0.4329  1.0025
10481TIP3    H252935   5.732   4.744   2.076 -2.7126 -0.0204 -0.9376
10482TIP3   OH252936   5.036   6.001  10.978  0.5831  0.3162 -0.1070
10482TIP3    H152937   5.038   5.969  11.068 -1.2593 -0.5045 -0.3181
10482TIP3    H252938   5.100   5.947  10.932 -0.6759 -1.3942  0.0777
10483TIP3   OH252939   2.169   6.198   1.198  0.1576 -0.9389 -0.0228
10483TIP3    H152940   2.170   6.108   1.230 -0.9833 -1.0381 -0.2321
10483TIP3    H252941   2.164   6.190   1.102  0.9830 -0.6414 -0.1050
10484TIP3   OH252942   6.426   6.832  16.628  0.4152  0.0271 -0.7243
10484TIP3    H152943   6.473   6.806  16.707  0.7218  0.9088 -0.5967
10484TIP3    H252944   6.354   6.770  16.621  0.4236 -0.1088  0.2106
10485TIP3   OH252945   0.883   4.096   5.173 -0.5296 -0.1650 -0.0396
10485TIP3    H152946   0.854   4.183   5.199  0.1241  0.1033 -0.1817
10485TIP3    H252947   0.941   4.067   5.244  1.4574  0.6674 -1.2147
10486TIP3   OH252948   5.224   5.371   2.824 -0.1536 -0.3021  0.2169
10486TIP3    H152949   5.265   5.287   2.843  3.2368  1.2354  0.5910
10486TIP3    H252950   5.218   5.374   2.728  3.5302  0.4251 -0.1557
10487TIP3   OH252951   1.763   3.586  12.956 -0.3741  0.7591  0.4339
10487TIP3    H152952   1.827   3.599  13.025 -0.9949  0.4788  1.0817
10487TIP3    H252953   1.810   3.537  12.888  0.0977  0.5747  0.8870
10488TIP3   OH252954   2.532   1.682   6.429  0.1772  0.5752  0.0772
10488TIP3    H152955   2.531   1.587   6.429 -0.4810  0.5685 -0.5572
10488TIP3    H252956   2.440   1.707   6.414  0.3319  1.3050  0.2979
10489TIP3   OH252957   3.988   2.478   3.366  0.3686  0.4252  0.3811
10489TIP3    H152958   3.994   2.457   3.459  2.6453  0.9468  0.4126
10489TIP3    H252959   3.899   2.513   3.355 -0.4642 -1.0113  2.0327
10490TIP3   OH252960   6.102   4.476  17.033 -0.2258 -0.2154  0.1382
10490TIP3    H152961   6.099   4.444  17.123 -1.1696 -0.8398 -0.1006
10490TIP3    H252962   6.044   4.418  16.985 -1.7867  1.6517 -0.3740
10491TIP3   OH252963   5.795   0.976   1.880 -0.3352 -0.2299 -0.4182
10491TIP3    H152964   5.788   0.881   1.874 -0.9533 -0.2722  0.7533
10491TIP3    H252965   5.843   0.992   1.961  0.4052  0.4459 -0.9770
10492TIP3   OH252966   1.249   2.428  10.465  0.1811 -0.0235  0.5059
10492TIP3    H152967   1.168   2.480  10.462  0.9679  1.3805  2.1040
10492TIP3    H252968   1.233   2.363  10.533  0.2613 -0.0083  0.5390
10493TIP3   OH252969   2.079   2.268   0.104 -0.1800  0.1469  0.1124
10493TIP3    H152970   2.049   2.205   0.039 -0.8508 -0.1575  0.7031
10493TIP3    H252971   2.000   2.293   0.152  0.2290  0.7235  0.4942
10494TIP3   OH252972   6.242   1.055  12.355  0.4484 -0.4646  0.1363
10494TIP3    H152973   6.323   1.062  12.305 -0.1568  0.2972 -0.7687
10494TIP3    H252974   6.230   0.961  12.367  0.9602 -0.6357 -0.5885
10495TIP3   OH252975   1.842   0.644   5.024  0.0284  0.2118 -0.0072
10495TIP3    H152976   1.899   0.644   5.101 -1.3580 -0.7139  1.0869
10495TIP3    H252977   1.767   0.590   5.050 -1.5469  1.6784 -1.2243
10496TIP3   OH252978   6.304   4.674  14.895  0.5148 -0.2065 -0.6583
10496TIP3    H152979   6.360   4.654  14.969 -0.8952 -0.3201  0.4254
10496TIP3    H252980   6.340   4.622  14.823  1.1050 -1.1705  0.3039
10497TIP3   OH252981   5.666   1.870   6.194 -0.0508 -0.3001  0.8891
10497TIP3    H152982   5.660   1.895   6.286 -0.8230 -0.0737  0.7813
10497TIP3    H252983   5.752   1.827   6.187  0.2333  0.1299  1.5999
10498TIP3   OH252984   3.194   5.298  14.493 -0.5935  0.1303 -0.2615
10498TIP3    H152985   3.285   5.322  14.509 -0.2290 -0.5211 -1.2474
10498TIP3    H252986   3.169   5.244  14.568  0.2534 -0.7791 -0.6231
10499TIP3   OH252987   6.708   0.639   5.595 -0.2937  0.3466 -0.7073
10499TIP3    H152988   6.757   0.616   5.516  1.1679  1.9301 -0.3202
10499TIP3    H252989   6.759   0.709   5.635 -0.3252 -1.1770  2.2762
10500TIP3   OH252990   6.606   4.995   0.323  0.3931 -0.0532 -0.0949
10500TIP3    H152991   6.607   4.953   0.237 -0.5395  0.2457 -0.2569
10500TIP3    H252992   6.531   4.958   0.368  0.2546  0.5683  0.2023
10501TIP3   OH252993   2.161   1.618   0.295 -0.6855  0.0685  0.1922
10501TIP3    H152994   2.163   1.548   0.230  0.3632 -0.4082  0.7181
10501TIP3    H252995   2.172   1.573   0.379 -2.8558  0.5752  0.8279
10502TIP3   OH252996   2.583   4.839   6.450 -0.3880  0.2114 -0.0699
10502TIP3    H152997   2.519   4.881   6.393 -1.8902 -0.9921  0.6324
10502TIP3    H252998   2.534   4.768   6.492  1.0374  0.1507  1.6134
10503TIP3   OH252999   5.234   0.556   3.442  0.3789  0.0371  0.1109
10503TIP3    H153000   5.246   0.651   3.435 -1.4561  0.3490  0.4809
10503TIP3    H253001   5.299   0.519   3.383 -0.3718  1.6416 -1.8760
10504TIP3   OH253002   1.688   2.405  16.671  0.3081 -0.0985 -0.1727
10504TIP3    H153003   1.608   2.355  16.689 -0.0695  0.3404 -0.6036
10504TIP3    H253004   1.680   2.431  16.579 -0.3065  2.1424  0.4573
10505TIP3   OH253005   2.327   2.713  12.825 -0.5038  0.2554  0.4834
10505TIP3    H153006   2.255   2.668  12.780 -0.2228 -0.2231  0.5136
10505TIP3    H253007   2.367   2.767  12.757  1.5168 -2.3419 -0.5597
10506TIP3   OH253008   4.574   0.211   4.176 -0.2261  0.6420 -0.2350
10506TIP3    H153009   4.586   0.301   4.148  0.6100  0.3464 -0.8740
10506TIP3    H253010   4.523   0.217   4.256  0.7011  1.7368  0.2963
10507TIP3   OH253011   4.296   6.450   5.095 -0.1753  0.3880 -0.0049
10507TIP3    H153012   4.369   6.501   5.130  1.0826 -1.5413  0.3692
10507TIP3    H253013   4.335   6.402   5.021 -0.8834 -1.1143  0.5586
10508TIP3   OH253014   1.994   2.637  11.783 -0.3246  0.3164  0.0662
10508TIP3    H153015   1.961   2.630  11.873 -0.4944  0.3593  0.0077
10508TIP3    H253016   2.084   2.668  11.792 -0.5892  1.0621  0.1871
10509TIP3   OH253017   3.374   6.806   0.099  0.1427  0.3416 -0.6199
10509TIP3    H153018   3.290   6.773   0.068 -0.2203 -0.4222  1.0492
10509TIP3    H253019   3.354   6.893   0.135 -0.5189 -0.7856  2.0054
10510TIP3   OH253020   4.506   0.046  13.085 -0.3986  0.2808 -0.2462
10510TIP3    H153021   4.555   0.116  13.042  1.2593  0.2059  1.3742
10510TIP3    H253022   4.553  -0.034  13.059  1.7657  0.3607  2.9002
10511TIP3   OH253023   2.235   2.516  12.372  0.1211 -0.0656  0.0838
10511TIP3    H153024   2.178   2.442  12.352  0.6238 -0.7171  0.9867
10511TIP3    H253025   2.323   2.481  12.367  0.4107  0.7163 -0.4250
10512TIP3   OH253026   1.051   5.516   5.079 -0.1469  0.4223  0.0772
10512TIP3    H153027   0.978   5.569   5.047  0.9201  3.0422  1.5930
10512TIP3    H253028   1.011   5.455   5.141 -1.7029 -2.2278 -3.2499
10513TIP3   OH253029   1.718   6.697  16.158 -0.5512  0.3841  0.5434
10513TIP3    H153030   1.704   6.776  16.106  0.6009  0.1494 -0.1470
10513TIP3    H253031   1.637   6.688  16.209 -1.5881  0.8090 -0.9640
10514TIP3   OH253032   5.679   1.283   0.416 -0.7576 -0.1540  0.1363
10514TIP3    H153033   5.754   1.248   0.464  0.5717  3.7376  1.2266
10514TIP3    H253034   5.616   1.211   0.415  1.1678 -2.0991  3.2203
10515TIP3   OH253035   6.289   4.634  16.289  0.4769 -0.0399  0.2354
10515TIP3    H153036   6.214   4.684  16.319 -0.2526 -0.0671 -1.4236
10515TIP3    H253037   6.280   4.549  16.332 -2.8075 -1.5390 -2.8484
10516TIP3   OH253038   5.592   1.592   4.021 -0.0159 -0.5876 -0.1237
10516TIP3    H153039   5.619   1.504   3.993  1.8378 -0.5319  1.3207
10516TIP3    H253040   5.668   1.647   4.006 -0.6744  0.4785  0.3218
10517TIP3   OH253041   5.778   0.401  16.141  0.1842 -0.1535  0.3961
10517TIP3    H153042   5.790   0.306  16.136 -1.1394 -0.3966  1.3842
10517TIP3    H253043   5.863   0.434  16.171  1.1791 -0.8160 -1.5352
10518TIP3   OH253044   6.530   5.605   3.182  0.7805 -0.4356 -0.0284
10518TIP3    H153045   6.445   5.598   3.224  1.4529 -0.7113  1.3535
10518TIP3    H253046   6.593   5.605   3.255  2.0534 -1.7610 -1.0603
10519TIP3   OH253047   5.713   3.955   5.154 -0.4493 -0.0614  0.0303
10519TIP3    H153048   5.760   4.039   5.147  0.2086 -0.5589 -3.1465
10519TIP3    H253049   5.622   3.980   5.170  0.0325  1.1680  1.0246
10520TIP3   OH253050   6.287   6.206  15.765  0.3027  0.0695  0.1363
10520TIP3    H153051   6.207   6.206  15.713  0.4410 -1.5208 -0.1311
10520TIP3    H253052   6.292   6.294  15.802 -1.9214 -0.0040  0.7217
10521TIP3   OH253053   3.012   0.460  15.326  0.1496 -0.4341  0.1864
10521TIP3    H153054   2.974   0.383  15.283  2.3791 -0.3201 -2.2788
10521TIP3    H253055   3.093   0.428  15.365  0.9572  0.5804 -0.6146
10522TIP3   OH253056   5.488   3.507  10.274  0.2808 -0.4624  0.2318
10522TIP3    H153057   5.409   3.544  10.236  0.4933 -0.8125 -0.5650
10522TIP3    H253058   5.472   3.413  10.276  0.9156 -0.6010 -0.5214
10523TIP3   OH253059   0.698   3.023  16.595  0.0533  0.0477  0.4117
10523TIP3    H153060   0.789   2.997  16.583  1.2505  2.4271  3.0641
10523TIP3    H253061   0.660   2.952  16.647  0.9823 -0.0621  0.9615
10524TIP3   OH253062   2.201   5.390  12.846 -0.4244  0.1531 -0.3629
10524TIP3    H153063   2.225   5.443  12.922 -0.4741  0.5836 -0.6464
10524TIP3    H253064   2.177   5.453  12.779 -2.2285 -0.2563 -0.1479
10525TIP3   OH253065   3.709   6.197  16.958 -0.2854  0.1508 -0.0802
10525TIP3    H153066   3.770   6.205  17.032 -0.9373  1.4001  0.3531
10525TIP3    H253067   3.667   6.112  16.972  0.8604 -0.4401 -0.0283
10526TIP3   OH253068   4.707   6.033  11.901  0.2881  0.0133 -0.3257
10526TIP3    H153069   4.770   5.994  11.841  0.9142  1.9137 -0.9751
10526TIP3    H253070   4.761   6.067  11.974 -0.2400 -0.4400  0.2833
10527TIP3   OH253071   0.727   0.653  15.332 -0.3200  0.0764 -0.1633
10527TIP3    H153072   0.781   0.705  15.390  0.0632 -1.7495  1.2164
10527TIP3    H253073   0.646   0.704  15.322  0.7849  1.8162 -0.5024
10528TIP3   OH253074   4.781   3.226  16.168  0.4596 -0.3701  0.2066
10528TIP3    H153075   4.823   3.143  16.189 -1.8302 -1.3824  1.1002
10528TIP3    H253076   4.825   3.290  16.225 -0.2696 -1.6961  2.4066
10529TIP3   OH253077   0.196   5.608  14.869 -0.2203  0.1101 -0.1932
10529TIP3    H153078   0.271   5.597  14.811 -0.9938 -0.2936 -1.1406
10529TIP3    H253079   0.140   5.533  14.851 -0.6230  0.1457  0.8619
10530TIP3   OH253080   5.548   2.226   3.303 -0.3113 -0.0956 -0.5675
10530TIP3    H153081   5.618   2.284   3.273  1.7994 -1.7120  0.9689
10530TIP3    H253082   5.497   2.280   3.363 -1.6548  1.6814 -3.1346
10531TIP3   OH253083   2.384   2.352   4.950  0.1564 -0.6315  1.0666
10531TIP3    H153084   2.405   2.444   4.934 -0.7800 -0.1401  2.4754
10531TIP3    H253085   2.374   2.314   4.863  0.1123  0.7057  0.4681
10532TIP3   OH253086   4.950   1.063  16.262  0.2667  0.2689 -0.1039
10532TIP3    H153087   4.975   1.073  16.353  0.5319  1.4530 -0.2919
10532TIP3    H253088   4.894   0.985  16.261 -0.9042  1.0326  1.3173
10533TIP3   OH253089   0.394   2.517   3.259  0.0167 -0.2924 -0.4093
10533TIP3    H153090   0.470   2.503   3.203  0.8760 -0.9938  0.8746
10533TIP3    H253091   0.431   2.551   3.341 -0.6833 -3.2169  1.2663
10534TIP3   OH253092   2.229   3.435  14.064  0.6528 -0.1373 -0.5912
10534TIP3    H153093   2.319   3.403  14.061 -0.6316 -4.5285  0.4012
10534TIP3    H253094   2.209   3.441  14.158 -0.2576  0.3595 -0.8091
10535TIP3   OH253095   0.050   0.441  15.724 -0.0518 -0.7452  0.2877
10535TIP3    H153096   0.108   0.428  15.650  0.3633 -0.7992  0.6208
10535TIP3    H253097  -0.000   0.520  15.702  0.7514 -0.1969  0.3813
10536TIP3   OH253098   2.798   0.215   1.775 -0.1868  0.2705 -0.2800
10536TIP3    H153099   2.753   0.287   1.731  0.8952  0.9785 -0.2480
10536TIP3    H253100   2.866   0.188   1.713 -1.3720 -1.5913 -0.8468
10537TIP3   OH253101   2.183   4.761   3.762 -0.1003 -0.1501  0.1670
10537TIP3    H153102   2.109   4.767   3.822  0.0025 -0.9356  0.3787
10537TIP3    H253103   2.144   4.773   3.675 -0.1605  1.6471  0.4057
10538TIP3   OH253104   2.897   3.711   3.458 -0.6341  0.5386  0.3941
10538TIP3    H153105   2.865   3.652   3.390 -3.1194 -1.0978  2.7389
10538TIP3    H253106   2.944   3.655   3.519  0.1239  1.6552  0.8705
10539TIP3   OH253107   5.299   3.731   2.189 -0.0109  0.3764 -0.0217
10539TIP3    H153108   5.296   3.641   2.221  1.0060  0.7965  1.3887
10539TIP3    H253109   5.214   3.768   2.214  0.2808  0.3262  1.1186
10540TIP3   OH253110   0.309   5.881  12.488  0.1635 -0.6435  0.0897
10540TIP3    H153111   0.379   5.831  12.447  0.8480 -0.2154  0.7276
10540TIP3    H253112   0.343   5.904  12.574  0.2475  1.7122 -0.5064
10541TIP3   OH253113   1.577   2.666  14.431 -0.1307 -0.2273 -0.1735
10541TIP3    H153114   1.485   2.644  14.417  0.0268  0.4839 -2.9699
10541TIP3    H253115   1.597   2.730  14.363  2.1383  0.5930  1.1467
10542TIP3   OH253116   5.785   0.521   5.772 -0.2359  0.4677 -0.1243
10542TIP3    H153117   5.766   0.580   5.845  1.4394  0.8976  0.0018
10542TIP3    H253118   5.755   0.435   5.802  0.7351  0.5731  1.2199
10543TIP3   OH253119   6.833   1.828  10.334 -0.2549  0.3339 -0.1563
10543TIP3    H153120   6.842   1.858  10.424  1.9077 -1.5472  0.3368
10543TIP3    H253121   6.751   1.778  10.333 -0.6203  0.9030  0.5706
10544TIP3   OH253122   1.308   3.830   0.793 -0.3704 -0.2128  0.8103
10544TIP3    H153123   1.380   3.768   0.806 -0.0277  0.1093  0.4583
10544TIP3    H253124   1.250   3.787   0.730  2.5410  1.9306 -3.8716
10545TIP3   OH253125   1.862   2.577  12.752 -0.2515  0.0995  0.6626
10545TIP3    H153126   1.841   2.511  12.687  0.5188 -0.6360  1.1446
10545TIP3    H253127   1.954   2.599  12.737 -0.5528  1.2404  0.3609
10546TIP3   OH253128   0.367   3.447   0.703 -0.2175  0.4418 -0.4334
10546TIP3    H153129   0.417   3.505   0.646  2.0020 -0.8179  0.1211
10546TIP3    H253130   0.332   3.380   0.644  2.5746 -1.2106 -0.4175
10547TIP3   OH253131   4.598   4.135  15.358 -0.2864  0.0014 -0.3713
10547TIP3    H153132   4.607   4.040  15.355  0.6984  0.0828 -0.3222
10547TIP3    H253133   4.615   4.164  15.268 -0.1672  0.1589 -0.2999
10548TIP3   OH253134   1.042   2.273   5.581  0.0534  0.7045 -0.2680
10548TIP3    H153135   0.965   2.217   5.584  0.6350 -0.4428 -3.2050
10548TIP3    H253136   1.116   2.214   5.594  0.5937  1.0541 -1.6005
10549TIP3   OH253137   1.117   5.825  13.098  0.0455  0.2963  0.1515
10549TIP3    H153138   1.158   5.911  13.090  0.4963  0.1587  0.9183
10549TIP3    H253139   1.023   5.842  13.092  0.1798  0.6066 -1.6982
10550TIP3   OH253140   3.672   0.489   4.993  0.4040 -0.6708 -0.0255
10550TIP3    H153141   3.714   0.532   4.918  1.2143 -2.3585 -0.6057
10550TIP3    H253142   3.741   0.486   5.060  0.1909 -0.6178  0.1966
10551TIP3   OH253143   6.063   5.052  10.921  0.3399  0.5576 -0.3354
10551TIP3    H153144   6.128   5.026  10.856 -0.2914  0.3638 -0.8978
10551TIP3    H253145   6.000   5.105  10.872 -0.0794  0.5032  0.1412
10552TIP3   OH253146   1.346   1.274   0.143 -0.3855 -0.1791  0.2954
10552TIP3    H153147   1.403   1.205   0.175 -1.0637 -0.1179  1.7212
10552TIP3    H253148   1.401   1.353   0.143 -0.1462 -0.3454  0.5232
10553TIP3   OH253149   0.727   3.434   2.104 -0.0490  0.2149 -0.0219
10553TIP3    H153150   0.717   3.385   2.022  0.4765  2.8430 -1.8018
10553TIP3    H253151   0.820   3.457   2.107  0.1715 -0.7346  1.9309
10554TIP3   OH253152   1.495   5.701  12.054  0.2031 -0.0771 -0.1410
10554TIP3    H153153   1.425   5.732  11.996 -2.3439 -2.6605  1.2520
10554TIP3    H253154   1.520   5.616  12.017  1.4771  0.0826  0.3132
10555TIP3   OH253155   6.086   0.755   4.399 -0.0394  0.2898  0.3237
10555TIP3    H153156   6.027   0.745   4.474  2.8054  0.4616  2.7835
10555TIP3    H253157   6.052   0.830   4.351 -3.4477 -1.3912 -0.1394
10556TIP3   OH253158   6.331   6.846   5.114  0.1889 -0.4797  0.1455
10556TIP3    H153159   6.412   6.795   5.125 -0.7992 -2.1393  0.0161
10556TIP3    H253160   6.313   6.880   5.202  0.8550 -0.3653  0.2433
10557TIP3   OH253161   5.438   2.161   1.769  0.0752 -0.1535 -0.2627
10557TIP3    H153162   5.534   2.155   1.775  0.2266  1.9480  0.2757
10557TIP3    H253163   5.406   2.105   1.840  1.0089  0.8912  1.0338
10558TIP3   OH253164   3.751   5.204  12.296 -0.2587 -0.3272 -0.3062
10558TIP3    H153165   3.775   5.296  12.285 -0.8462  0.4082  3.3331
10558TIP3    H253166   3.657   5.202  12.282  0.1418 -1.1981 -3.9091
10559TIP3   OH253167   2.637   2.706  14.245 -0.7905 -0.3596  0.0248
10559TIP3    H153168   2.708   2.763  14.214 -0.7343  0.3299  1.3494
10559TIP3    H253169   2.681   2.625  14.271 -0.3812  0.2533  1.3301
10560TIP3   OH253170   4.275   4.421  10.645  0.0957  0.6747  0.3956
10560TIP3    H153171   4.256   4.511  10.672 -1.2721  0.5994 -0.2375
10560TIP3    H253172   4.367   4.422  10.622 -0.0264  2.0616 -0.1247
10561TIP3   OH253173   5.864   3.454   1.560 -0.0223 -0.9389 -0.1639
10561TIP3    H153174   5.863   3.530   1.618 -1.9561 -1.8747  1.1382
10561TIP3    H253175   5.868   3.492   1.472  0.5695  0.6072  0.4852
10562TIP3   OH253176   5.138   4.696  13.030 -0.3969  0.0772  0.0031
10562TIP3    H153177   5.095   4.756  13.091 -1.7301  0.1390 -0.9350
10562TIP3    H253178   5.136   4.611  13.075 -0.1124  0.3798  0.6021
10563TIP3   OH253179   0.207   4.916   3.052  0.0342  0.0751  0.1629
10563TIP3    H153180   0.157   4.852   3.001  1.6668  0.1871 -1.7023
10563TIP3    H253181   0.227   4.986   2.990  0.3024  1.2693  1.5438
10564TIP3   OH253182   0.671   6.484   4.906 -0.3645  0.4004  0.2968
10564TIP3    H153183   0.584   6.505   4.939 -0.5596 -1.9588  1.4750
10564TIP3    H253184   0.656   6.422   4.835  0.3377  0.5794 -0.0182
10565TIP3   OH253185   6.042   2.531  13.998  0.5957  0.0951  0.1210
10565TIP3    H153186   5.963   2.478  13.986  1.2182 -0.7560 -0.3482
10565TIP3    H253187   6.082   2.498  14.078  0.0709  1.0778  0.8130
10566TIP3   OH253188   3.379   3.678   0.978 -0.2843 -0.2546 -0.3454
10566TIP3    H153189   3.444   3.697   0.910 -1.7000  1.1787 -1.3655
10566TIP3    H253190   3.430   3.644   1.051  1.7955  2.1591 -0.5597
10567TIP3   OH253191   2.606   6.016   3.495  0.0305 -0.5300  0.8583
10567TIP3    H153192   2.639   6.022   3.405 -0.2722 -0.5665  0.7444
10567TIP3    H253193   2.611   5.922   3.516 -1.7719 -0.8197  0.1633
10568TIP3   OH253194   5.283   4.565   1.206  0.1038  0.1854  0.0760
10568TIP3    H153195   5.294   4.526   1.293 -0.7249  0.4760  0.3173
10568TIP3    H253196   5.369   4.556   1.165  0.2851 -0.6951  0.6195
10569TIP3   OH253197   3.533   0.224  16.409 -0.1202  0.2163  0.2786
10569TIP3    H153198   3.606   0.252  16.465 -0.5460  1.2426  0.3279
10569TIP3    H253199   3.471   0.183  16.470  0.0430  0.0859  0.3584
10570TIP3   OH253200   2.524   4.390   4.105 -0.3293  0.0977 -0.9010
10570TIP3    H153201   2.467   4.464   4.082 -0.6038  0.8011  1.7069
10570TIP3    H253202   2.465   4.315   4.109 -0.7051  0.4195 -0.2429
10571TIP3   OH253203   0.636   4.958  12.232 -0.1041 -0.9651 -0.2709
10571TIP3    H153204   0.588   5.021  12.286  0.7065  0.7984 -1.5230
10571TIP3    H253205   0.650   5.003  12.148  1.9556 -2.1738 -0.6523
10572TIP3   OH253206   4.875   0.417  15.561 -0.0150  0.1190  0.1661
10572TIP3    H153207   4.810   0.352  15.586 -1.4353  1.4037 -0.0155
10572TIP3    H253208   4.836   0.463  15.486  0.6965  1.5039  0.6035
10573TIP3   OH253209   0.744   0.064  15.237  0.1931 -0.0040  0.1078
10573TIP3    H153210   0.768   0.003  15.167  1.3790 -0.7496  1.1208
10573TIP3    H253211   0.650   0.079  15.224  0.5006  0.4378 -2.0421
10574TIP3   OH253212   3.836   0.582   5.334 -0.3286 -0.2035 -0.4855
10574TIP3    H153213   3.760   0.637   5.316 -0.6931  0.6347  2.9398
10574TIP3    H253214   3.909   0.643   5.341 -0.3392 -0.3227  1.1620
10575TIP3   OH253215   5.815   5.286   2.670  0.1662 -0.0535  0.4834
10575TIP3    H153216   5.769   5.205   2.693  0.4536 -1.5226 -3.2812
10575TIP3    H253217   5.760   5.325   2.602  1.9584  0.7900 -0.5580
10576TIP3   OH253218   0.894   2.099   5.373 -0.4373  0.0245  0.2763
10576TIP3    H153219   0.899   2.115   5.279 -1.8633  0.6510  0.2814
10576TIP3    H253220   0.980   2.063   5.396  0.3184  0.8957 -1.0533
10577TIP3   OH253221   3.185   0.994  13.806  0.4447 -0.6844 -0.2371
10577TIP3    H153222   3.236   1.061  13.761 -0.1452 -1.5867 -2.3924
10577TIP3    H253223   3.100   1.035  13.824 -0.1432 -0.9568 -2.1206
10578TIP3   OH253224   2.164   1.908   3.312  0.2665  0.2794 -0.7157
10578TIP3    H153225   2.112   1.964   3.253  0.3285  0.8703 -0.2189
10578TIP3    H253226   2.102   1.881   3.379  0.9917  2.6086  1.0159
10579TIP3   OH253227   5.014   3.400  13.903  0.2499 -0.0003  0.3612
10579TIP3    H153228   4.997   3.306  13.899  1.9105 -0.4012  1.5817
10579TIP3    H253229   5.107   3.407  13.922  0.2753  1.9212 -0.2417
10580TIP3   OH253230   1.466   0.323  14.167 -0.3138 -1.1179  0.2519
10580TIP3    H153231   1.380   0.358  14.145 -0.1689  0.4309  1.9858
10580TIP3    H253232   1.523   0.352  14.096 -0.9931 -1.2792 -0.3729
10581TIP3   OH253233   1.509   3.771  13.044  0.2205  0.3670  0.8199
10581TIP3    H153234   1.437   3.798  12.988 -0.5018 -1.6727  0.6893
10581TIP3    H253235   1.586   3.771  12.987 -0.1745  0.0226  0.2882
10582TIP3   OH253236   5.977   2.946  13.648  0.0515  0.2572  0.5729
10582TIP3    H153237   6.027   2.925  13.569 -0.1101  0.1699  0.4932
10582TIP3    H253238   5.981   2.867  13.702  1.2361  0.7435  1.2253
10583TIP3   OH253239   1.368   6.141   4.020 -1.2102 -0.1193 -0.0593
10583TIP3    H153240   1.446   6.164   4.070 -0.9567  0.5452 -0.7436
10583TIP3    H253241   1.296   6.181   4.068 -0.8879  1.2083 -0.6222
10584TIP3   OH253242   0.873   3.337  13.756 -0.0724  0.2943  0.4959
10584TIP3    H153243   0.942   3.288  13.800 -0.1715  0.1091  0.4461
10584TIP3    H253244   0.808   3.354  13.824 -1.1156 -1.5907  0.0583
10585TIP3   OH253245   0.008   1.549  11.222 -0.3151  0.2100 -0.2165
10585TIP3    H153246   0.086   1.495  11.230  0.0125  0.6801 -0.2152
10585TIP3    H253247  -0.049   1.519  11.293 -0.9619 -1.4770 -1.3900
10586TIP3   OH253248   2.713   0.656   2.946  0.1974  0.5699  0.4182
10586TIP3    H153249   2.804   0.658   2.975  0.6091 -2.0925 -0.4111
10586TIP3    H253250   2.717   0.678   2.853  0.5136 -2.5752 -0.4227
10587TIP3   OH253251   3.709   1.635   0.846 -0.1542 -0.6310 -0.2754
10587TIP3    H153252   3.649   1.564   0.823 -0.7958 -0.0287 -0.5129
10587TIP3    H253253   3.790   1.614   0.800  1.3950 -3.7495  3.3472
10588TIP3   OH253254   3.163   2.612  15.983  0.1919 -0.3157 -0.0830
10588TIP3    H153255   3.188   2.536  16.036  1.1077 -0.4436 -0.6780
10588TIP3    H253256   3.168   2.580  15.892 -0.5864  0.1227 -0.2893
10589TIP3   OH253257   1.640   0.087  16.964 -0.2710  0.1597 -0.4384
10589TIP3    H153258   1.581   0.130  17.026 -1.0310  0.2903 -1.2316
10589TIP3    H253259   1.713   0.149  16.954 -1.2170  1.1742 -1.3579
10590TIP3   OH253260   4.039   6.005   0.158 -0.3698 -0.5275  0.2634
10590TIP3    H153261   4.007   5.919   0.186  2.6249 -2.0286 -0.4816
10590TIP3    H253262   4.005   6.016   0.069 -0.0277 -1.3989  0.0156
10591TIP3   OH253263   5.199   2.947  13.953 -0.6284  0.0426 -0.0151
10591TIP3    H153264   5.220   2.872  14.009 -0.9610 -0.2185 -0.2320
10591TIP3    H253265   5.260   3.015  13.980 -1.7948  0.4556  1.7373
10592TIP3   OH253266   4.903   3.794  10.557 -0.4779  0.2629  0.3999
10592TIP3    H153267   4.952   3.716  10.532  1.9621  1.1358  2.1362
10592TIP3    H253268   4.916   3.855  10.484  1.3521  0.5801  0.9470
10593TIP3   OH253269   1.052   0.673   5.383  0.5262 -0.3766 -0.3711
10593TIP3    H153270   1.113   0.706   5.449  0.0161  0.0425 -0.1037
10593TIP3    H253271   1.048   0.743   5.317  2.3052 -1.4578 -1.7235
10594TIP3   OH253272   3.526   1.067  14.596  0.0127 -0.7297  0.8135
10594TIP3    H153273   3.550   1.056  14.504 -0.8740 -0.3962  0.5343
10594TIP3    H253274   3.461   0.999  14.612 -0.6508 -0.0933  0.8814
10595TIP3   OH253275   0.572   2.121  13.262 -0.0872 -0.2691  0.0476
10595TIP3    H153276   0.538   2.033  13.277  1.4026 -0.9734 -0.4608
10595TIP3    H253277   0.515   2.179  13.312 -2.0976 -1.3410 -0.9150
10596TIP3   OH253278   6.307   0.626   3.612 -0.0109 -0.2369  0.0198
10596TIP3    H153279   6.273   0.555   3.666  0.7760  0.0219  0.8842
10596TIP3    H253280   6.258   0.620   3.531 -1.5046 -0.3917  0.9045
10597TIP3   OH253281   3.854   2.948  11.248 -0.2220  0.4034 -0.1888
10597TIP3    H153282   3.855   2.894  11.327  0.3393 -1.6235 -1.4913
10597TIP3    H253283   3.819   2.890  11.180  0.6443  1.5975 -1.7235
10598TIP3   OH253284   4.914   5.997  13.151  0.7906  0.0623 -0.2557
10598TIP3    H153285   4.947   5.949  13.074  0.9817 -0.1098 -0.0668
10598TIP3    H253286   4.878   6.077  13.115 -2.4902 -1.5845 -1.0139
10599TIP3   OH253287   4.961   5.680  15.029 -0.0502 -0.1883 -0.4520
10599TIP3    H153288   5.008   5.758  15.059 -1.0777 -0.4164  1.9453
10599TIP3    H253289   4.994   5.665  14.940  0.4992  2.6992 -0.8375
10600TIP3   OH253290   3.531   2.098   4.435  0.3450  0.9131 -0.5037
10600TIP3    H153291   3.512   2.090   4.341  0.1587  1.2293 -0.4961
10600TIP3    H253292   3.581   2.020   4.456 -1.5898 -0.3751 -0.3654
10601TIP3   OH253293   0.075   3.991  16.990  0.1899 -0.0836  0.1287
10601TIP3    H153294   0.057   4.084  16.996  0.4471  0.2387 -2.6511
10601TIP3    H253295  -0.011   3.949  16.988  0.0753  0.0419  1.3965
10602TIP3   OH253296   5.235   1.787  12.611  0.3091 -0.7930 -0.3989
10602TIP3    H153297   5.296   1.861  12.611 -1.5608  0.8214 -0.5781
10602TIP3    H253298   5.257   1.739  12.691  0.3801  1.0310  0.7463
10603TIP3   OH253299   1.446   1.452  12.539 -0.3980  0.3231 -0.5337
10603TIP3    H153300   1.432   1.461  12.633  0.1747  0.3765 -0.4519
10603TIP3    H253301   1.410   1.532  12.501 -1.6005 -0.1623 -0.4709
10604TIP3   OH253302   2.424   1.261  16.479  0.0054 -0.2357  0.7325
10604TIP3    H153303   2.402   1.274  16.572 -0.3404  1.1478  0.4848
10604TIP3    H253304   2.488   1.329  16.460 -0.5752  0.0468 -0.2568
10605TIP3   OH253305   2.292   6.544   3.102 -0.0189  0.0259  0.1535
10605TIP3    H153306   2.261   6.469   3.153  0.1667  1.1505  1.9919
10605TIP3    H253307   2.366   6.510   3.053  0.2127 -0.9422  1.1396
10606TIP3   OH253308   6.726   6.517   4.287 -0.6595  0.2080  0.3298
10606TIP3    H153309   6.674   6.572   4.229 -3.3418 -0.2165  2.1101
10606TIP3    H253310   6.725   6.564   4.371  0.9706 -0.3600  0.6935
10607TIP3   OH253311   0.724   6.432  14.687  0.3323  0.1835  0.4862
10607TIP3    H153312   0.731   6.397  14.598 -1.5006  2.3402 -0.6083
10607TIP3    H253313   0.728   6.355  14.743  0.1064 -1.3980 -1.5435
10608TIP3   OH253314   2.600   6.220  11.829 -0.6976  0.8547  0.5613
10608TIP3    H153315   2.610   6.290  11.893 -0.1026  0.9391  0.3828
10608TIP3    H253316   2.687   6.180  11.823 -0.8513  0.5777  0.1188
10609TIP3   OH253317   1.376   4.658  16.034 -0.3653  0.5305 -0.3000
10609TIP3    H153318   1.412   4.573  16.008 -0.0248  0.3417  0.7405
10609TIP3    H253319   1.437   4.722  15.996 -0.0866  0.2771 -0.2839
10610TIP3   OH253320   1.362   2.873  15.929  0.0350  0.1772  0.1007
10610TIP3    H153321   1.366   2.833  16.015 -1.3925 -0.4100 -0.0839
10610TIP3    H253322   1.435   2.935  15.928 -1.4571  2.1936  2.7467
10611TIP3   OH253323   2.640   1.609  15.279  0.5448 -0.3026 -0.1658
10611TIP3    H153324   2.713   1.573  15.328  0.6968  0.0113 -0.1567
10611TIP3    H253325   2.578   1.537  15.269  1.2064 -0.7844 -0.8588
10612TIP3   OH253326   2.888   5.983  10.956 -0.3979  0.5221  0.8272
10612TIP3    H153327   2.946   5.971  11.032 -0.4900 -1.3832  0.6426
10612TIP3    H253328   2.887   6.078  10.942  2.3216  0.6922  1.1224
10613TIP3   OH253329   5.894   6.532   2.609  0.3363  0.4483 -0.3057
10613TIP3    H153330   5.813   6.583   2.616 -0.0402 -0.2362  0.4553
10613TIP3    H253331   5.880   6.475   2.533  0.4019  0.8477 -0.6191
10614TIP3   OH253332   3.177   3.030   4.804  0.1219  0.1405  0.0106
10614TIP3    H153333   3.174   2.942   4.767 -1.3703  0.1581  0.0068
10614TIP3    H253334   3.231   3.022   4.882 -0.9206 -1.0485  0.6363
10615TIP3   OH253335   3.553   4.987  14.743  0.7934 -0.0422 -0.0396
10615TIP3    H153336   3.475   5.042  14.751  0.5763 -0.4496  0.7793
10615TIP3    H253337   3.625   5.048  14.727  0.2539  0.3094 -1.2425
10616TIP3   OH253338   3.944   0.288   3.075 -0.1120  0.0016  0.2416
10616TIP3    H153339   3.983   0.300   3.162 -0.4294  0.5206  0.3200
10616TIP3    H253340   3.909   0.374   3.053 -0.4361 -0.2420 -0.2077
10617TIP3   OH253341   3.437   0.272   1.335  0.3687  0.3662  0.0343
10617TIP3    H153342   3.369   0.238   1.277  0.0351 -0.5231  0.9272
10617TIP3    H253343   3.519   0.246   1.294  0.1384 -2.7062  1.3041
10618TIP3   OH253344   2.006   1.272  16.527 -0.2376 -0.1421  0.2025
10618TIP3    H153345   1.979   1.182  16.545 -1.0836 -0.2682 -1.5300
10618TIP3    H253346   1.985   1.319  16.608  2.1011 -1.8310  1.9101
10619TIP3   OH253347   3.788   2.257   2.466  0.4648 -0.6164  0.3491
10619TIP3    H153348   3.724   2.323   2.492 -0.9618 -2.1441  0.8963
10619TIP3    H253349   3.859   2.265   2.530  0.7295  0.9273 -0.1107
10620TIP3   OH253350   1.313   2.692  12.877  0.3794  0.0941  0.4549
10620TIP3    H153351   1.257   2.660  12.948  0.7716  0.4489  0.9323
10620TIP3    H253352   1.388   2.731  12.921  0.3495  0.8548 -0.1292
10621TIP3   OH253353   1.277   1.314  13.466 -0.1584  0.5230 -0.1473
10621TIP3    H153354   1.341   1.260  13.512 -1.1002 -1.2373 -0.8100
10621TIP3    H253355   1.258   1.266  13.385  0.4876  2.8649 -1.8316
10622TIP3   OH253356   5.171   4.202   5.022 -0.4256 -0.1636  0.2701
10622TIP3    H153357   5.149   4.253   4.944  1.3744  0.7598  0.3076
10622TIP3    H253358   5.130   4.117   5.007  0.1471 -0.1260 -1.8514
10623TIP3   OH253359   1.745   3.677  12.340 -0.0128 -0.6539  0.5585
10623TIP3    H153360   1.766   3.739  12.410 -1.8611 -0.0241  0.6052
10623TIP3    H253361   1.773   3.722  12.260 -1.3152  0.2729  0.5936
10624TIP3   OH253362   2.642   0.209   4.008 -0.0933 -0.9263 -0.1302
10624TIP3    H153363   2.681   0.122   4.020  0.0212 -0.8575  0.0027
10624TIP3    H253364   2.617   0.236   4.097 -1.8272 -1.6031 -0.3837
10625TIP3   OH253365   0.669   3.137   2.563  0.2514 -0.3167 -0.3096
10625TIP3    H153366   0.676   3.145   2.658  1.4463 -0.8078 -0.3417
10625TIP3    H253367   0.714   3.214   2.529  0.1215 -0.3150 -0.4787
10626TIP3   OH253368   3.411   4.137   1.457  0.5663 -0.2704 -0.6127
10626TIP3    H153369   3.473   4.168   1.523  0.6212 -1.6563  0.0358
10626TIP3    H253370   3.330   4.186   1.475  0.0547 -1.7490  1.6177
10627TIP3   OH253371   2.629   4.066  15.804  0.3191  0.2643  0.5206
10627TIP3    H153372   2.581   4.075  15.887 -1.0680  1.9677 -0.4198
10627TIP3    H253373   2.564   4.038  15.741  1.5843 -2.1003  0.1515
10628TIP3   OH253374   1.483   1.852   3.743 -0.3520  0.2021  0.1955
10628TIP3    H153375   1.481   1.821   3.834  1.9948  1.3061  0.6883
10628TIP3    H253376   1.442   1.939   3.746  0.1032  0.4164  0.2918
10629TIP3   OH253377   3.351   3.969  12.429  0.1604 -0.2549  0.3473
10629TIP3    H153378   3.345   3.879  12.397 -0.8800 -1.4919  3.5761
10629TIP3    H253379   3.277   4.014  12.388 -2.0056 -2.1372  1.9454
10630TIP3   OH253380   3.309   6.375  16.559 -0.0103 -0.2583  0.2520
10630TIP3    H153381   3.328   6.419  16.476 -0.3260  1.0251  0.8337
10630TIP3    H253382   3.284   6.286  16.534 -1.8888  0.6141 -1.1949
10631TIP3   OH253383   5.268   4.337   1.381 -0.1740 -0.2591 -0.2099
10631TIP3    H153384   5.356   4.363   1.411  0.4097  0.5560 -2.4358
10631TIP3    H253385   5.284   4.264   1.321 -0.6324  1.6612 -2.8411
10632TIP3   OH253386   5.884   5.135   3.856 -0.1539  0.3771  0.5085
10632TIP3    H153387   5.855   5.087   3.778  0.9797 -0.1793  0.4124
10632TIP3    H253388   5.805   5.179   3.887 -0.9263 -0.4594 -0.1901
10633TIP3   OH253389   1.262   1.633   1.314  0.2519 -0.2372 -0.3179
10633TIP3    H153390   1.313   1.640   1.395  0.2752 -2.2991 -0.1207
10633TIP3    H253391   1.328   1.630   1.245  0.4329 -2.0947 -0.1180
10634TIP3   OH253392   6.611   5.648  14.488 -0.1620  0.2416 -0.3753
10634TIP3    H153393   6.554   5.571  14.501 -0.1134  0.3871  0.8251
10634TIP3    H253394   6.682   5.635  14.551  0.4007  0.7580 -0.9001
10635TIP3   OH253395   1.855   5.038  17.124  0.2611  0.5329 -0.4902
10635TIP3    H153396   1.947   5.013  17.129  0.3585  1.0436  0.6980
10635TIP3    H253397   1.812   4.964  17.081  0.7182 -1.2440  1.8795
10636TIP3   OH253398   4.734   3.095   3.471 -0.2396 -0.5765 -0.3360
10636TIP3    H153399   4.679   3.098   3.392 -0.1960 -1.6774 -0.4261
10636TIP3    H253400   4.751   3.187   3.492  0.0652 -0.2629 -1.8376
10637TIP3   OH253401   1.936   6.564  10.814  0.1326  0.8679  0.1498
10637TIP3    H153402   1.906   6.476  10.789  1.1173  1.0839 -2.0913
10637TIP3    H253403   1.891   6.622  10.753 -0.6445  1.9841  1.7321
10638TIP3   OH253404   0.869   5.772   2.408  0.4209  0.1736  0.0694
10638TIP3    H153405   0.946   5.717   2.422  1.1711  1.0332 -0.5870
10638TIP3    H253406   0.856   5.771   2.313  0.0068  0.5571  0.1198
10639TIP3   OH253407   0.914   0.573  16.983 -0.2890 -0.6783 -0.1623
10639TIP3    H153408   0.922   0.656  16.935 -2.8760  0.6735  1.4830
10639TIP3    H253409   0.951   0.592  17.069 -1.0982 -1.1727  0.2988
10640TIP3   OH253410   2.938   3.866  16.540 -0.3332 -0.4176  0.1570
10640TIP3    H153411   2.994   3.933  16.579  0.1151 -1.2097  0.9008
10640TIP3    H253412   2.968   3.784  16.579 -0.4627 -1.1376 -1.1808
10641TIP3   OH253413   0.028   3.793  10.630 -0.3144  0.0432  0.2322
10641TIP3    H153414   0.022   3.865  10.567  0.1496 -0.7328 -0.7182
10641TIP3    H253415   0.035   3.837  10.715  1.3710  1.1737 -0.4386
10642TIP3   OH253416   0.944   6.628   3.785 -0.7523  0.3499  0.3213
10642TIP3    H153417   0.872   6.619   3.722 -0.3649  0.6569 -0.1697
10642TIP3    H253418   0.902   6.614   3.871 -1.0672 -1.2052 -0.0588
10643TIP3   OH253419   4.188   0.723  16.920  0.1108  0.0847  0.4736
10643TIP3    H153420   4.108   0.702  16.872  0.5307 -2.4913  0.7277
10643TIP3    H253421   4.259   0.698  16.861  0.6665 -0.3006  1.2853
10644TIP3   OH253422   3.250   5.248  17.086  0.5357  0.8317  0.4914
10644TIP3    H153423   3.193   5.279  17.016  0.0506 -0.8843  0.0570
10644TIP3    H253424   3.307   5.322  17.106  0.0424  1.6717 -1.0488
10645TIP3   OH253425   5.317   0.286  11.091 -0.1549  0.0701 -0.0027
10645TIP3    H153426   5.379   0.345  11.133 -0.1264  0.6470 -0.8328
10645TIP3    H253427   5.238   0.338  11.077 -0.0063  0.0400 -1.0617
10646TIP3   OH253428   6.217   3.374  11.804  0.0589 -0.0260 -0.0022
10646TIP3    H153429   6.191   3.298  11.752  0.5032  0.7126 -1.3383
10646TIP3    H253430   6.238   3.441  11.740 -2.8394  2.1450  1.0765
10647TIP3   OH253431   1.885   4.319  17.045 -0.4782  0.2808  0.1177
10647TIP3    H153432   1.807   4.337  17.096 -0.5323  1.6826 -0.4046
10647TIP3    H253433   1.876   4.374  16.967  0.0407 -1.1004 -0.9651
10648TIP3   OH253434   6.006   2.769   0.054 -0.5697 -0.2415  1.0046
10648TIP3    H153435   5.999   2.754  -0.040  0.2229  0.4517  0.8173
10648TIP3    H253436   6.096   2.743   0.076 -0.4122  0.5634  1.3644
10649TIP3   OH253437   1.908   4.120   0.581  0.2108 -0.1297 -0.6791
10649TIP3    H153438   1.910   4.160   0.494  0.3215 -1.5240 -1.3536
10649TIP3    H253439   2.000   4.108   0.604  0.2059  1.0045  0.0355
10650TIP3   OH253440   0.550   1.556  14.264 -0.2429 -0.4622  0.1694
10650TIP3    H153441   0.466   1.564  14.310 -1.2149 -1.6796 -1.3251
10650TIP3    H253442   0.555   1.636  14.211 -0.5923 -0.5247  0.0394
10651TIP3   OH253443   5.955   3.923  14.732 -0.0709  0.1184 -0.1943
10651TIP3    H153444   5.980   4.013  14.753  0.8250 -0.2507  0.3992
10651TIP3    H253445   5.902   3.931  14.653  0.0641  1.1589 -0.1976
10652TIP3   OH253446   1.569   0.377   1.527 -0.5778  0.1347  0.0665
10652TIP3    H153447   1.590   0.460   1.570 -0.6404  0.5368 -0.6699
10652TIP3    H253448   1.608   0.310   1.583  0.1487  0.7103  0.2496
10653TIP3   OH253449   2.217   1.367   1.765  0.4015 -0.0854 -0.6117
10653TIP3    H153450   2.258   1.317   1.837  0.6254  0.7874 -0.1197
10653TIP3    H253451   2.239   1.317   1.686  1.5643 -0.1768 -0.2510
10654TIP3   OH253452   6.841   3.708  15.080  0.1077 -0.2738  0.5358
10654TIP3    H153453   6.760   3.747  15.113 -0.1726 -0.0980 -0.3323
10654TIP3    H253454   6.833   3.712  14.984  0.6549 -1.2598  0.4304
10655TIP3   OH253455   4.390   2.817   2.058  0.1052 -0.3877 -0.3111
10655TIP3    H153456   4.336   2.852   2.129 -0.7914  0.7010 -1.4706
10655TIP3    H253457   4.326   2.782   1.995  0.8900 -1.5493 -0.4924
10656TIP3   OH253458   1.962   5.271   0.344 -0.1085  0.4535  0.3337
10656TIP3    H153459   1.932   5.221   0.268 -0.3130  0.7711  0.2012
10656TIP3    H253460   1.965   5.362   0.313  0.3668  0.5088  0.5381
10657TIP3   OH253461   0.213   2.243  11.390  0.9275  0.2358  0.2856
10657TIP3    H153462   0.168   2.328  11.385 -0.4695 -0.2161  2.9116
10657TIP3    H253463   0.151   2.181  11.353  1.3201  0.1789 -0.2732
10658TIP3   OH253464   5.793   4.233   5.181 -0.0113  0.2764 -0.5029
10658TIP3    H153465   5.886   4.252   5.185  0.0278  0.1469 -0.8402
10658TIP3    H253466   5.753   4.299   5.239  0.2773  0.3816 -0.4227
10659TIP3   OH253467   6.196   6.703   1.458  0.0139 -0.5172 -0.3534
10659TIP3    H153468   6.204   6.692   1.553 -1.6250  1.1110  0.0255
10659TIP3    H253469   6.250   6.779   1.438 -0.4128 -0.2644 -0.5634
10660TIP3   OH253470   0.505   3.520  16.289 -0.2037  1.0692 -0.2671
10660TIP3    H153471   0.412   3.531  16.274 -0.5118 -0.6341  0.1527
10660TIP3    H253472   0.514   3.429  16.317  1.7041  0.9058 -1.2497
10661TIP3   OH253473   6.261   0.603   3.057  0.1349 -0.2888  0.6539
10661TIP3    H153474   6.257   0.693   3.025 -0.6165 -0.4235  0.3422
10661TIP3    H253475   6.344   0.569   3.023  0.1575  0.1067  0.3059
10662TIP3   OH253476   4.317   1.215  13.324  0.4074  0.5488  0.0325
10662TIP3    H153477   4.232   1.191  13.289  0.5098  0.9156 -0.4804
10662TIP3    H253478   4.317   1.181  13.414 -0.5151  1.0777  0.2437
10663TIP3   OH253479   2.036   2.413  16.526  0.4927 -0.3212  0.0026
10663TIP3    H153480   1.947   2.442  16.508  0.1561 -0.4380  1.3632
10663TIP3    H253481   2.074   2.399  16.440 -0.4865  0.6564 -0.6232
10664TIP3   OH253482   2.120   3.236   1.180  0.4251 -0.2405  0.5190
10664TIP3    H153483   2.060   3.288   1.233  1.5778  0.4397  1.2124
10664TIP3    H253484   2.108   3.146   1.210 -0.5264 -0.1702  0.3622
10665TIP3   OH253485   4.789   4.634  14.502 -0.6783 -0.1639 -0.1723
10665TIP3    H153486   4.799   4.670  14.590  1.0546  0.5063 -0.6062
10665TIP3    H253487   4.864   4.667  14.454 -1.2847 -0.9950 -1.7603
10666TIP3   OH253488   1.534   1.701  14.938  0.3165  0.0001 -0.0367
10666TIP3    H153489   1.503   1.616  14.971  0.6894  0.4714  1.6150
10666TIP3    H253490   1.523   1.695  14.843 -0.7756 -1.4462  0.1456
10667TIP3   OH253491   5.211   3.755   0.412  0.2408 -0.1068  0.5020
10667TIP3    H153492   5.180   3.757   0.502 -1.8253 -2.8010  0.0041
10667TIP3    H253493   5.132   3.770   0.359  1.5041  2.0576 -0.9080
10668TIP3   OH253494   2.758   4.425  15.631 -0.5509 -0.0215  0.3747
10668TIP3    H153495   2.729   4.498  15.577 -0.1429 -0.0700  0.0930
10668TIP3    H253496   2.842   4.399  15.595  0.8711  1.4389  2.4395
10669TIP3   OH253497   6.337   0.095   5.414 -0.2655  0.7151 -0.3142
10669TIP3    H153498   6.276   0.064   5.480  0.1386  0.9182  0.1595
10669TIP3    H253499   6.422   0.062   5.442 -0.1438  0.4677 -0.9451
10670TIP3   OH253500   0.220   3.174   2.620 -0.2426  0.4407  0.1356
10670TIP3    H153501   0.130   3.143   2.634 -0.5092  1.0827 -0.1132
10670TIP3    H253502   0.263   3.162   2.705 -0.8106  0.9211  0.5011
10671TIP3   OH253503   4.229   5.337  11.493 -0.2776  0.0111 -0.0495
10671TIP3    H153504   4.185   5.270  11.441  0.8956 -0.1086 -0.9291
10671TIP3    H253505   4.166   5.410  11.497 -0.5140 -0.1007 -1.3794
10672TIP3   OH253506   0.218   5.424   4.711 -0.2629 -0.3796  0.4616
10672TIP3    H153507   0.175   5.356   4.764  0.0284 -0.7064  0.2821
10672TIP3    H253508   0.150   5.490   4.696  0.0271  0.4814  2.5347
10673TIP3   OH253509   0.714   2.564  15.424 -0.1344 -0.0511 -0.0840
10673TIP3    H153510   0.735   2.471  15.435 -0.0701  0.0463  0.6713
10673TIP3    H253511   0.619   2.567  15.424 -0.1631 -0.2946 -1.7576
10674TIP3   OH253512   3.027   4.633  15.194  0.2728 -0.2087 -0.3904
10674TIP3    H153513   3.050   4.725  15.200 -0.0651 -0.0758 -1.0550
10674TIP3    H253514   2.954   4.630  15.133  0.6394 -0.9770 -0.8045
10675TIP3   OH253515   4.213   5.840   2.894  0.8917  0.6765  0.6440
10675TIP3    H153516   4.293   5.845   2.842  1.0329  2.5375  0.9675
10675TIP3    H253517   4.204   5.927   2.933 -1.8598  0.9147 -0.2818
10676TIP3   OH253518   0.857   2.265  14.514 -0.0961 -0.0823 -0.1035
10676TIP3    H153519   0.843   2.344  14.566  0.6403 -0.8221  1.2913
10676TIP3    H253520   0.846   2.193  14.577 -0.0778 -1.0574 -1.1886
10677TIP3   OH253521   1.033   2.201   0.507 -0.2454  0.1205  0.6224
10677TIP3    H153522   0.970   2.134   0.480  0.7727 -0.6403  0.0291
10677TIP3    H253523   1.007   2.224   0.596  0.0478 -1.9229  1.2961
10678TIP3   OH253524   0.508   1.076  16.711 -0.4930  0.3820 -0.4445
10678TIP3    H153525   0.439   1.091  16.646  0.7774 -0.8698 -2.1732
10678TIP3    H253526   0.579   1.135  16.685  0.2492 -0.5470 -0.5870
10679TIP3   OH253527   1.267   3.800   0.337 -0.2301 -0.1807  0.4176
10679TIP3    H153528   1.245   3.709   0.356 -0.5459 -0.4872 -1.2754
10679TIP3    H253529   1.184   3.841   0.312 -0.0788  0.5676  1.0891
10680TIP3   OH253530   4.245   0.369   4.050 -0.2793  0.5896  0.7261
10680TIP3    H153531   4.157   0.396   4.073 -0.8186 -1.3428  1.1618
10680TIP3    H253532   4.302   0.416   4.111 -0.9124  2.3108  0.0529
10681TIP3   OH253533   1.012   1.141  15.462  0.5462  0.3799 -0.6370
10681TIP3    H153534   1.012   1.219  15.406  2.8881  0.2815 -0.8906
10681TIP3    H253535   0.996   1.174  15.550  0.1233  0.9695 -0.9330
10682TIP3   OH253536   5.213   1.996  10.603 -0.4889 -0.0993  0.5069
10682TIP3    H153537   5.276   1.934  10.565  0.3925  0.8421  0.3967
10682TIP3    H253538   5.192   1.959  10.689  1.0187  0.0910  0.9849
10683TIP3   OH253539   6.520   5.070   1.053  0.2699  0.5320  0.0229
10683TIP3    H153540   6.608   5.036   1.068  0.2277 -0.0206 -0.9437
10683TIP3    H253541   6.513   5.080   0.958 -0.6183  0.8265  0.1075
10684TIP3   OH253542   3.596   0.717  12.723 -0.5025  0.5508  0.0236
10684TIP3    H153543   3.580   0.640  12.668 -1.7610  1.5067 -1.0299
10684TIP3    H253544   3.606   0.683  12.811 -2.2129 -0.7531 -0.2406
10685TIP3   OH253545   1.385   1.421  13.808  0.6847 -0.7384  0.5072
10685TIP3    H153546   1.341   1.336  13.799  0.3246 -0.5579  0.5432
10685TIP3    H253547   1.376   1.442  13.901 -0.6348  0.0845  0.2186
10686TIP3   OH253548   5.712   0.599  13.951  0.0987  0.1042 -0.3933
10686TIP3    H153549   5.794   0.639  13.980 -0.2940  0.4946  0.2046
10686TIP3    H253550   5.657   0.599  14.028 -0.4578 -0.1802 -0.7851
10687TIP3   OH253551   5.013   3.878  14.833 -0.1186  0.6765 -0.3869
10687TIP3    H153552   4.998   3.784  14.820  0.3318  0.3901  0.9953
10687TIP3    H253553   5.093   3.896  14.783 -0.6487  0.5152 -1.3217
10688TIP3   OH253554   0.992   4.559   2.866 -0.5287  0.3149 -0.0301
10688TIP3    H153555   0.946   4.564   2.782 -0.7471  0.4387  0.0968
10688TIP3    H253556   0.923   4.545   2.930 -0.2523 -1.2353 -0.0128
10689TIP3   OH253557   3.645   6.708   1.290  0.2868  0.1497  0.4365
10689TIP3    H153558   3.593   6.733   1.213 -1.3751  1.7788  2.0003
10689TIP3    H253559   3.664   6.615   1.276 -0.3242  0.2815 -1.7120
10690TIP3   OH253560   1.338   0.606  13.806 -1.1568  0.3299 -0.5152
10690TIP3    H153561   1.316   0.590  13.714 -0.1748  2.5297 -1.1917
10690TIP3    H253562   1.364   0.698  13.809 -2.0592  0.5894  2.1604
10691TIP3   OH253563   6.297   2.088   5.765  0.0956  0.0530 -0.1347
10691TIP3    H153564   6.390   2.108   5.778 -0.1838  0.4594  1.3901
10691TIP3    H253565   6.271   2.040   5.843 -1.3056  1.1468  0.1133
10692TIP3   OH253566   2.656   5.449   5.061 -0.0051  0.9266  0.2400
10692TIP3    H153567   2.677   5.529   5.013 -0.3811  1.0376  0.2604
10692TIP3    H253568   2.720   5.386   5.030 -1.1902  0.5418 -1.5838
10693TIP3   OH253569   3.044   2.380   4.238 -0.1475 -0.1829  0.1914
10693TIP3    H153570   3.055   2.389   4.333 -1.7961  0.5694  0.3447
10693TIP3    H253571   3.126   2.411   4.201  0.0100  0.8528  1.3402
10694TIP3   OH253572   0.551   3.260   4.888  0.7792 -0.1567 -0.1946
10694TIP3    H153573   0.591   3.180   4.853 -0.6025 -1.1065  0.3246
10694TIP3    H253574   0.521   3.237   4.975 -0.0900  0.7765 -0.2190
10695TIP3   OH253575   3.292   6.102  16.481 -0.3906  0.1501  0.4333
10695TIP3    H153576   3.382   6.077  16.458 -0.4658  0.0137  0.2897
10695TIP3    H253577   3.262   6.032  16.538 -0.0595  0.6913  1.3000
10696TIP3   OH253578   5.825   2.229  11.205 -0.6275 -0.5462  0.1242
10696TIP3    H153579   5.885   2.298  11.178  0.0234 -0.9917  0.3982
10696TIP3    H253580   5.831   2.228  11.300 -0.7080 -0.9117  0.1267
10697TIP3   OH253581   0.633   3.768   2.735  0.1759  0.2642 -0.4951
10697TIP3    H153582   0.679   3.811   2.663  2.2382 -0.9520 -0.0108
10697TIP3    H253583   0.553   3.734   2.695 -0.4550  2.5845 -1.3619
10698TIP3   OH253584   6.189   0.505  14.269  0.0642  0.0842 -0.2173
10698TIP3    H153585   6.199   0.597  14.245 -0.9640  0.2867  0.0637
10698TIP3    H253586   6.228   0.457  14.196 -0.1585  0.7346 -0.7740
10699TIP3   OH253587   2.791   3.840   0.678  0.3095 -0.0904  0.1078
10699TIP3    H153588   2.857   3.801   0.621 -1.4275 -0.7233 -1.5975
10699TIP3    H253589   2.817   3.815   0.766  2.6462  0.2084 -0.4359
10700TIP3   OH253590   5.635   6.647   0.405 -0.3396  0.0975  0.1800
10700TIP3    H153591   5.686   6.607   0.334 -0.5268 -0.1400  0.1754
10700TIP3    H253592   5.699   6.694   0.458  0.0252 -0.9696  0.7124
10701TIP3   OH253593   3.658   3.201   3.778 -0.7229  0.2021  0.6412
10701TIP3    H153594   3.587   3.165   3.725 -0.2075  0.3553 -0.1771
10701TIP3    H253595   3.623   3.202   3.867 -1.4136 -0.5672  0.3939
10702TIP3   OH253596   0.177   1.901   0.905 -0.3502  0.7433 -0.0708
10702TIP3    H153597   0.208   1.928   0.991  1.0938 -1.0429  0.0186
10702TIP3    H253598   0.094   1.948   0.894 -0.9993  0.3841  2.6362
10703TIP3   OH253599   4.594   5.274   2.532 -0.0885  0.3635 -0.0653
10703TIP3    H153600   4.686   5.264   2.509 -0.4671 -2.8845 -0.7113
10703TIP3    H253601   4.586   5.234   2.619 -1.0245 -0.3010 -0.4364
10704TIP3   OH253602   0.279   2.890  13.802 -0.4648 -0.0118  0.3828
10704TIP3    H153603   0.374   2.890  13.798 -0.4338 -0.0231  1.0223
10704TIP3    H253604   0.251   2.899  13.711  0.1344 -1.5869  0.0021
10705TIP3   OH253605   2.413   2.232   0.374  0.1388  0.3622 -0.2306
10705TIP3    H153606   2.418   2.263   0.465 -1.4532  1.0913 -0.3648
10705TIP3    H253607   2.324   2.200   0.364  0.2817  0.3314 -1.5560
10706TIP3   OH253608   3.209   3.248   2.112 -0.0837  0.0913  0.0478
10706TIP3    H153609   3.247   3.225   2.028 -1.8676 -0.0738 -0.7625
10706TIP3    H253610   3.232   3.175   2.170  2.2804  0.8228  0.1257
10707TIP3   OH253611   5.681   4.140  12.137 -0.5093  0.1251  0.3505
10707TIP3    H153612   5.608   4.201  12.150 -0.1644  0.5048  0.5015
10707TIP3    H253613   5.736   4.151  12.214 -1.1964 -1.4402  1.1094
10708TIP3   OH253614   3.280   5.748   5.163  0.3665 -0.1610 -0.3517
10708TIP3    H153615   3.372   5.760   5.139  0.2932  0.8084 -0.2265
10708TIP3    H253616   3.275   5.783   5.252  0.6552 -3.7086  1.2222
10709TIP3   OH253617   0.861   1.623  14.606 -0.2389 -0.2316 -0.1320
10709TIP3    H153618   0.810   1.568  14.546  0.8281  0.6365 -1.9278
10709TIP3    H253619   0.942   1.642  14.558 -0.6661  3.1272  0.2198
10710TIP3   OH253620   0.435   6.299  11.698  0.0507  0.1295  0.3433
10710TIP3    H153621   0.364   6.359  11.675  0.9873  0.3874 -2.1333
10710TIP3    H253622   0.393   6.232  11.752 -2.5036 -0.5938 -2.2867
10711TIP3   OH253623   4.014   1.160   4.322 -0.8206 -0.6885  0.1675
10711TIP3    H153624   4.093   1.105   4.325  0.3214  0.5508 -2.9829
10711TIP3    H253625   3.953   1.110   4.267 -0.3844  0.3861 -1.3506
10712TIP3   OH253626   0.701   3.547   2.372 -0.4465  0.1210  0.3967
10712TIP3    H153627   0.723   3.513   2.285 -1.5946  1.0635 -0.2961
10712TIP3    H253628   0.700   3.470   2.429  1.7020 -0.3361 -0.0925
10713TIP3   OH253629   6.397   4.945  14.837  0.7742 -0.1977  0.2120
10713TIP3    H153630   6.366   4.855  14.842  1.6088 -0.5519 -0.6360
10713TIP3    H253631   6.439   4.961  14.921 -1.8615  0.4003  1.5182
10714TIP3   OH253632   2.470   6.031   6.072  0.0611  0.3452  0.5437
10714TIP3    H153633   2.546   5.993   6.117 -0.4347 -1.9797 -0.4365
10714TIP3    H253634   2.468   6.122   6.101  3.7063  0.7618 -0.0086
10715TIP3   OH253635   5.272   1.757   3.583  0.5105  0.0067 -0.0231
10715TIP3    H153636   5.276   1.672   3.626 -0.1256 -0.3363 -0.6140
10715TIP3    H253637   5.363   1.781   3.566  0.6454 -1.3195 -1.3185
10716TIP3   OH253638   2.756   1.690   0.280 -0.0379 -0.1068 -0.0204
10716TIP3    H153639   2.722   1.779   0.270 -0.5471 -0.4710 -2.0125
10716TIP3    H253640   2.693   1.646   0.336 -0.9200  0.2300 -0.7274
10717TIP3   OH253641   2.771   1.189   5.998  0.1987  0.5834 -0.2355
10717TIP3    H153642   2.765   1.199   6.093  1.3741 -0.4634 -0.0187
10717TIP3    H253643   2.782   1.278   5.964 -0.8227  1.0214  0.5405
10718TIP3   OH253644   6.517   4.396  14.268 -0.0088  0.6706 -0.5932
10718TIP3    H153645   6.562   4.347  14.199 -0.2759 -0.9870  0.3613
10718TIP3    H253646   6.424   4.384  14.249 -0.0821  0.2894 -0.0197
10719TIP3   OH253647   2.108   3.062   5.132 -0.9101  0.1071  0.3963
10719TIP3    H153648   2.058   3.029   5.057  2.1370  1.3432 -2.4264
10719TIP3    H253649   2.075   3.151   5.145  0.3752  0.9217 -1.4574
10720TIP3   OH253650   5.782   0.420   3.832 -0.2618  0.6862 -0.4531
10720TIP3    H153651   5.848   0.470   3.785 -0.2113  0.7295 -0.3379
10720TIP3    H253652   5.751   0.355   3.769  0.3237  0.2713 -0.3193
10721TIP3   OH253653   4.862   0.119   2.781 -0.0403  0.0306 -0.1448
10721TIP3    H153654   4.889   0.179   2.851  0.9883 -0.1897 -0.3329
10721TIP3    H253655   4.820   0.176   2.716  0.9310  0.5685 -0.3243
10722TIP3   OH253656   5.406   6.270   0.171  0.1434 -0.5617  0.0695
10722TIP3    H153657   5.328   6.255   0.225  0.2461 -1.1786  0.0540
10722TIP3    H253658   5.377   6.332   0.105  0.0012  0.1598  0.7990
10723TIP3   OH253659   2.745   2.324   1.633  0.5530 -0.0518 -0.7375
10723TIP3    H153660   2.649   2.314   1.636  0.4430  0.7231  2.9309
10723TIP3    H253661   2.759   2.400   1.577 -1.2392  1.3816  0.6325
10724TIP3   OH253662   6.172   0.694  11.687 -0.3013  0.1909 -0.0391
10724TIP3    H153663   6.149   0.623  11.627 -1.1108 -1.3414  1.9709
10724TIP3    H253664   6.108   0.763  11.669 -1.5674 -0.9005  0.1176
10725TIP3   OH253665   3.883   1.226  17.040 -0.0308 -0.1467  0.2798
10725TIP3    H153666   3.824   1.156  17.012  3.3668 -2.4258 -1.9426
10725TIP3    H253667   3.912   1.268  16.958  2.4248 -0.0844  1.1021
10726TIP3   OH253668   6.164   6.758  11.387  0.1964 -0.0321 -0.1200
10726TIP3    H153669   6.169   6.851  11.365 -1.3222  0.1500  0.1543
10726TIP3    H253670   6.193   6.752  11.477  1.9830 -0.1009 -0.6735
10727TIP3   OH253671   5.697   1.676   5.542 -0.5151  0.1883  0.4382
10727TIP3    H153672   5.669   1.589   5.571 -1.1335  0.3765  0.4218
10727TIP3    H253673   5.777   1.660   5.493 -0.3654 -0.3218  0.8358
10728TIP3   OH253674   1.644   3.153  13.919  0.3549  0.1692  0.1086
10728TIP3    H153675   1.554   3.121  13.912  0.4507 -0.1916  0.5044
10728TIP3    H253676   1.652   3.183  14.010  1.1639 -1.4325  0.5950
10729TIP3   OH253677   2.500   4.496  15.690 -0.3609 -0.3530 -0.2302
10729TIP3    H153678   2.462   4.429  15.634  1.3209 -2.1567  0.6654
10729TIP3    H253679   2.592   4.472  15.698  0.6487  2.8013 -0.8592
10730TIP3   OH253680   6.552   0.134   0.380  0.3833  0.3258  0.5171
10730TIP3    H153681   6.606   0.212   0.370 -0.6804  1.1867  1.1876
10730TIP3    H253682   6.509   0.145   0.465 -2.9378  1.0987 -1.0751
10731TIP3   OH253683   2.713   4.846  13.111 -0.3064  0.5014  0.1745
10731TIP3    H153684   2.679   4.826  13.199 -1.1705 -1.6208 -0.5786
10731TIP3    H253685   2.669   4.783  13.054 -0.4617  2.4146 -1.9557
10732TIP3   OH253686   2.197   2.209   2.549  0.6166  0.1225  0.0434
10732TIP3    H153687   2.200   2.240   2.640 -3.2489  1.3137 -0.0907
10732TIP3    H253688   2.146   2.128   2.553  1.9144 -0.7898 -0.9181
10733TIP3   OH253689   6.055   6.773  12.651 -0.0022  0.0276 -0.3418
10733TIP3    H153690   6.149   6.767  12.668  0.3379  1.0721 -1.6710
10733TIP3    H253691   6.025   6.682  12.649  1.0136 -0.3253 -0.1266
10734TIP3   OH253692   2.487   5.513  13.663 -0.0697 -0.1603  0.4627
10734TIP3    H153693   2.559   5.477  13.715 -0.4668  0.1438  1.2303
10734TIP3    H253694   2.513   5.603  13.644  0.9681 -0.8159 -1.5410
10735TIP3   OH253695   3.542   1.714   5.459  0.7498 -0.7571 -0.7442
10735TIP3    H153696   3.555   1.807   5.475  0.8812 -0.7813 -0.7151
10735TIP3    H253697   3.447   1.701   5.469  0.9999 -1.1110  1.7110
10736TIP3   OH253698   1.930   6.154   0.716 -0.3485 -0.6740 -0.2259
10736TIP3    H153699   1.863   6.088   0.696 -0.4311 -0.4382 -0.7370
10736TIP3    H253700   2.001   6.135   0.654  0.5927 -1.6922  1.1147
10737TIP3   OH253701   0.008   0.345  16.569  0.5407  0.0392 -0.3115
10737TIP3    H153702  -0.072   0.374  16.612 -0.1599 -0.7240 -1.0592
10737TIP3    H253703   0.074   0.410  16.593 -0.6857  1.6050 -1.0225
10738TIP3   OH253704   2.427   5.922  12.190 -0.0600 -1.0031 -0.1349
10738TIP3    H153705   2.431   5.876  12.274 -1.0603  1.4704  1.4080
10738TIP3    H253706   2.496   5.988  12.196 -0.8257 -0.1134 -0.7750
10739TIP3   OH253707   3.900   1.042   0.561  0.5174 -0.5847  0.2567
10739TIP3    H153708   3.835   1.084   0.618  0.0536 -1.9072  0.7351
10739TIP3    H253709   3.859   1.042   0.474 -0.0541 -1.2472  0.5206
10740TIP3   OH253710   3.837   4.242   4.027 -0.2313  0.2534  0.1045
10740TIP3    H153711   3.896   4.178   3.989 -1.7343 -0.2978 -1.4126
10740TIP3    H253712   3.865   4.326   3.991 -2.0065 -0.3192 -2.9258
10741TIP3   OH253713   2.741   6.199   4.353 -0.6997  0.6897 -0.6208
10741TIP3    H153714   2.825   6.237   4.379 -0.5924  0.6722 -0.9456
10741TIP3    H253715   2.740   6.112   4.394 -0.2599  0.4131 -1.1917
10742TIP3   OH253716   3.804   2.010  12.109 -0.3387 -0.1953 -0.1200
10742TIP3    H153717   3.835   1.937  12.163  0.3554  0.2366  0.0742
10742TIP3    H253718   3.884   2.049  12.074 -0.6851  0.7290  0.1101
10743TIP3   OH253719   3.087   5.672   1.045  0.0047  0.2714  0.2140
10743TIP3    H153720   3.018   5.606   1.036 -0.0401  0.3120  0.2624
10743TIP3    H253721   3.063   5.740   0.982  0.5201 -0.1674 -0.4744
10744TIP3   OH253722   4.765   5.994   4.891 -0.0101  0.5033  0.4929
10744TIP3    H153723   4.854   6.015   4.863 -0.3645  1.5848  0.1357
10744TIP3    H253724   4.714   5.990   4.810 -0.1384 -0.9222  0.6241
10745TIP3   OH253725   3.734   2.261   3.168  0.3147 -0.2923 -0.4440
10745TIP3    H153726   3.719   2.332   3.230  1.8949  0.3459 -0.7349
10745TIP3    H253727   3.817   2.222   3.197 -1.0592 -2.7942  0.4035
10746TIP3   OH253728   4.690   3.044  12.857 -0.1975 -0.0768 -0.6615
10746TIP3    H153729   4.622   2.980  12.840 -1.4003  1.4134 -1.7758
10746TIP3    H253730   4.677   3.112  12.791  0.6443  1.5995  0.7796
10747TIP3   OH253731   5.904   5.502  14.856 -0.1479  0.3766  0.2063
10747TIP3    H153732   5.847   5.492  14.932 -1.3856 -0.2650 -0.7694
10747TIP3    H253733   5.845   5.529  14.785  0.3465 -2.3579 -1.3746
10748TIP3   OH253734   2.374   0.594  15.287  0.3357 -0.9896  0.1244
10748TIP3    H153735   2.292   0.624  15.249  0.3692 -1.5522 -0.4116
10748TIP3    H253736   2.425   0.674  15.300 -0.2554 -0.6472  0.3808
10749TIP3   OH253737   0.030   0.120   4.097 -0.2296 -0.1777 -0.4118
10749TIP3    H153738   0.070   0.081   4.020 -0.8696 -1.0936 -0.3037
10749TIP3    H253739   0.098   0.176   4.134  0.5915 -0.8893 -0.8055
10750TIP3   OH253740   1.880   3.303  15.704 -0.1463 -0.5699 -0.0731
10750TIP3    H153741   1.968   3.279  15.733  0.4009  0.6559 -0.6639
10750TIP3    H253742   1.835   3.330  15.784  0.9356  1.5258 -0.1269
10751TIP3   OH253743   2.435   2.464   2.315  0.1137 -0.0307  0.1237
10751TIP3    H153744   2.393   2.497   2.395 -1.2167 -1.6332  0.1431
10751TIP3    H253745   2.454   2.372   2.334  3.9515  0.6053  0.1850
10752TIP3   OH253746   0.694   2.332   4.218  0.4172  0.0910 -0.2654
10752TIP3    H153747   0.773   2.279   4.232  0.1464  0.1966  2.0154
10752TIP3    H253748   0.701   2.361   4.127  3.6920  1.1925  0.1876
10753TIP3   OH253749   5.488   5.363  11.802 -0.4194 -0.3051  0.3337
10753TIP3    H153750   5.499   5.456  11.826 -0.5991 -0.5488  1.4201
10753TIP3    H253751   5.481   5.318  11.886 -1.4281 -1.1710 -0.1896
10754TIP3   OH253752   2.018   3.912  14.562 -0.2978 -0.3435 -0.3131
10754TIP3    H153753   1.973   3.923  14.645 -0.5015 -1.0904 -0.3210
10754TIP3    H253754   2.052   3.823  14.564  1.8367  0.4348  0.0059
10755TIP3   OH253755   4.732   4.184  17.122 -0.0929 -0.2925 -0.1059
10755TIP3    H153756   4.651   4.230  17.146 -0.5786 -0.4292 -1.3641
10755TIP3    H253757   4.779   4.246  17.066  0.8608 -0.0804  0.9114
10756TIP3   OH253758   4.872   0.343   2.938  0.5463 -0.2227  0.2430
10756TIP3    H153759   4.799   0.345   2.999 -1.3391 -0.5616 -1.8706
10756TIP3    H253760   4.874   0.430   2.899 -0.8665 -1.0704 -1.9545
10757TIP3   OH253761   5.717   1.521  13.386 -0.4584  0.5642 -0.2292
10757TIP3    H153762   5.806   1.493  13.407 -0.7677 -1.3448 -1.2032
10757TIP3    H253763   5.663   1.488  13.457 -0.7109 -0.6364 -0.9518
10758TIP3   OH253764   5.856   6.715  14.971  0.3766  0.1428  0.4095
10758TIP3    H153765   5.826   6.637  14.924  0.6476  0.8156 -0.8930
10758TIP3    H253766   5.891   6.680  15.053  1.9597 -1.3073 -0.8109
10759TIP3   OH253767   5.379   4.885   3.963 -0.1870 -0.5856 -0.5168
10759TIP3    H153768   5.291   4.854   3.944 -0.9876  1.0286  0.2688
10759TIP3    H253769   5.411   4.920   3.880 -0.2634 -1.2300 -0.8178
10760TIP3   OH253770   2.616   5.855   0.128  0.3673 -0.1062 -0.2731
10760TIP3    H153771   2.693   5.812   0.090  0.6514 -1.4206  1.6097
10760TIP3    H253772   2.652   5.916   0.192 -0.1252 -0.7708  0.6652
10761TIP3   OH253773   3.748   3.958  12.767 -0.2158 -0.1251 -0.0774
10761TIP3    H153774   3.734   3.875  12.720 -0.9864  0.0710 -0.2084
10761TIP3    H253775   3.763   3.932  12.858  1.4884 -0.5228 -0.4356
10762TIP3   OH253776   0.846   6.382   6.134 -0.1878  0.1958 -0.2114
10762TIP3    H153777   0.765   6.408   6.180 -1.1118 -1.0813 -1.0541
10762TIP3    H253778   0.914   6.388   6.200 -0.9478  1.4139  0.5012
10763TIP3   OH253779   2.909   2.994   1.636  1.0921 -0.1064 -0.1091
10763TIP3    H153780   2.935   3.032   1.552  2.7967  1.2849  0.9731
10763TIP3    H253781   2.981   2.935   1.658 -0.3486 -2.1367 -0.5662
10764TIP3   OH253782   1.186   2.827  12.658 -0.2851 -0.5223 -0.8307
10764TIP3    H153783   1.241   2.773  12.715 -2.8369 -2.6445 -0.1651
10764TIP3    H253784   1.162   2.902  12.712  0.9931 -0.1239 -0.7674
10765TIP3   OH253785   0.146   1.307   5.288 -0.0931  0.2387 -0.6749
10765TIP3    H153786   0.119   1.399   5.284  0.4740  0.3974 -0.9822
10765TIP3    H253787   0.241   1.311   5.299  0.2151 -0.3119 -2.7684
10766TIP3   OH253788   4.424   0.329   2.254  0.4758  0.1391 -0.3678
10766TIP3    H153789   4.395   0.242   2.281  0.4985  0.2167 -0.0868
10766TIP3    H253790   4.499   0.313   2.197  1.6348  0.0176  1.1178
10767TIP3   OH253791   2.284   3.514  11.325  0.0624  0.4166  0.8436
10767TIP3    H153792   2.236   3.468  11.257 -0.1486  0.2473  1.1019
10767TIP3    H253793   2.328   3.587  11.280  3.1810 -1.8974 -0.2243
10768TIP3   OH253794   6.821   1.305   0.929 -0.1809  0.0189 -0.1597
10768TIP3    H153795   6.737   1.318   0.885  0.5214 -0.7464 -1.7757
10768TIP3    H253796   6.887   1.331   0.865  1.0071 -3.8892 -0.8241
10769TIP3   OH253797   5.730   5.289  15.059  0.7238 -0.5474  0.1528
10769TIP3    H153798   5.817   5.299  15.099  1.6225  1.4851 -2.0631
10769TIP3    H253799   5.670   5.330  15.121  1.7094  0.2484  0.6111
10770TIP3   OH253800   5.613   0.011  17.006  0.0608 -0.5593  0.3349
10770TIP3    H153801   5.660   0.077  16.956  1.9186 -1.7290  0.4468
10770TIP3    H253802   5.558   0.060  17.067 -0.1703  0.8601 -0.9582
10771TIP3   OH253803   3.974   5.252   4.828  0.1994  0.4641 -0.1464
10771TIP3    H153804   4.023   5.258   4.746  1.1665 -0.5031  0.3343
10771TIP3    H253805   3.988   5.337   4.871 -1.1089  1.3490 -1.3839
10772TIP3   OH253806   1.151   5.804  14.722 -0.4854  0.6724 -0.0758
10772TIP3    H153807   1.134   5.714  14.748 -0.3056  0.3131 -1.1532
10772TIP3    H253808   1.117   5.857  14.794 -0.6092 -0.2493  0.5567
10773TIP3   OH253809   2.623   6.654  14.723  0.8159  0.0941 -0.1386
10773TIP3    H153810   2.689   6.621  14.783  0.7899 -0.6694 -0.5197
10773TIP3    H253811   2.674   6.686  14.648  0.7386 -0.7814 -0.5673
10774TIP3   OH253812   2.838   1.013   1.696 -0.0297 -0.3538 -0.2590
10774TIP3    H153813   2.743   1.017   1.683 -0.0637  0.6335  0.1724
10774TIP3    H253814   2.861   1.100   1.727  1.0139 -0.6127 -0.2772
10775TIP3   OH253815   6.216   6.148  14.998  0.3078  0.6310  0.4172
10775TIP3    H153816   6.172   6.128  15.081  2.0787  1.4319  1.6214
10775TIP3    H253817   6.149   6.136  14.932 -0.8142 -1.4358  1.8055
10776TIP3   OH253818   1.135   3.356  12.822  0.2832  0.4227  0.2519
10776TIP3    H153819   1.179   3.374  12.739  2.1893 -0.1942  1.0822
10776TIP3    H253820   1.144   3.438  12.872 -0.0447  0.4836  0.2162
10777TIP3   OH253821   0.189   2.355  13.648  0.2139 -0.0153  0.4889
10777TIP3    H153822   0.237   2.300  13.710 -0.8920 -1.6642 -0.0787
10777TIP3    H253823   0.232   2.339  13.564 -1.1078 -1.3243  0.0207
10778TIP3   OH253824   2.686   4.228   4.739 -0.2320  0.0689 -0.3085
10778TIP3    H153825   2.678   4.170   4.664 -0.2191 -2.9817  1.8765
10778TIP3    H253826   2.778   4.256   4.739  0.3017 -1.5913 -0.3270
10779TIP3   OH253827   5.721   1.129  16.201  0.5877 -0.4021 -0.3579
10779TIP3    H153828   5.634   1.093  16.182  1.3710 -1.3541 -2.5918
10779TIP3    H253829   5.763   1.064  16.257  0.1498 -0.3358  0.0477
10780TIP3   OH253830   5.116   0.851   5.296  0.0706  0.9963 -0.6958
10780TIP3    H153831   5.074   0.839   5.211 -0.9855 -1.3270  0.0681
10780TIP3    H253832   5.047   0.829   5.359  1.7652 -0.8515  0.6430
10781TIP3   OH253833   0.824   2.758   2.353 -0.1151  0.6626 -0.1098
10781TIP3    H153834   0.906   2.758   2.402  0.1863  2.0159 -0.5713
10781TIP3    H253835   0.850   2.764   2.261 -0.7162  1.5162 -0.2405
10782TIP3   OH253836   4.298   1.378   5.587  0.3815  0.5673  0.3333
10782TIP3    H153837   4.345   1.296   5.572  0.4596  0.2522  2.1207
10782TIP3    H253838   4.367   1.444   5.595  0.5004  0.2965  1.7979
10783TIP3   OH253839   3.704   0.507  14.101  0.2349 -0.0181 -0.3585
10783TIP3    H153840   3.733   0.597  14.088 -0.4117  0.2497 -0.0045
10783TIP3    H253841   3.712   0.466  14.015 -0.0681  0.5536 -0.6620
10784TIP3   OH253842   4.543   1.394  15.021  0.7207 -0.4202  0.4513
10784TIP3    H153843   4.490   1.473  15.018  1.2207 -0.0978 -0.5229
10784TIP3    H253844   4.502   1.335  14.958  1.2751 -0.3057 -0.0338
10785TIP3   OH253845   4.322   3.648  14.023  0.2263  0.1498  0.2945
10785TIP3    H153846   4.374   3.568  14.021 -0.0185 -0.0371  1.1670
10785TIP3    H253847   4.280   3.648  14.108 -2.0337 -0.2374 -0.7492
10786TIP3   OH253848   5.966   4.266  12.222  0.1548  0.6733  0.0562
10786TIP3    H153849   5.925   4.222  12.297  0.5764  1.9173  1.0385
10786TIP3    H253850   5.962   4.359  12.244  3.5450  0.8917  0.2475
10787TIP3   OH253851   4.860   1.365  13.315 -0.2178  0.1197 -0.1014
10787TIP3    H153852   4.903   1.449  13.335  1.5030 -0.4356 -1.1820
10787TIP3    H253853   4.782   1.364  13.370  2.4280  0.0449  4.0670
10788TIP3   OH253854   5.243   6.496   4.487  0.0865 -0.3884 -0.1888
10788TIP3    H153855   5.209   6.584   4.502 -2.0841 -1.1314 -0.3570
10788TIP3    H253856   5.293   6.503   4.406 -0.7542  0.5268 -0.6445
10789TIP3   OH253857   0.194   1.995  11.917  0.5246 -0.2170  0.1667
10789TIP3    H153858   0.179   2.057  11.846 -1.6257 -0.2308  0.5344
10789TIP3    H253859   0.205   2.049  11.995 -0.0218 -0.2450  0.2702
10790TIP3   OH253860   5.389   2.556  13.054  0.2376 -0.1124  0.9249
10790TIP3    H153861   5.390   2.603  13.137  3.2381 -0.1538  1.0490
10790TIP3    H253862   5.386   2.625  12.988  0.7902  0.0948  1.1048
10791TIP3   OH253863   0.628   6.511  15.706 -0.3823  0.2820 -0.7689
10791TIP3    H153864   0.668   6.434  15.665  0.7774 -0.6056  1.8575
10791TIP3    H253865   0.579   6.476  15.780  1.7709  2.1393  1.6908
10792TIP3   OH253866   0.906   4.431   3.533 -0.2026  0.2451  0.1532
10792TIP3    H153867   0.876   4.430   3.624  0.2624  2.8150  0.4204
10792TIP3    H253868   0.995   4.467   3.539  0.3034 -0.7339 -1.2230
10793TIP3   OH253869   2.429   2.649   0.626  0.3189 -0.0036  0.0562
10793TIP3    H153870   2.359   2.603   0.673  0.1611  0.5650  0.3862
10793TIP3    H253871   2.412   2.629   0.534  0.8409 -1.4114  0.2476
10794TIP3   OH253872   4.722   5.618  15.951 -0.4533 -0.1589  0.1986
10794TIP3    H153873   4.637   5.650  15.980 -0.7413  0.6266 -1.4658
10794TIP3    H253874   4.776   5.618  16.031 -1.6727  0.3971  1.0456
10795TIP3   OH253875   5.777   2.562   4.239  0.1124  0.1261 -0.3106
10795TIP3    H153876   5.850   2.509   4.270  1.1122  0.8460 -1.3638
10795TIP3    H253877   5.757   2.620   4.311  0.7238  0.0649 -0.0902
10796TIP3   OH253878   2.217   0.690   3.453 -0.4685 -0.7839  0.1361
10796TIP3    H153879   2.210   0.606   3.497  0.5115 -1.0157 -0.1342
10796TIP3    H253880   2.255   0.749   3.519  2.7738 -1.5784 -0.8732
10797TIP3   OH253881   1.895   2.732  16.393 -0.0974 -0.5399  0.1498
10797TIP3    H153882   1.874   2.773  16.476 -0.9547 -1.1734  0.2507
10797TIP3    H253883   1.988   2.753  16.379 -0.3592  0.9060  0.4818
10798TIP3   OH253884   0.000   5.036   2.346 -0.2100 -0.7093 -0.3924
10798TIP3    H153885  -0.067   5.083   2.396 -0.0822  0.6843 -1.4697
10798TIP3    H253886   0.042   4.980   2.411 -1.8286 -0.9708  0.4815
10799TIP3   OH253887   5.900   5.085   0.201  0.0392 -0.7526 -0.0019
10799TIP3    H153888   5.934   5.132   0.277  1.5057 -2.3313  0.3849
10799TIP3    H253889   5.933   5.132   0.125 -0.6163  0.2674  0.3303
10800TIP3   OH253890   3.743   0.160  14.970 -0.1436  0.4701  0.4287
10800TIP3    H153891   3.717   0.190  14.883 -0.1611 -1.7587 -0.4108
10800TIP3    H253892   3.834   0.132  14.959  0.0758  0.8014  1.3152
10801TIP3   OH253893   4.192   2.084   3.356  0.1145 -0.2716  0.1858
10801TIP3    H153894   4.261   2.021   3.334  0.1317  0.0324 -0.6363
10801TIP3    H253895   4.238   2.166   3.372 -0.1568  0.4297 -2.2192
10802TIP3   OH253896   2.604   2.596   5.681  0.1714  0.2775 -0.4502
10802TIP3    H153897   2.657   2.563   5.608 -0.0942 -0.6507 -0.2323
10802TIP3    H253898   2.529   2.536   5.685 -0.7198  1.3548 -0.5231
10803TIP3   OH253899   0.014   0.754   3.284 -0.3332  0.5916 -0.1156
10803TIP3    H153900   0.078   0.690   3.254  0.6294  1.8201 -0.7918
10803TIP3    H253901  -0.018   0.719   3.367  1.4435  0.0665  0.3914
10804TIP3   OH253902   4.531   4.101  15.059  0.0544 -0.6729 -0.2562
10804TIP3    H153903   4.477   4.049  15.118 -3.0375 -2.3599 -4.1134
10804TIP3    H253904   4.470   4.137  14.995  2.9504  2.1576 -1.7286
10805TIP3   OH253905   5.566   6.139  14.443  0.0590  0.0076  0.2350
10805TIP3    H153906   5.653   6.121  14.479 -0.0416 -0.4328  0.2636
10805TIP3    H253907   5.550   6.067  14.382  0.7251  1.3478 -1.6171
10806TIP3   OH253908   0.189   2.785  11.162 -0.3593 -0.4415  0.3700
10806TIP3    H153909   0.226   2.872  11.180  0.8644 -1.0648  0.9960
10806TIP3    H253910   0.201   2.773  11.068  2.0874 -1.0409  0.6912
10807TIP3   OH253911   3.169   3.622  13.080 -0.3933  0.0543 -0.2869
10807TIP3    H153912   3.100   3.557  13.082 -0.7838  0.3790 -1.9009
10807TIP3    H253913   3.215   3.606  12.997  0.8585  0.4660  0.2978
10808TIP3   OH253914   3.838   0.923  16.903  0.0408 -0.4482 -0.5854
10808TIP3    H153915   3.919   0.970  16.880  0.7327 -0.8005  0.9465
10808TIP3    H253916   3.858   0.832  16.884  0.1735 -0.5876  0.1932
10809TIP3   OH253917   4.327   1.954   3.051  0.4267  0.1764 -0.1310
10809TIP3    H153918   4.396   2.021   3.056 -0.7078  1.3754  0.1019
10809TIP3    H253919   4.330   1.910   3.136 -1.6264  2.9040  1.5293
10810TIP3   OH253920   2.380   2.304   4.193  0.3981 -0.1331  0.0658
10810TIP3    H153921   2.310   2.260   4.241 -0.1449  0.9303  0.2835
10810TIP3    H253922   2.346   2.314   4.104  0.0704  0.7595  0.2727
10811TIP3   OH253923   0.468   6.275  16.461 -0.6621  0.7576 -0.1935
10811TIP3    H153924   0.481   6.340  16.530  1.5087 -1.1740  1.3856
10811TIP3    H253925   0.547   6.281  16.407 -0.1613 -0.8339  0.2937
10812TIP3   OH253926   5.910   2.344  12.705 -0.2124 -0.2743  0.3822
10812TIP3    H153927   5.881   2.279  12.642  0.2229 -0.7384  0.6498
10812TIP3    H253928   5.841   2.347  12.771  0.8878 -2.3476  1.7339
10813TIP3   OH253929   5.996   4.828   0.156 -0.4126  0.7386 -0.0229
10813TIP3    H153930   6.041   4.825   0.072 -0.3413  0.2714  0.0297
10813TIP3    H253931   5.995   4.921   0.179  2.2055  0.6240  0.8898
10814TIP3   OH253932   5.142   0.793  12.038 -0.4184  0.2830 -0.3322
10814TIP3    H153933   5.087   0.817  11.963 -0.5833  0.9836  0.0088
10814TIP3    H253934   5.099   0.832  12.114 -0.3873 -0.6357  0.1704
10815TIP3   OH253935   3.461   0.518   5.161 -0.1016 -0.1835  0.0064
10815TIP3    H153936   3.405   0.547   5.089  0.0724 -1.3001 -0.6007
10815TIP3    H253937   3.547   0.506   5.121  0.5678  1.3213  0.8890
10816TIP3   OH253938   6.121   2.143   2.939  0.1368 -0.0903  0.6990
10816TIP3    H153939   6.040   2.143   2.989  0.0389  0.1262  0.5437
10816TIP3    H253940   6.182   2.194   2.991 -0.8751  2.9178 -0.8277
10817TIP3   OH253941   3.299   0.090  15.997  0.1855 -0.0604  0.2168
10817TIP3    H153942   3.336   0.006  16.025 -0.1340 -0.4442 -0.4743
10817TIP3    H253943   3.219   0.100  16.049  0.0703 -0.3293  0.0938
10818TIP3   OH253944   3.823   6.253   5.034 -0.2308 -0.3102  0.1465
10818TIP3    H153945   3.862   6.321   4.978 -1.0345  0.6608  0.7343
10818TIP3    H253946   3.883   6.179   5.027 -0.0639 -0.0500 -1.6361
10819TIP3   OH253947   2.994   5.708  11.282 -0.0585  0.1259  0.0353
10819TIP3    H153948   2.923   5.715  11.346 -1.0133 -0.0821 -0.9926
10819TIP3    H253949   3.053   5.641  11.319 -0.3465  0.3571  0.9281
10820TIP3   OH253950   3.603   1.671  12.303  0.1891 -0.4038  0.2406
10820TIP3    H153951   3.528   1.682  12.361  0.1647 -0.5215  0.2309
10820TIP3    H253952   3.587   1.589  12.257 -0.9869  0.8333 -1.7006
10821TIP3   OH253953   3.036   6.438   1.997 -0.1277 -0.2077  0.3266
10821TIP3    H153954   3.012   6.467   2.085 -1.2370  3.4850 -1.0255
10821TIP3    H253955   3.126   6.408   2.005 -0.4574 -0.7100  2.8222
10822TIP3   OH253956   5.326   2.428   5.636 -0.0669 -0.2389  0.3841
10822TIP3    H153957   5.365   2.391   5.714 -1.1686 -0.8462  0.6736
10822TIP3    H253958   5.265   2.494   5.669 -0.4791 -0.4423  0.0406
10823TIP3   OH253959   1.812   2.085  14.056 -0.2540 -0.2901 -0.2542
10823TIP3    H153960   1.806   1.990  14.065 -3.6862 -0.1805 -0.2625
10823TIP3    H253961   1.795   2.119  14.144 -0.2580  0.3489 -0.4951
10824TIP3   OH253962   0.813   5.163  13.584  0.7433  0.7426  0.5131
10824TIP3    H153963   0.904   5.169  13.556  0.4538  1.8533 -0.2730
10824TIP3    H253964   0.813   5.192  13.675  1.2546  0.0781  0.7385
10825TIP3   OH253965   5.187   5.382   0.420  0.0423  0.2116 -0.7684
10825TIP3    H153966   5.221   5.299   0.387 -0.0669 -0.2437  0.2308
10825TIP3    H253967   5.250   5.447   0.389  0.5985 -0.3475 -0.8399
10826TIP3   OH253968   2.661   1.257  11.927  0.4635  0.1871  0.4841
10826TIP3    H153969   2.592   1.195  11.950  0.3171  0.1201 -0.1107
10826TIP3    H253970   2.616   1.326  11.877  0.8824 -0.0873 -0.3016
10827TIP3   OH253971   2.617   1.631   5.377  0.4119  0.2332 -0.4986
10827TIP3    H153972   2.689   1.590   5.329 -0.4979 -1.2753 -0.6465
10827TIP3    H253973   2.649   1.719   5.398  2.5402 -0.5989  0.0169
10828TIP3   OH253974   1.418   5.883  11.810  0.5140 -0.0365 -0.2700
10828TIP3    H153975   1.325   5.887  11.790  0.3194 -2.9459 -0.4406
10828TIP3    H253976   1.461   5.923  11.734 -0.5474  1.0727 -0.3154
10829TIP3   OH253977   1.932   4.880  13.819 -0.5541 -0.2260  0.2769
10829TIP3    H153978   1.844   4.917  13.827 -0.3078  0.1887  1.2233
10829TIP3    H253979   1.976   4.905  13.900  0.8123  0.5955 -0.6555
10830TIP3   OH253980   0.635   2.529  11.399  0.2036 -0.0827  0.0539
10830TIP3    H153981   0.553   2.555  11.356 -0.5471 -1.3043  0.6795
10830TIP3    H253982   0.697   2.597  11.375 -1.0889  1.0736 -0.1594
10831TIP3   OH253983   1.665   0.900  15.892  0.7523  0.5995 -0.1420
10831TIP3    H153984   1.755   0.932  15.897  0.9673  0.4714 -2.3262
10831TIP3    H253985   1.674   0.805  15.882  0.4133  0.6221 -0.7311
10832TIP3   OH253986   4.813   2.966   4.243  0.3439 -0.3318 -0.5337
10832TIP3    H153987   4.792   3.035   4.306  0.6247 -1.4341  0.8148
10832TIP3    H253988   4.858   3.012   4.172 -2.9471  1.4951 -1.6473
10833TIP3   OH253989   3.422   1.356   5.481 -0.1806  0.1231  0.2336
10833TIP3    H153990   3.436   1.448   5.458  0.0708  0.7752  2.6521
10833TIP3    H253991   3.475   1.343   5.560 -0.8495 -1.8735  0.4142
10834TIP3   OH253992   1.968   3.193   2.086 -0.1791 -0.2807  0.0836
10834TIP3    H153993   1.887   3.143   2.099  0.3566 -1.2017 -0.0715
10834TIP3    H253994   2.036   3.127   2.075  0.3582  0.4651 -1.3583
10835TIP3   OH253995   0.290   4.494  13.539 -0.4128  0.2638  0.2222
10835TIP3    H153996   0.256   4.415  13.499 -0.0305  0.0532  0.3114
10835TIP3    H253997   0.384   4.479  13.548 -0.7478 -0.7425  3.4858
10836TIP3   OH253998   0.713   2.676  16.992 -0.1786  0.5295  0.0125
10836TIP3    H153999   0.764   2.712  17.065 -0.0295 -1.3850  0.9092
10836TIP3    H254000   0.624   2.670  17.026 -0.7159  2.2597 -0.9728
10837TIP3   OH254001   4.316   4.587  13.723 -0.1805 -0.1696 -0.8021
10837TIP3    H154002   4.244   4.533  13.756  1.0249 -2.0921 -1.2020
10837TIP3    H254003   4.318   4.570  13.629  0.6272  0.0846 -0.8367
10838TIP3   OH254004   0.270   3.895   4.210 -0.2048 -0.2386  0.3294
10838TIP3    H154005   0.361   3.871   4.196 -0.2943 -0.5072  0.2109
10838TIP3    H254006   0.263   3.986   4.179  0.4690  0.4487  2.0726
10839TIP3   OH254007   1.562   3.491  16.199 -0.1593  0.9661 -0.5743
10839TIP3    H154008   1.657   3.496  16.209 -0.2554  2.1344  0.0075
10839TIP3    H254009   1.537   3.411  16.245  0.3657  1.6504  0.9996
10840TIP3   OH254010   2.081   6.471  15.176  0.3475 -0.4763  0.3905
10840TIP3    H154011   2.115   6.556  15.204  0.0571  0.0786 -0.8743
10840TIP3    H254012   2.064   6.481  15.083  0.6758 -2.0526  0.1281
10841TIP3   OH254013   5.689   1.623  10.724  0.0872 -0.4478  0.9736
10841TIP3    H154014   5.716   1.715  10.715 -1.1449 -0.1918 -0.6577
10841TIP3    H254015   5.619   1.626  10.788 -1.7997  0.2523 -0.9817
10842TIP3   OH254016   5.356   0.603  15.882 -0.3267  0.5486  0.4210
10842TIP3    H154017   5.392   0.688  15.906 -0.5473  0.8101 -0.1496
10842TIP3    H254018   5.391   0.542  15.947 -1.0669  1.2562  1.5112
10843TIP3   OH254019   5.309   3.031  12.890  0.2390  0.0799  0.2606
10843TIP3    H154020   5.371   3.071  12.829 -0.1817 -2.8645 -2.3348
10843TIP3    H254021   5.224   3.045  12.850 -0.2449 -0.4354  1.0828
10844TIP3   OH254022   0.578   2.988   4.239  0.1377  0.0646  0.2698
10844TIP3    H154023   0.578   3.058   4.173 -1.7352 -0.5175 -0.4078
10844TIP3    H254024   0.609   3.031   4.319 -2.3453  2.1002  0.2651
10845TIP3   OH254025   1.635   2.185   0.283 -0.0311 -0.5581 -0.2791
10845TIP3    H154026   1.726   2.213   0.296 -0.2623  1.1410 -1.7943
10845TIP3    H254027   1.641   2.096   0.250  1.0973 -0.4594 -0.3634
10846TIP3   OH254028   6.433   5.628  10.873 -0.1558 -0.1411 -0.0672
10846TIP3    H154029   6.389   5.617  10.957  0.1595  0.5146  0.1902
10846TIP3    H254030   6.425   5.721  10.853  1.2308  0.0281  0.0641
10847TIP3   OH254031   1.718   3.353  13.694  0.3076 -0.0990  0.1054
10847TIP3    H154032   1.813   3.351  13.682  0.5801  3.2495  0.5718
10847TIP3    H254033   1.703   3.297  13.771  2.2109  0.7998  1.2236
10848TIP3   OH254034   2.325   1.737  14.376  0.4782  0.4864 -0.5162
10848TIP3    H154035   2.245   1.727  14.325  0.1094  1.7903 -0.2499
10848TIP3    H254036   2.346   1.649  14.407  0.3016 -0.2138 -2.2811
10849TIP3   OH254037   5.344   3.096   0.245 -0.1708  1.0575 -0.7216
10849TIP3    H154038   5.381   3.158   0.307  1.3761 -0.1524 -0.3888
10849TIP3    H254039   5.292   3.037   0.298 -0.5645  1.2606 -0.8724
10850TIP3   OH254040   6.088   4.621  14.724  0.1265 -0.3627  0.2821
10850TIP3    H154041   6.038   4.701  14.707  1.1024 -0.1123 -1.8045
10850TIP3    H254042   6.149   4.645  14.794 -0.6284  0.2234  0.7581
10851TIP3   OH254043   0.212   5.825  16.466 -0.3326  0.1402 -0.3021
10851TIP3    H154044   0.219   5.812  16.372  0.1777 -0.9805 -0.1253
10851TIP3    H254045   0.125   5.791  16.489  0.2467 -1.2403 -0.1190
10852TIP3   OH254046   3.251   0.148  11.875 -0.2005  0.1671 -0.6558
10852TIP3    H154047   3.167   0.190  11.896  0.0441  0.3216  0.0660
10852TIP3    H254048   3.248   0.133  11.781 -1.3146 -0.4373 -0.5399
10853TIP3   OH254049   1.134   4.635   2.203  0.0652 -0.1057 -0.2524
10853TIP3    H154050   1.225   4.620   2.228 -0.3029 -0.8348  0.7309
10853TIP3    H254051   1.097   4.548   2.194 -0.6251  0.1839 -0.2779
10854TIP3   OH254052   3.182   4.683  10.912  0.6086 -0.2647  0.0885
10854TIP3    H154053   3.257   4.632  10.942  0.7464  0.8048  1.7058
10854TIP3    H254054   3.108   4.647  10.959  0.7127  0.9823  1.2667
10855TIP3   OH254055   5.285   2.478  14.681  0.1813 -0.6055 -0.3622
10855TIP3    H154056   5.292   2.391  14.642  0.5565 -0.1740 -1.2693
10855TIP3    H254057   5.317   2.538  14.614 -0.4940  0.2816  0.0752
10856TIP3   OH254058   3.238   2.334   3.474 -0.0613 -0.0265  0.0704
10856TIP3    H154059   3.218   2.333   3.568  0.2832  1.1221  0.1740
10856TIP3    H254060   3.250   2.427   3.453  0.7065 -0.3327 -0.9350
10857TIP3   OH254061   5.650   2.369  15.241 -0.2168  0.1954  0.1360
10857TIP3    H154062   5.614   2.422  15.312 -0.3025  0.2685  0.0377
10857TIP3    H254063   5.597   2.391  15.165  1.3665  1.8974 -0.5373
10858TIP3   OH254064   0.101   2.982   5.570  0.2281  0.6951  0.0555
10858TIP3    H154065   0.151   3.062   5.585  0.7027  0.1884  1.3162
10858TIP3    H254066   0.012   3.013   5.552  0.7124  1.5501 -1.0261
10859TIP3   OH254067   1.239   2.954  11.177  0.0654  0.1158  0.6908
10859TIP3    H154068   1.168   3.012  11.150  1.6850  1.5533 -0.7068
10859TIP3    H254069   1.266   2.987  11.263  0.3689  0.8535  0.3167
10860TIP3   OH254070   1.327   0.854   0.005 -0.0424 -0.4107 -0.3468
10860TIP3    H154071   1.286   0.845   0.091  1.1812 -0.6643  0.2392
10860TIP3    H254072   1.306   0.772  -0.040 -2.4357  0.5528 -1.1163
10861TIP3   OH254073   0.961   2.281  14.997  0.2860 -0.0960 -0.1142
10861TIP3    H154074   0.875   2.278  15.040  0.5791  2.7065  0.9061
10861TIP3    H254075   1.004   2.200  15.023 -0.5936  0.2470  2.7369
10862TIP3   OH254076   3.114   0.323   1.469  0.1187  0.5481 -0.4694
10862TIP3    H154077   3.081   0.365   1.390 -0.7265 -0.5732 -0.7380
10862TIP3    H254078   3.155   0.394   1.519 -0.1391  1.4324 -1.4820
10863TIP3   OH254079   2.724   6.804   4.016 -0.4441 -0.2952  0.0947
10863TIP3    H154080   2.746   6.738   3.950 -2.0484  0.3076 -1.1021
10863TIP3    H254081   2.752   6.765   4.099  0.8951 -1.4096 -0.8473
10864TIP3   OH254082   0.693   1.125   4.564 -0.6505 -0.1000 -0.0361
10864TIP3    H154083   0.600   1.103   4.572 -0.7835  0.2486 -0.5918
10864TIP3    H254084   0.714   1.111   4.472  0.9456 -4.4100  0.7302
10865TIP3   OH254085   3.898   3.598   4.039  0.0841  0.3455  0.2460
10865TIP3    H154086   3.864   3.652   3.968 -0.5237 -0.7956 -0.3554
10865TIP3    H254087   3.941   3.525   3.995  0.5023  0.1053  1.0432
10866TIP3   OH254088   6.212   2.352   3.461  0.7350  0.1189  0.7113
10866TIP3    H154089   6.243   2.428   3.411 -0.1233  0.1718  0.2446
10866TIP3    H254090   6.163   2.388   3.534 -3.4266  0.1698 -1.7692
10867TIP3   OH254091   2.911   0.984   2.921 -0.2756 -0.3431 -0.1388
10867TIP3    H154092   2.890   0.894   2.946 -0.9136 -0.5823 -1.4547
10867TIP3    H254093   2.945   0.977   2.832 -2.1411  0.8897 -1.0139
10868TIP3   OH254094   0.906   1.463  17.122  0.2955 -0.5569 -0.8032
10868TIP3    H154095   0.879   1.431  17.036 -1.8620  0.1219 -0.4362
10868TIP3    H254096   0.889   1.390  17.182 -0.4417 -0.2589 -0.6311
10869TIP3   OH254097   5.278   3.707   4.507 -0.0084 -0.0465  0.1567
10869TIP3    H154098   5.222   3.649   4.558  0.7910 -0.1172  0.9714
10869TIP3    H254099   5.217   3.767   4.464 -1.1748 -3.1354 -3.0342
10870TIP3   OH254100   1.626   3.383  13.081  0.5145 -0.3839 -0.1329
10870TIP3    H154101   1.591   3.308  13.033 -0.7127  0.1803 -0.1600
10870TIP3    H254102   1.650   3.446  13.013  1.2432 -0.6176 -0.0983
10871TIP3   OH254103   3.762   0.047   4.522  0.5420 -0.5976  0.3106
10871TIP3    H154104   3.699  -0.017   4.488 -0.5746 -0.2111  1.6034
10871TIP3    H254105   3.717   0.089   4.595  1.9747  0.3359  0.6885
10872TIP3   OH254106   1.285   6.096   0.432 -0.7283 -0.3340  0.1786
10872TIP3    H154107   1.205   6.046   0.414  0.8023 -2.5609 -0.8094
10872TIP3    H254108   1.326   6.108   0.347  0.6638 -0.4289  0.8140
10873TIP3   OH254109   2.802   6.843   3.160 -0.7800 -0.5134  0.7179
10873TIP3    H154110   2.864   6.904   3.120 -0.7221 -0.5070  0.8181
10873TIP3    H254111   2.719   6.891   3.161 -0.5374 -0.0920  1.6257
10874TIP3   OH254112   5.179   6.708  16.473 -0.2671 -0.0526 -0.3192
10874TIP3    H154113   5.239   6.637  16.448  0.8435  0.0498  1.8515
10874TIP3    H254114   5.216   6.744  16.553 -3.3669 -0.1398  1.3213
10875TIP3   OH254115   0.797   0.546  14.848  0.0612 -0.3465  0.0167
10875TIP3    H154116   0.755   0.596  14.918 -0.5984  0.5714 -1.0035
10875TIP3    H254117   0.760   0.458  14.855 -1.4355  0.2208 -0.3296
10876TIP3   OH254118   4.883   2.757   0.359 -0.2579 -0.0766  0.3372
10876TIP3    H154119   4.822   2.683   0.359  0.4121 -0.6665  1.6141
10876TIP3    H254120   4.838   2.825   0.410 -0.4311  0.0171  0.0635
10877TIP3   OH254121   5.523   3.187  13.625 -0.0109  0.0221  0.1212
10877TIP3    H154122   5.591   3.121  13.632  0.5303  0.4905 -0.6455
10877TIP3    H254123   5.500   3.207  13.716 -0.6537 -1.6692  0.3739
10878TIP3   OH254124   3.960   0.154  14.067 -0.2675 -0.2043 -0.7619
10878TIP3    H154125   4.009   0.074  14.048 -0.2732 -0.3259 -0.2761
10878TIP3    H254126   3.874   0.140  14.026 -0.5963 -0.8444  0.1218
10879TIP3   OH254127   3.374   4.146   6.235 -0.3738  0.6897  0.5969
10879TIP3    H154128   3.469   4.160   6.234 -0.3762  1.0076  2.1962
10879TIP3    H254129   3.357   4.098   6.316 -1.4938 -0.2300 -0.1336
10880TIP3   OH254130   3.748   6.556  16.549 -0.0388 -0.1238  0.2436
10880TIP3    H154131   3.725   6.528  16.638  0.0897  0.0626  0.3371
10880TIP3    H254132   3.838   6.586  16.556 -0.0173 -0.1406  0.0404
10881TIP3   OH254133   1.730   1.406   1.967  0.4743  0.2697 -0.0353
10881TIP3    H154134   1.659   1.380   1.907  0.7091  0.2128 -0.2874
10881TIP3    H254135   1.807   1.414   1.911  0.3609  1.7659 -0.0140
10882TIP3   OH254136   5.018   5.159  14.271  0.5530 -0.5933 -0.4763
10882TIP3    H154137   5.088   5.100  14.298  1.3996  1.2704  1.7337
10882TIP3    H254138   4.941   5.129  14.321  0.2288 -1.4464 -1.4434
10883TIP3   OH254139   5.537   1.111  13.490 -0.1661 -0.3483 -0.0277
10883TIP3    H154140   5.500   1.130  13.404 -0.3949  1.0682  0.3666
10883TIP3    H254141   5.464   1.074  13.539 -1.0595  2.0830  0.6262
10884TIP3   OH254142   3.186   5.025  11.737  0.2396 -0.0433 -0.1581
10884TIP3    H154143   3.152   5.080  11.808 -0.6569 -0.1811 -0.4686
10884TIP3    H254144   3.265   4.985  11.773 -0.6418 -0.7535  1.0646
10885TIP3   OH254145   6.620   0.769   0.469  0.9280  0.0728  0.1319
10885TIP3    H154146   6.650   0.857   0.492 -2.2716  0.4087  4.1016
10885TIP3    H254147   6.561   0.782   0.395  0.4643  1.3156  0.6946
10886TIP3   OH254148   4.104   1.613  12.411 -0.4649 -0.0207 -0.1119
10886TIP3    H154149   4.019   1.601  12.369 -0.0151 -0.4383 -0.9191
10886TIP3    H254150   4.149   1.530  12.400 -0.0653  0.0912  0.5967
10887TIP3   OH254151   4.051   1.185  11.973 -0.0739  0.0763  0.3656
10887TIP3    H154152   4.108   1.113  11.944 -1.6320 -0.6340 -1.1295
10887TIP3    H254153   4.092   1.264  11.938  0.6567 -0.2860  0.3865
10888TIP3   OH254154   1.802   4.250   3.097 -0.2376 -0.0303  0.1480
10888TIP3    H154155   1.805   4.318   3.164 -0.1148 -0.6702  0.8022
10888TIP3    H254156   1.726   4.273   3.043  0.7577  1.5363 -0.6418
10889TIP3   OH254157   3.253   0.453   2.090 -0.1067 -0.5965 -0.5461
10889TIP3    H154158   3.252   0.396   2.013 -2.9827  0.7409 -1.6634
10889TIP3    H254159   3.202   0.405   2.155  2.0694 -1.5908  0.5131
10890TIP3   OH254160   3.242   2.233   4.384  0.0770  0.2762  0.2960
10890TIP3    H154161   3.205   2.188   4.307 -0.2235  1.7516 -0.4620
10890TIP3    H254162   3.327   2.192   4.397 -1.4120 -2.7179  1.6382
10891TIP3   OH254163   4.326   5.011  11.780  0.5276 -0.1385 -0.3410
10891TIP3    H154164   4.360   4.987  11.866  0.1295  0.3851 -0.0319
10891TIP3    H254165   4.334   4.931  11.728  2.9563  0.1513 -0.5258
10892TIP3   OH254166   6.362   0.426  14.029 -0.3893 -0.0414 -0.2174
10892TIP3    H154167   6.440   0.378  14.004 -1.7491 -2.1753 -0.6257
10892TIP3    H254168   6.303   0.417  13.954 -0.5479  2.7925 -0.5481
10893TIP3   OH254169   2.927   6.298  13.792  0.1090  0.3095  0.0372
10893TIP3    H154170   3.015   6.265  13.809  0.4036  1.2169  0.3683
10893TIP3    H254171   2.883   6.227  13.747  1.8288  0.6991 -2.5174
10894TIP3   OH254172   5.153   2.988   3.908  0.0526 -0.2071 -0.1838
10894TIP3    H154173   5.185   2.901   3.886  0.5416  0.4047 -2.0266
10894TIP3    H254174   5.227   3.031   3.951  0.0323 -0.4459  0.0976
10895TIP3   OH254175   4.554   4.210   4.270 -1.0590 -0.6051 -0.1100
10895TIP3    H154176   4.572   4.117   4.284  0.1729 -0.4813 -0.7651
10895TIP3    H254177   4.540   4.245   4.358  3.5323 -0.4250  0.8098
10896TIP3   OH254178   1.221   6.302   5.773 -0.1333 -0.3257 -0.5404
10896TIP3    H154179   1.286   6.246   5.729 -1.0137 -0.7994 -1.2601
10896TIP3    H254180   1.139   6.254   5.765 -0.1397 -1.0293  2.7115
10897TIP3   OH254181   2.371   3.561   6.334 -0.4862 -0.1536  0.1089
10897TIP3    H154182   2.338   3.626   6.396 -0.3131 -1.8910  2.1480
10897TIP3    H254183   2.430   3.506   6.386  2.2258  0.1581 -2.3467
10898TIP3   OH254184   1.842   0.734  10.881  0.0731  0.4492  0.1702
10898TIP3    H154185   1.849   0.829  10.870  0.2477  0.2784 -1.5183
10898TIP3    H254186   1.908   0.712  10.946  2.4168  1.1301 -1.8218
10899TIP3   OH254187   3.234   1.064   4.073 -0.0025  0.1196  0.0842
10899TIP3    H154188   3.221   1.116   3.993 -0.7662 -0.7701 -0.3981
10899TIP3    H254189   3.153   1.014   4.082  1.0031 -1.5869  0.0591
10900TIP3   OH254190   5.985   3.411  12.846 -0.5297  0.2343 -0.1091
10900TIP3    H154191   5.947   3.427  12.932  0.1727 -2.2319  0.7534
10900TIP3    H254192   6.016   3.321  12.850 -0.3824  0.0546 -2.9323
10901TIP3   OH254193   0.234   5.966  14.945  0.0117  0.4057  0.2693
10901TIP3    H154194   0.310   5.933  14.898  0.2437  0.6316  0.4850
10901TIP3    H254195   0.218   5.902  15.014 -1.4419 -0.9152 -1.1977
10902TIP3   OH254196   1.007   6.175   2.952  0.4984 -0.2307 -0.6467
10902TIP3    H154197   1.031   6.084   2.936  1.0743 -0.0344 -0.9563
10902TIP3    H254198   1.091   6.217   2.974  0.1908  0.1602 -0.2103
10903TIP3   OH254199   5.663   0.300  13.032  0.1887  0.3854  0.0998
10903TIP3    H154200   5.585   0.310  13.087  1.1086 -0.4286  1.6171
10903TIP3    H254201   5.652   0.367  12.963 -0.9159  1.5814  1.3644
10904TIP3   OH254202   3.944   0.078  11.141 -0.4895 -0.1476  0.1133
10904TIP3    H154203   3.960   0.082  11.047  0.8057 -1.1681  0.2632
10904TIP3    H254204   3.944   0.170  11.169  0.8585  0.1092 -0.6325
10905TIP3   OH254205   2.648   4.031  15.216  0.1320 -0.0433  0.0082
10905TIP3    H154206   2.577   3.995  15.268  0.1064 -0.5357 -0.3571
10905TIP3    H254207   2.611   4.043  15.129  0.6353 -0.8146 -0.3248
10906TIP3   OH254208   4.995   1.074  16.534 -0.4048  0.6508 -0.9442
10906TIP3    H154209   5.028   1.151  16.579 -3.7516  0.0335  3.1946
10906TIP3    H254210   5.062   1.007  16.548  1.0386  1.8850 -1.6925
10907TIP3   OH254211   0.563   1.725  14.501 -0.0545  0.3874  0.0521
10907TIP3    H154212   0.605   1.811  14.501  0.8178  0.0013 -1.3574
10907TIP3    H254213   0.628   1.667  14.461 -0.8691 -0.8011  0.4190
10908TIP3   OH254214   0.102   6.111   1.386 -0.9045  0.4296  0.0492
10908TIP3    H154215   0.100   6.038   1.447 -1.2904 -0.0065 -0.4821
10908TIP3    H254216   0.059   6.183   1.433 -1.1073  0.1291  0.3243
10909TIP3   OH254217   4.337   4.349   2.312 -0.3257 -0.1740 -0.1307
10909TIP3    H154218   4.361   4.442   2.322  2.5615 -0.9441  1.0591
10909TIP3    H254219   4.409   4.312   2.260 -1.3747 -1.7842 -0.4754
10910TIP3   OH254220   1.189   0.956   0.595 -0.5626 -0.3773  0.2857
10910TIP3    H154221   1.112   0.899   0.587 -0.4328 -0.2909 -3.1503
10910TIP3    H254222   1.263   0.899   0.574 -0.1543  0.4124 -0.4721
10911TIP3   OH254223   5.878   0.792   5.586 -0.0667 -0.3335  0.2728
10911TIP3    H154224   5.787   0.768   5.604  0.5147 -1.0450  2.6351
10911TIP3    H254225   5.883   0.886   5.601 -0.9182  0.2328 -2.4765
10912TIP3   OH254226   3.732   4.905   0.513 -0.0136  0.1710  0.0168
10912TIP3    H154227   3.645   4.927   0.478  0.9222 -0.1800 -2.7441
10912TIP3    H254228   3.715   4.832   0.573 -1.5955 -0.3650 -0.9936
10913TIP3   OH254229   1.361   6.488   0.261 -0.0150 -0.4957  0.0341
10913TIP3    H154230   1.300   6.562   0.265  1.4984  0.8113 -0.1149
10913TIP3    H254231   1.365   6.455   0.351  1.2064  1.2437  0.6512
10914TIP3   OH254232   6.182   3.713  10.018 -0.5107 -0.1258  0.6192
10914TIP3    H154233   6.175   3.788  10.077  2.0026  0.2275  0.5640
10914TIP3    H254234   6.223   3.644  10.070  0.1630 -0.3703 -0.2086
10915TIP3   OH254235   0.259   5.681  13.430 -0.1970 -0.4495  0.4433
10915TIP3    H154236   0.317   5.647  13.362  1.1869  0.5558  1.0896
10915TIP3    H254237   0.189   5.616  13.435  1.1369 -1.9982  0.0101
10916TIP3   OH254238   1.345   4.539   3.319  0.1450  0.3013 -0.0016
10916TIP3    H154239   1.320   4.619   3.365 -2.8202  0.9785 -2.4707
10916TIP3    H254240   1.279   4.475   3.345  0.3559 -0.2490 -0.7843
10917TIP3   OH254241   2.636   4.203   1.329  0.3061 -0.1575  0.3761
10917TIP3    H154242   2.632   4.212   1.234 -1.2211 -1.8150  0.2372
10917TIP3    H254243   2.623   4.293   1.361  1.3856  0.5118 -0.9457
10918TIP3   OH254244   0.417   5.623  17.058 -0.2285  0.0344 -0.1626
10918TIP3    H154245   0.403   5.618  16.964 -0.3436  1.2965 -0.2373
10918TIP3    H254246   0.354   5.562  17.096 -0.4555 -0.1851 -0.8857
10919TIP3   OH254247   5.274   1.680  13.088 -0.1202 -0.0106  0.6975
10919TIP3    H154248   5.332   1.604  13.090 -0.0794 -0.0116 -0.0645
10919TIP3    H254249   5.322   1.748  13.136 -0.4617 -0.6603  1.9818
10920TIP3   OH254250   2.906   4.239   5.675  0.8204 -0.4955 -0.6849
10920TIP3    H154251   2.822   4.221   5.632  0.3784 -1.6030  0.5815
10920TIP3    H254252   2.884   4.296   5.748  1.0823 -1.1895 -0.0517
10921TIP3   OH254253   3.281   6.164  11.788  0.2689  0.3476 -0.6676
10921TIP3    H154254   3.280   6.221  11.712  0.7142  1.0438 -0.1593
10921TIP3    H254255   3.351   6.198  11.844  0.3325 -0.4953 -0.2069
10922TIP3   OH254256   5.340   4.271   5.865  0.0854  1.0541  0.1052
10922TIP3    H154257   5.273   4.211   5.835  0.1851  0.5676  0.8467
10922TIP3    H254258   5.358   4.327   5.789 -0.2156  0.3425 -0.4967
10923TIP3   OH254259   1.106   6.831   5.471  0.3554  0.1026 -0.2005
10923TIP3    H154260   1.090   6.923   5.451  2.0247  0.3932 -0.3223
10923TIP3    H254261   1.040   6.809   5.537 -1.0755  0.9235 -1.2898
10924TIP3   OH254262   3.648   1.407   6.458 -0.2199  0.0002 -0.2558
10924TIP3    H154263   3.739   1.400   6.487 -0.2421 -1.4360 -0.4768
10924TIP3    H254264   3.597   1.368   6.528 -0.7182  1.0830  0.0092
10925TIP3   OH254265   2.987   4.101  13.536 -0.3378  0.1903 -0.0022
10925TIP3    H154266   2.958   4.014  13.507 -0.5650 -0.0204  0.8492
10925TIP3    H254267   2.924   4.126  13.603  0.7429  0.2654  1.0095
10926TIP3   OH254268   0.313   4.472  15.485 -0.2833 -0.2300  0.3436
10926TIP3    H154269   0.340   4.432  15.568  0.1772  1.8501  1.2649
10926TIP3    H254270   0.393   4.476  15.433  0.2987  1.6905  1.2606
10927TIP3   OH254271   2.964   0.618  13.914  0.6945  0.1254 -0.1965
10927TIP3    H154272   2.952   0.526  13.890  1.8796  0.2724 -1.4802
10927TIP3    H254273   2.979   0.616  14.008  1.3558 -1.0811 -0.3029
10928TIP3   OH254274   3.493   3.450  14.181  0.3079 -0.4474 -0.1465
10928TIP3    H154275   3.539   3.421  14.102  2.1358  0.9494  0.3548
10928TIP3    H254276   3.555   3.437  14.252 -0.9996 -0.8597  0.9764
10929TIP3   OH254277   2.018   0.595  14.773  0.3571 -0.1799 -1.1072
10929TIP3    H154278   1.997   0.671  14.827 -0.9543 -0.7954 -0.7134
10929TIP3    H254279   1.981   0.614  14.687  2.0388  0.5951 -1.7088
10930TIP3   OH254280   0.015   0.581   4.562 -0.0521  0.3480 -0.3143
10930TIP3    H154281   0.062   0.567   4.480  1.2733 -1.6611  0.7150
10930TIP3    H254282  -0.064   0.529   4.554 -1.5877  2.6790 -1.5089
10931TIP3   OH254283   2.877   1.346  13.013  0.3867  0.0266  0.1842
10931TIP3    H154284   2.934   1.280  13.053  1.3421  0.0205 -1.0992
10931TIP3    H254285   2.917   1.362  12.927  0.4247  2.5761  0.6104
10932TIP3   OH254286   6.434   4.424  14.650 -0.4149 -0.2065  0.2779
10932TIP3    H154287   6.363   4.434  14.587  0.3284  0.5888 -0.4818
10932TIP3    H254288   6.510   4.465  14.607  0.0810  0.5298  1.7497
10933TIP3   OH254289   1.327   2.947  15.653 -0.1234 -0.9804  0.1523
10933TIP3    H154290   1.251   3.003  15.668  0.6674  0.0466  0.4611
10933TIP3    H254291   1.310   2.869  15.705 -0.8614 -0.6597  0.4084
10934TIP3   OH254292   3.528   1.740  11.427 -0.0437 -0.4393  0.0152
10934TIP3    H154293   3.578   1.666  11.391 -0.9776 -1.3644  0.5689
10934TIP3    H254294   3.575   1.764  11.507  0.7088  0.0988 -0.5700
10935TIP3   OH254295   1.935   3.398  13.971 -0.0947 -0.0435 -0.7267
10935TIP3    H154296   1.883   3.456  14.026 -0.9143 -0.2356 -1.2923
10935TIP3    H254297   2.026   3.417  13.996 -0.4619 -1.0227  1.6219
10936TIP3   OH254298   1.007   4.871  13.451 -0.2691  0.1176  0.4143
10936TIP3    H154299   0.923   4.891  13.491 -1.1245  0.7357 -1.5642
10936TIP3    H254300   0.987   4.806  13.384  1.2710 -1.6390  1.5507
10937TIP3   OH254301   6.730   1.309  11.825 -0.1597 -0.1558  0.0172
10937TIP3    H154302   6.806   1.251  11.824 -0.7093 -0.8973 -0.0580
10937TIP3    H254303   6.766   1.397  11.827  0.7363 -0.4994  2.4863
10938TIP3   OH254304   2.779   2.579   3.397 -0.1270 -0.6428 -0.5881
10938TIP3    H154305   2.837   2.543   3.463 -1.3493 -0.9066  0.3906
10938TIP3    H254306   2.818   2.554   3.313  1.7205  0.1225  0.0007
10939TIP3   OH254307   6.798   1.179  15.535  0.1010 -0.7682  0.2984
10939TIP3    H154308   6.840   1.259  15.567  1.9055 -1.4695 -0.1942
10939TIP3    H254309   6.834   1.110  15.590 -2.3214 -1.1828  1.5026
10940TIP3   OH254310   0.825   2.043   0.206  0.1409  0.2495 -0.1782
10940TIP3    H154311   0.784   2.127   0.185 -1.7395 -1.0817 -2.4279
10940TIP3    H254312   0.879   2.023   0.129  1.1357 -0.2756  0.6430
10941TIP3   OH254313   3.135   4.855   5.696 -0.3505  0.0835 -0.3735
10941TIP3    H154314   3.202   4.921   5.682  0.1377  0.2205  2.0613
10941TIP3    H254315   3.178   4.789   5.752 -2.1998  0.2141  1.3197
10942TIP3   OH254316   4.503   2.672   0.186  0.3360 -0.2799 -0.3389
10942TIP3    H154317   4.542   2.708   0.266  4.2948 -0.5213 -1.9340
10942TIP3    H254318   4.451   2.597   0.217  1.7836 -0.4220  2.0430
10943TIP3   OH254319   1.889   4.495   0.162  0.7302 -1.1353 -0.1478
10943TIP3    H154320   1.917   4.584   0.144  1.1717 -1.0460  0.9137
10943TIP3    H254321   1.798   4.492   0.131  0.1780  0.1606  1.2521
10944TIP3   OH254322   3.466   5.105  11.843  0.1049 -0.3458  0.5248
10944TIP3    H154323   3.554   5.102  11.806 -0.4332 -0.6990 -0.7635
10944TIP3    H254324   3.480   5.107  11.938  1.4968 -0.0373  0.3270
10945TIP3   OH254325   2.291   0.481  13.229 -0.1159  0.1912  0.3421
10945TIP3    H154326   2.378   0.458  13.195 -0.3325 -0.2255  0.0588
10945TIP3    H254327   2.308   0.520  13.315  0.5126  1.9884 -0.5498
10946TIP3   OH254328   4.621   2.849   2.316  0.7073 -0.0515  0.0264
10946TIP3    H154329   4.532   2.841   2.281  0.2331 -1.2486  1.3960
10946TIP3    H254330   4.636   2.767   2.362  2.2805  0.4043  0.3816
10947TIP3   OH254331   6.301   2.706   1.897  0.3663 -1.5046 -0.5069
10947TIP3    H154332   6.356   2.703   1.819 -0.2117 -0.5497 -0.9773
10947TIP3    H254333   6.336   2.639   1.955  2.1435 -0.7968 -0.7155
10948TIP3   OH254334   5.486   1.056  16.890 -0.3866 -0.4995  0.0001
10948TIP3    H154335   5.550   1.037  16.958  1.3955 -1.3589 -1.8323
10948TIP3    H254336   5.496   0.987  16.825 -2.2611  0.0808 -1.0236
10949TIP3   OH254337   5.511   2.394   3.574 -0.2182 -0.6150 -0.7963
10949TIP3    H154338   5.582   2.383   3.638 -1.3011 -0.4552  0.4870
10949TIP3    H254339   5.510   2.487   3.554 -1.6783 -0.1056  1.2307
10950TIP3   OH254340   1.568   4.871  11.867 -0.1588  0.1611 -0.3471
10950TIP3    H154341   1.565   4.787  11.821  0.1302  0.5479 -1.1051
10950TIP3    H254342   1.479   4.906  11.859 -0.9882 -1.1711  2.1612
10951TIP3   OH254343   4.347   4.460   2.721  0.1079 -0.1431  0.4217
10951TIP3    H154344   4.420   4.516   2.692 -0.0994 -0.2441 -0.2971
10951TIP3    H254345   4.315   4.419   2.641 -1.5611  0.8564  0.5364
10952TIP3   OH254346   5.744   6.350  16.906  0.2127  0.1102  0.0643
10952TIP3    H154347   5.773   6.342  16.815  0.7604 -1.5003  0.3373
10952TIP3    H254348   5.821   6.385  16.952  0.6256 -0.9276  0.2070
10953TIP3   OH254349   3.623   1.140  16.944 -0.5521 -0.3064 -0.0465
10953TIP3    H154350   3.551   1.179  16.895 -1.5142 -1.7098  0.1925
10953TIP3    H254351   3.594   1.143  17.035 -0.5574 -1.3246  0.0015
10954TIP3   OH254352   4.361   5.567  15.096  0.4119 -0.1562  0.2361
10954TIP3    H154353   4.376   5.659  15.074  1.7509 -0.4203 -0.0664
10954TIP3    H254354   4.272   5.549  15.066  0.4431  0.8086 -0.4803
10955TIP3   OH254355   1.686   0.459  16.892 -0.3211 -0.8103  0.2511
10955TIP3    H154356   1.734   0.448  16.811  0.7207 -2.8728  1.0678
10955TIP3    H254357   1.594   0.447  16.868  0.0519 -2.3361 -0.5125
10956TIP3   OH254358   6.838   4.229  14.924  0.2460 -0.1290  0.1044
10956TIP3    H154359   6.830   4.288  14.999  2.4648  0.7053 -0.2349
10956TIP3    H254360   6.908   4.168  14.949  1.3602  0.4691 -1.4294
10957TIP3   OH254361   6.348   0.616  14.849  0.3715  0.0612  0.0223
10957TIP3    H154362   6.440   0.623  14.875  1.1807 -1.4614 -2.1494
10957TIP3    H254363   6.350   0.563  14.770 -2.1523  2.1517 -1.5694
10958TIP3   OH254364   4.189   2.000  15.306 -0.3506 -0.2811  0.1765
10958TIP3    H154365   4.216   2.060  15.236  2.8706  1.1579  2.3995
10958TIP3    H254366   4.130   1.938  15.263  1.4016  0.4901 -3.8165
10959TIP3   OH254367   0.224   6.428  11.029 -0.0724  0.1948  0.2161
10959TIP3    H154368   0.316   6.424  11.001  0.5810  2.2079  1.7645
10959TIP3    H254369   0.204   6.522  11.026 -2.0095 -0.1926  0.2126
10960TIP3   OH254370   5.981   5.499   3.656  0.2067 -0.7063 -0.5842
10960TIP3    H154371   5.930   5.514   3.736 -0.0784 -0.6589 -0.7703
10960TIP3    H254372   6.069   5.528   3.678 -0.2978  1.2594 -0.8893
10961TIP3   OH254373   0.811   3.649  11.855  0.7137  0.3915 -0.1143
10961TIP3    H154374   0.728   3.604  11.869  0.9849 -0.2327 -0.4208
10961TIP3    H254375   0.807   3.727  11.909 -0.7201  1.2312 -1.3689
10962TIP3   OH254376   5.094   4.475  15.162 -0.5189 -0.3865 -0.5128
10962TIP3    H154377   5.145   4.402  15.197  1.7003  1.2300 -0.1644
10962TIP3    H254378   5.057   4.442  15.080  2.2084 -1.3146 -1.4875
10963TIP3   OH254379   2.865   3.829  16.112  0.4014 -0.0419  0.4823
10963TIP3    H154380   2.770   3.819  16.106  0.1686  1.6765  0.6584
10963TIP3    H254381   2.886   3.893  16.043  1.7020 -1.7496 -0.7909
10964TIP3   OH254382   0.676   4.070  16.604 -0.1507  0.4989  0.4730
10964TIP3    H154383   0.665   4.105  16.515  0.6252  1.1028  0.5992
10964TIP3    H254384   0.640   3.982  16.600  0.5084  0.2519 -0.6365
10965TIP3   OH254385   6.654   2.876  14.612  0.9835 -0.3833 -0.2641
10965TIP3    H154386   6.674   2.800  14.667  2.1057 -0.0349 -0.1537
10965TIP3    H254387   6.593   2.928  14.664  0.0891 -1.2713 -0.4040
10966TIP3   OH254388   3.027   1.519  11.907 -0.1941 -0.0580  0.1679
10966TIP3    H154389   2.994   1.487  11.823  1.4863 -0.2164 -0.4695
10966TIP3    H254390   3.051   1.441  11.956 -0.7639  0.0520  0.6361
10967TIP3   OH254391   6.414   0.822   5.276  0.2166  0.4093 -0.0546
10967TIP3    H154392   6.452   0.821   5.364  3.3579  0.6041 -1.3051
10967TIP3    H254393   6.348   0.753   5.278  1.9013 -1.2624  1.7728
10968TIP3   OH254394   1.352   4.778   2.694 -1.0357 -0.2313 -0.1849
10968TIP3    H154395   1.350   4.869   2.665 -1.7221  0.3208  1.4861
10968TIP3    H254396   1.393   4.731   2.621  1.4954  1.7433 -0.1867
10969TIP3   OH254397   6.525   2.206   1.302 -0.1139 -0.0957 -0.2211
10969TIP3    H154398   6.462   2.260   1.254  0.0717 -0.9900 -1.5113
10969TIP3    H254399   6.542   2.255   1.383 -2.7647  0.0049  0.3761
10970TIP3   OH254400   5.198   6.743   0.975  0.4426  0.1481 -0.6483
10970TIP3    H154401   5.243   6.824   1.001  0.0966 -0.3476  1.6850
10970TIP3    H254402   5.269   6.685   0.948  0.7132  1.1337 -2.1784
10971TIP3   OH254403   3.218   6.720   4.928 -0.0141 -0.3223 -0.2620
10971TIP3    H154404   3.171   6.727   4.845 -0.6583 -1.9069 -0.0644
10971TIP3    H254405   3.264   6.637   4.922  0.6197 -0.0489  0.6518
10972TIP3   OH254406   1.526   4.376  14.887  0.3361 -0.5130  0.5781
10972TIP3    H154407   1.467   4.410  14.954 -0.4211 -0.3267 -0.1503
10972TIP3    H254408   1.502   4.283  14.879  0.8860 -0.7005  1.0221
10973TIP3   OH254409   3.088   1.690   1.885  0.3592 -0.5329 -0.7629
10973TIP3    H154410   3.037   1.700   1.965 -1.1415 -0.8428 -1.6519
10973TIP3    H254411   3.127   1.603   1.892  0.0846 -0.6318 -0.4524
10974TIP3   OH254412   0.519   2.766   3.717 -0.3486  0.2957  0.1389
10974TIP3    H154413   0.555   2.760   3.806  1.9155  1.6391 -0.6057
10974TIP3    H254414   0.568   2.837   3.676 -2.8423  1.1647 -1.5465
10975TIP3   OH254415   2.301   6.410   4.169  0.2483  0.4551 -0.1255
10975TIP3    H154416   2.332   6.452   4.089  2.2453 -0.0186  0.3489
10975TIP3    H254417   2.299   6.480   4.235 -3.1151  1.2738 -0.8827
10976TIP3   OH254418   3.755   4.358  11.800 -0.6418 -0.1390  0.4096
10976TIP3    H154419   3.682   4.302  11.828 -2.4670  1.5300 -0.7020
10976TIP3    H254420   3.716   4.445  11.793  1.9150  1.1689  1.3928
10977TIP3   OH254421   4.834   2.756   4.421  0.4451 -0.0435 -0.2922
10977TIP3    H154422   4.849   2.829   4.481 -0.8779  0.4754 -0.5586
10977TIP3    H254423   4.807   2.798   4.339 -1.7202 -0.8442 -0.0405
10978TIP3   OH254424   4.734   6.814  10.876  0.1337 -0.1670  0.1657
10978TIP3    H154425   4.822   6.831  10.910  0.2494  1.2165 -0.7371
10978TIP3    H254426   4.724   6.877  10.804 -1.3868 -0.6815 -0.1016
10979TIP3   OH254427   6.707   4.484   0.210  0.1027  0.4601  0.4279
10979TIP3    H154428   6.733   4.517   0.296  1.9014  1.2735 -0.3885
10979TIP3    H254429   6.751   4.399   0.202 -0.9206 -0.1184  0.7080
10980TIP3   OH254430   5.168   5.440   0.692  0.4871 -0.2852 -0.3862
10980TIP3    H154431   5.254   5.422   0.730  1.5654 -0.2906 -2.6578
10980TIP3    H254432   5.179   5.424   0.599 -1.2605  2.2564 -1.1567
10981TIP3   OH254433   1.019   6.194  14.601  0.5249 -0.1519 -1.4348
10981TIP3    H154434   1.054   6.186  14.690 -0.3940  1.4966 -0.8936
10981TIP3    H254435   0.950   6.127  14.596 -1.0579  1.2985 -0.0483
10982TIP3   OH254436   3.803   5.771  15.513 -0.2416 -0.4774 -0.0553
10982TIP3    H154437   3.861   5.776  15.589 -0.1813  0.6959 -0.1563
10982TIP3    H254438   3.861   5.753  15.439 -0.2154 -0.9709  0.0873
10983TIP3   OH254439   3.953   0.687  11.838 -0.2970  0.1599  0.1729
10983TIP3    H154440   3.905   0.682  11.921 -0.7512  0.0243 -0.0921
10983TIP3    H254441   3.943   0.599  11.800  1.1483 -0.2457  0.6474
10984TIP3   OH254442   1.101   0.952  13.394  0.0079 -0.5235  0.0806
10984TIP3    H154443   1.164   0.954  13.466 -0.7503 -0.0050  0.7442
10984TIP3    H254444   1.112   0.865  13.356  0.7449 -0.6370  0.5280
10985TIP3   OH254445   5.938   6.328   3.948  0.1369 -0.3885  0.0044
10985TIP3    H154446   5.938   6.422   3.931  0.6477 -0.0327  1.7651
10985TIP3    H254447   6.022   6.311   3.992  0.4003 -1.8168 -0.9899
10986TIP3   OH254448   4.552   1.709  13.785  0.7970 -0.1454 -0.3378
10986TIP3    H154449   4.508   1.681  13.704  0.3604 -1.0174  0.1825
10986TIP3    H254450   4.586   1.796  13.765 -0.5349  0.2494 -1.0014
10987TIP3   OH254451   6.658   2.044   2.976  0.2617 -0.4093  0.2571
10987TIP3    H154452   6.658   2.118   2.916 -2.9209 -1.0944 -0.7731
10987TIP3    H254453   6.634   2.082   3.061  0.9044  0.0295  0.2486
10988TIP3   OH254454   0.935   0.292  15.539  0.5206  0.2156  0.6123
10988TIP3    H154455   0.975   0.211  15.507  0.2160  0.0579  0.6315
10988TIP3    H254456   0.930   0.348  15.461 -3.0847 -1.2776 -0.4438
10989TIP3   OH254457   5.216   2.928   0.511  0.1367  0.1952 -0.5988
10989TIP3    H154458   5.264   3.004   0.544 -0.3710  0.3443 -0.2047
10989TIP3    H254459   5.282   2.878   0.463  1.7415 -1.6516  3.1223
10990TIP3   OH254460   6.594   4.376   5.365 -0.1647  0.2630  0.0631
10990TIP3    H154461   6.658   4.447   5.373  0.2552  0.0087 -0.8319
10990TIP3    H254462   6.601   4.327   5.447  0.2585  0.6735  0.2740
10991TIP3   OH254463   3.900   2.836  14.130  0.1086 -0.5579  0.0034
10991TIP3    H154464   3.924   2.919  14.172 -0.3894  0.0309 -0.8446
10991TIP3    H254465   3.808   2.823  14.155 -0.4685  0.2531 -1.5917
10992TIP3   OH254466   0.592   1.024  15.429 -0.2664 -0.0051  0.1940
10992TIP3    H154467   0.673   1.039  15.380  0.3660 -0.8863  0.9434
10992TIP3    H254468   0.562   0.938  15.399 -0.0773 -0.3800  1.0528
10993TIP3   OH254469   4.693   4.501   2.340  0.1941  0.3646 -0.7715
10993TIP3    H154470   4.737   4.580   2.372 -0.2862  0.9443 -1.5112
10993TIP3    H254471   4.663   4.457   2.419  1.0039  0.5948 -0.3193
10994TIP3   OH254472   1.321   5.228  14.791  0.3285  0.1969 -0.6765
10994TIP3    H154473   1.331   5.233  14.886  0.0154 -1.3540 -0.5460
10994TIP3    H254474   1.226   5.231  14.777  0.4093  1.9524 -1.0663
10995TIP3   OH254475   3.823   0.578   6.500  0.2870  0.2739 -1.0185
10995TIP3    H154476   3.893   0.643   6.506 -0.0549  0.7611 -1.9632
10995TIP3    H254477   3.749   0.627   6.463 -0.1677 -0.5106 -1.1761
10996TIP3   OH254478   3.501   3.724   1.927 -0.7357  0.0892 -0.2057
10996TIP3    H154479   3.424   3.671   1.908 -2.4109  2.4450 -0.4425
10996TIP3    H254480   3.490   3.803   1.873  0.5930  1.5586  1.5243
10997TIP3   OH254481   4.722   6.175  16.510 -0.4349  0.4532  0.4967
10997TIP3    H154482   4.703   6.231  16.586 -0.1623  2.6724 -0.9730
10997TIP3    H254483   4.642   6.179  16.457  0.0801  0.5605 -0.2816
10998TIP3   OH254484   4.521   4.944  13.405 -0.3364  0.2500 -0.1390
10998TIP3    H154485   4.524   4.939  13.310 -0.8438 -3.1545 -0.1004
10998TIP3    H254486   4.430   4.923  13.427 -0.4526  1.8224  1.1449
10999TIP3   OH254487   2.600   3.833  16.098 -0.6316  0.2100  0.3568
10999TIP3    H154488   2.534   3.899  16.078  0.8074  0.9712 -2.2247
10999TIP3    H254489   2.571   3.755  16.051 -1.0168 -0.2958  1.3848
11000TIP3   OH254490   5.352   5.994  12.170  0.2029 -0.8640  0.0612
11000TIP3    H154491   5.434   5.971  12.125  0.8671 -0.7397  1.1669
11000TIP3    H254492   5.381   6.033  12.252 -0.9034  2.0529 -0.8115
11001TIP3   OH254493   2.421   1.252   5.406  0.3337 -0.2889  0.6449
11001TIP3    H154494   2.483   1.180   5.409  2.4621  1.3426 -1.4068
11001TIP3    H254495   2.463   1.323   5.455  0.1768  0.8816 -0.8556
11002TIP3   OH254496   0.943   5.166  12.609  0.4137 -0.5580 -0.0889
11002TIP3    H154497   0.872   5.213  12.652  0.7303  1.1505 -1.3319
11002TIP3    H254498   0.920   5.168  12.516  1.8341 -0.3996 -0.4554
11003TIP3   OH254499   1.181   2.673   3.759 -0.1944  0.0180  0.2125
11003TIP3    H154500   1.271   2.690   3.787  0.3872 -0.2352 -1.4298
11003TIP3    H254501   1.176   2.578   3.750 -0.5256  0.0560 -0.0470
11004TIP3   OH254502   4.517   4.403  16.193 -0.2675 -0.2826 -0.4151
11004TIP3    H154503   4.527   4.450  16.275  0.0814 -0.1915 -0.5102
11004TIP3    H254504   4.601   4.413  16.148 -1.2572  1.9155 -1.9619
11005TIP3   OH254505   6.830   4.184   3.680  0.4275 -0.4709  0.2408
11005TIP3    H154506   6.764   4.153   3.618  0.4150 -2.6822  1.2748
11005TIP3    H254507   6.912   4.178   3.632  0.1135  0.6972 -0.4972
11006TIP3   OH254508   2.711   3.381  12.252 -0.1581  0.3074 -0.5903
11006TIP3    H154509   2.638   3.332  12.213  0.2344  0.3307 -1.3823
11006TIP3    H254510   2.726   3.338  12.336 -0.9839  0.2054 -0.4863
11007TIP3   OH254511   5.423   0.153   0.001  0.5825  0.1068  0.1027
11007TIP3    H154512   5.363   0.225   0.017 -0.5819 -1.4363  3.5550
11007TIP3    H254513   5.468   0.140   0.084  0.7852 -3.1037 -0.3859
11008TIP3   OH254514   4.439   1.490   4.614  0.0532 -0.3695  0.1160
11008TIP3    H154515   4.347   1.474   4.594 -0.0738  0.0253  0.3687
11008TIP3    H254516   4.477   1.403   4.626  0.4205 -0.7675 -3.0366
11009TIP3   OH254517   0.208   2.463  12.656  0.1621 -0.2612  0.3963
11009TIP3    H154518   0.251   2.435  12.575  0.0496 -1.0934  0.6200
11009TIP3    H254519   0.167   2.384  12.690  1.5104 -0.2792  2.0944
11010TIP3   OH254520   5.276   0.284   4.686 -0.4208  0.4730 -0.0920
11010TIP3    H154521   5.262   0.202   4.733  0.4890  0.1308 -0.3893
11010TIP3    H254522   5.220   0.348   4.730 -1.7773 -0.4835 -0.3635
11011TIP3   OH254523   3.186   3.259   3.159 -0.3603  0.4523 -1.0295
11011TIP3    H154524   3.111   3.202   3.147 -1.3955  1.8498 -1.4033
11011TIP3    H254525   3.173   3.300   3.245 -0.1989  0.9279 -1.2233
11012TIP3   OH254526   2.447   1.813  14.620  0.6574  0.2315  0.2069
11012TIP3    H154527   2.480   1.894  14.581  0.0985  1.0811  1.4462
11012TIP3    H254528   2.369   1.791  14.568  0.3029  0.9760  0.4222
11013TIP3   OH254529   3.879   4.954  13.497  0.2262 -0.2005 -0.3426
11013TIP3    H154530   3.831   4.878  13.465 -1.4101 -0.4293  2.3754
11013TIP3    H254531   3.814   5.007  13.542  2.0184  0.9611  1.0486
11014TIP3   OH254532   1.702   1.101  13.038  0.2351 -0.2421  0.1301
11014TIP3    H154533   1.697   1.173  12.975  0.3717 -1.0971 -0.8920
11014TIP3    H254534   1.652   1.132  13.114  1.1682  1.3398  0.1519
11015TIP3   OH254535   1.632   0.061  12.033  0.0207  0.2846 -0.4873
11015TIP3    H154536   1.594  -0.026  12.020  1.6702 -0.5594  0.1458
11015TIP3    H254537   1.600   0.088  12.119  1.4711 -0.8075  0.4461
11016TIP3   OH254538   5.398   3.089  15.185  0.2287 -0.2563  0.2030
11016TIP3    H154539   5.347   3.117  15.261 -0.5094 -0.8902 -0.0452
11016TIP3    H254540   5.347   3.120  15.110  1.1446  0.7015 -0.0484
11017TIP3   OH254541   0.817   2.743   5.328 -0.3397 -0.5658  0.4077
11017TIP3    H154542   0.783   2.788   5.250 -1.0537 -1.0559  0.4220
11017TIP3    H254543   0.857   2.663   5.294  0.3824 -0.2192  0.4377
11018TIP3   OH254544   3.518   1.832   4.564  0.6144  0.1936  0.1935
11018TIP3    H154545   3.440   1.813   4.512  0.3517  0.1052  0.6112
11018TIP3    H254546   3.520   1.761   4.629  0.4598  0.7697  0.8354
11019TIP3   OH254547   6.191   5.642   4.640 -0.1225  0.1654  0.1879
11019TIP3    H154548   6.157   5.689   4.716 -0.3083 -0.7938  0.7204
11019TIP3    H254549   6.237   5.708   4.588  1.3449  0.5692  1.9100
11020TIP3   OH254550   1.161   0.520   2.152 -0.2919  0.0392  0.0889
11020TIP3    H154551   1.106   0.449   2.118 -0.7500  1.0138 -1.3007
11020TIP3    H254552   1.250   0.495   2.128 -0.5525  0.4264 -1.3684
11021TIP3   OH254553   5.254   5.505  16.876 -0.4287  0.1183  0.2534
11021TIP3    H154554   5.272   5.440  16.944 -0.0784  0.6940  0.7246
11021TIP3    H254555   5.227   5.583  16.924  1.1691  0.9711 -0.1629
11022TIP3   OH254556   3.153   4.679  13.343  0.1080  0.7931 -0.5788
11022TIP3    H154557   3.098   4.621  13.396  1.2015  1.6337  1.5475
11022TIP3    H254558   3.095   4.708  13.272 -1.7832  0.5558  0.7963
11023TIP3   OH254559   5.862   1.826   0.661 -0.4761  0.1354  0.1482
11023TIP3    H154560   5.822   1.794   0.742  0.4943  0.9631  0.9826
11023TIP3    H254561   5.930   1.887   0.690 -0.5980  1.0262 -1.3079
11024TIP3   OH254562   2.858   6.820   4.907  0.1976  0.2881  0.1993
11024TIP3    H154563   2.886   6.912   4.912 -0.2365  0.4673 -0.5672
11024TIP3    H254564   2.925   6.777   4.853 -0.2096  0.4044 -0.4053
11025TIP3   OH254565   0.243   5.379  14.131  0.3559  0.2022  0.3598
11025TIP3    H154566   0.279   5.338  14.053 -0.3467  1.2142 -0.5231
11025TIP3    H254567   0.241   5.309  14.196  0.1729 -0.8702 -0.7720
11026TIP3   OH254568   5.189   0.487   0.770  0.0120  0.0485  0.2749
11026TIP3    H154569   5.101   0.523   0.776 -0.1016  0.3717 -2.2329
11026TIP3    H254570   5.212   0.464   0.860 -2.1228  1.1145  1.1571
11027TIP3   OH254571   4.842   5.943  12.874  0.2719  0.0604  0.6009
11027TIP3    H154572   4.879   5.879  12.813 -0.6700  1.3133 -1.4098
11027TIP3    H254573   4.770   5.897  12.917  0.0102 -0.4387 -0.3407
11028TIP3   OH254574   1.429   5.246  14.471  0.0274  0.1826  0.0117
11028TIP3    H154575   1.494   5.177  14.465 -0.7354 -0.6390  0.8806
11028TIP3    H254576   1.455   5.296  14.549 -1.1603 -1.0425  1.2668
11029TIP3   OH254577   4.995   0.318   0.353  0.3470  0.0009 -0.1037
11029TIP3    H154578   5.066   0.282   0.406 -1.2366 -2.2797  0.5998
11029TIP3    H254579   5.040   0.356   0.277  2.4461  0.5954  1.3372
11030TIP3   OH254580   5.616   2.884   2.978 -0.2765 -0.0342  0.6013
11030TIP3    H154581   5.594   2.923   3.062  0.3732 -3.6083  2.6552
11030TIP3    H254582   5.708   2.858   2.987  0.1761  0.5328 -1.7249
11031TIP3   OH254583   2.718   3.151   5.414  0.0958 -0.6585  0.0523
11031TIP3    H154584   2.734   3.229   5.467 -3.9030 -0.5151  1.3818
11031TIP3    H254585   2.692   3.185   5.329 -0.5275 -0.5442  0.2807
11032TIP3   OH254586   0.341   5.530   3.855 -0.8308 -0.1260  0.4252
11032TIP3    H154587   0.285   5.487   3.789  0.3131 -2.4028  0.8232
11032TIP3    H254588   0.430   5.504   3.831 -0.2293  0.6881  1.6991
11033TIP3   OH254589   3.433   1.381   2.502  0.8042  0.6268 -0.0944
11033TIP3    H154590   3.502   1.369   2.567  0.2255  0.1369  0.4411
11033TIP3    H254591   3.422   1.294   2.463 -0.2307  0.4527  0.5640
11034TIP3   OH254592   2.969   2.788   4.950  0.3497  0.0869  0.1475
11034TIP3    H154593   2.904   2.724   4.975  1.8177 -1.8049 -0.6214
11034TIP3    H254594   3.028   2.795   5.025  0.7998 -0.3151 -0.1575
11035TIP3   OH254595   5.504   0.398   5.526 -0.0268 -0.4252  0.1229
11035TIP3    H154596   5.513   0.324   5.585 -1.7798 -0.6089  0.2088
11035TIP3    H254597   5.411   0.400   5.503  0.1392  1.2037 -0.5882
11036TIP3   OH254598   1.460   5.704   2.438 -0.2519  0.4541  0.3489
11036TIP3    H154599   1.403   5.744   2.373 -0.9012 -0.2422  0.4769
11036TIP3    H254600   1.548   5.732   2.413 -0.6545  1.6669  0.2480
11037TIP3   OH254601   1.717   0.913   1.301  0.0781  0.0728 -0.8430
11037TIP3    H154602   1.782   0.953   1.359  1.4772 -2.6058 -0.4159
11037TIP3    H254603   1.685   0.837   1.350 -2.0476  0.2575 -1.8302
11038TIP3   OH254604   6.694   1.822  15.086 -0.2284  0.0006 -0.2588
11038TIP3    H154605   6.743   1.891  15.130  1.9719 -1.3048 -0.5050
11038TIP3    H254606   6.702   1.746  15.143 -0.9068 -0.5935 -0.9305
11039TIP3   OH254607   5.721   4.761   5.066 -0.2465  0.1756  0.0053
11039TIP3    H154608   5.759   4.722   4.987 -0.0335 -0.7203  0.5334
11039TIP3    H254609   5.772   4.723   5.138 -1.2575  0.0031  0.6514
11040TIP3   OH254610   4.632   0.464   0.231 -0.1243  0.3850  0.3078
11040TIP3    H154611   4.623   0.529   0.162 -0.3320  0.1343  0.0957
11040TIP3    H254612   4.634   0.380   0.184 -2.0095  0.0722  0.7050
11041TIP3   OH254613   4.537   3.840   3.689 -0.1470  0.3757  0.0324
11041TIP3    H154614   4.582   3.913   3.647  2.8991 -1.3282 -0.0191
11041TIP3    H254615   4.493   3.878   3.765  1.5240  2.2563  0.1370
11042TIP3   OH254616   3.579   2.321  12.735  0.0391 -0.2816  0.3754
11042TIP3    H154617   3.652   2.303  12.676 -1.7209 -0.6415 -1.8502
11042TIP3    H254618   3.544   2.405  12.705  0.0371  0.3162  1.9595
11043TIP3   OH254619   2.365   1.183  14.912  0.4081  0.6132  0.5264
11043TIP3    H154620   2.402   1.258  14.960  0.0450 -0.2159  2.1924
11043TIP3    H254621   2.433   1.116  14.917  0.4905  0.6202 -0.4219
11044TIP3   OH254622   6.656   2.012   5.507  0.2352 -0.1733 -0.0593
11044TIP3    H154623   6.736   2.057   5.480 -0.4707  0.6895 -0.7554
11044TIP3    H254624   6.684   1.954   5.578  1.7011 -0.8088 -1.1157
11045TIP3   OH254625   2.080   5.159  12.940 -0.2293  0.0864  0.3542
11045TIP3    H154626   2.088   5.094  12.869  0.3385 -0.7301  1.1481
11045TIP3    H254627   2.133   5.233  12.910 -2.0278  0.8270 -1.2243
11046TIP3   OH254628   5.887   0.657  14.213  0.0340 -0.1505  0.0622
11046TIP3    H154629   5.844   0.660  14.298 -1.2978  1.0970 -0.6262
11046TIP3    H254630   5.946   0.581  14.219  1.4995  1.0672  2.7745
11047TIP3   OH254631   3.285   6.217  12.994  0.1407 -0.0852 -0.2070
11047TIP3    H154632   3.252   6.163  13.066 -0.5651  0.5145 -0.0701
11047TIP3    H254633   3.232   6.191  12.918 -1.5185  1.6740  0.2585
11048TIP3   OH254634   4.146   0.750   5.206 -0.2410 -0.2642  0.7493
11048TIP3    H154635   4.162   0.657   5.221  1.3087 -0.6457 -2.3962
11048TIP3    H254636   4.230   0.785   5.178 -1.5066  1.2479 -1.5154
11049TIP3   OH254637   6.114   6.358  11.648 -0.6143 -0.2746 -0.2550
11049TIP3    H154638   6.079   6.384  11.733 -0.9161 -0.0231 -0.4577
11049TIP3    H254639   6.179   6.425  11.627  1.2888 -1.6249  0.9140
11050TIP3   OH254640   6.287   0.986  16.271 -0.3106 -0.0261  0.1790
11050TIP3    H154641   6.369   0.943  16.246 -0.8206 -0.7777 -0.2155
11050TIP3    H254642   6.256   1.027  16.190  0.1039  1.0050  0.5189
11051TIP3   OH254643   2.021   5.060  14.876 -0.5130  0.7815  0.1833
11051TIP3    H154644   1.971   5.008  14.812 -0.9011 -0.5661  1.5115
11051TIP3    H254645   1.957   5.083  14.943  0.4766 -0.4188  1.5878
11052TIP3   OH254646   6.133   5.944  12.127  0.2036  0.5559 -0.9570
11052TIP3    H154647   6.148   5.878  12.194  0.6514 -1.4213 -2.8721
11052TIP3    H254648   6.205   6.007  12.138 -0.8216  1.3918  1.5640
11053TIP3   OH254649   4.958   1.183   6.217 -0.1578 -0.1523  0.3466
11053TIP3    H154650   4.876   1.229   6.196 -0.6465 -1.4838 -0.8451
11053TIP3    H254651   5.002   1.240   6.280 -1.3479  1.2833 -0.0539
11054TIP3   OH254652   1.865   0.885  14.714  0.0695 -0.2798  0.3527
11054TIP3    H154653   1.770   0.895  14.708 -0.0100 -1.4363 -0.8674
11054TIP3    H254654   1.900   0.973  14.699 -0.7887  0.0955  0.4910
11055TIP3   OH254655   3.146   5.789   4.344 -0.2034  0.1764 -1.0095
11055TIP3    H154656   3.225   5.735   4.334 -0.4734 -0.5293  0.4246
11055TIP3    H254657   3.076   5.734   4.308 -0.3137 -0.0019 -0.5350
11056TIP3   OH254658   1.534   4.213  13.553  0.5618  0.2180 -0.1618
11056TIP3    H154659   1.499   4.207  13.642 -0.0828 -3.0494 -0.5409
11056TIP3    H254660   1.460   4.195  13.496  1.1556  1.4051 -1.3733
11057TIP3   OH254661   4.200   2.641   5.000  0.4765  0.4499 -0.0744
11057TIP3    H154662   4.220   2.556   4.959 -1.8413 -1.3925  2.2643
11057TIP3    H254663   4.115   2.666   4.963 -0.4277  0.0288  1.6242
11058TIP3   OH254664   2.820   6.585  17.110 -0.0073  0.5830  0.0460
11058TIP3    H154665   2.765   6.507  17.111  0.6708  0.0765 -0.7399
11058TIP3    H254666   2.773   6.649  17.164 -0.8785 -0.1553  0.1789
11059TIP3   OH254667   1.333   0.772   4.126 -0.0861 -0.4033 -0.3569
11059TIP3    H154668   1.279   0.834   4.174  2.2788  1.0341  0.6734
11059TIP3    H254669   1.379   0.723   4.195  1.2674 -0.2650 -1.1189
11060TIP3   OH254670   4.950   3.388   6.043  0.9808 -0.0258 -0.3447
11060TIP3    H154671   4.884   3.437   6.092  1.7061 -0.1553  0.7883
11060TIP3    H254672   5.031   3.438   6.054  1.7624 -1.4611  0.9019
11061TIP3   OH254673   3.135   3.544  14.292  0.4703 -0.1927 -0.3306
11061TIP3    H154674   3.217   3.582  14.325  0.5754 -0.6100 -0.1006
11061TIP3    H254675   3.074   3.553  14.365  1.0045 -2.0965  0.4030
11062TIP3   OH254676   4.267   5.412   1.765 -0.9025 -0.3377  0.0749
11062TIP3    H154677   4.292   5.478   1.830  1.5946  0.7128 -1.7800
11062TIP3    H254678   4.196   5.363   1.806  0.2333  0.5478  3.3813
11063TIP3   OH254679   4.454   5.570  11.476  0.1486 -0.5144 -0.5108
11063TIP3    H154680   4.477   5.481  11.504  0.2670 -0.3448 -0.0628
11063TIP3    H254681   4.413   5.610  11.553  1.1765  0.2096 -0.3176
11064TIP3   OH254682   2.117   3.518   4.919 -0.2519  0.2105 -0.1459
11064TIP3    H154683   2.142   3.519   4.826  1.4839 -0.7602  0.2760
11064TIP3    H254684   2.085   3.428   4.934  0.9188 -0.1154  0.5262
11065TIP3   OH254685   6.378   2.963  15.517 -0.1285  0.0457  0.6236
11065TIP3    H154686   6.344   3.043  15.478 -1.0692 -0.5062  0.2840
11065TIP3    H254687   6.371   2.897  15.448  1.9569 -0.0384  0.4228
11066TIP3   OH254688   0.466   4.533   2.556 -0.1117 -0.6527  0.3762
11066TIP3    H154689   0.508   4.513   2.472 -0.4388  1.2108 -0.2987
11066TIP3    H254690   0.403   4.602   2.534 -0.5255 -0.4594  2.0841
11067TIP3   OH254691   3.680   1.032  11.152  0.3297 -0.4283  0.3100
11067TIP3    H154692   3.695   1.127  11.154 -1.9355 -0.0203  0.4096
11067TIP3    H254693   3.588   1.022  11.175  0.0522 -2.5582 -1.4781
11068TIP3   OH254694   2.113   0.112  13.573  0.2246 -0.1846  0.3787
11068TIP3    H154695   2.176   0.170  13.616  0.1160 -1.5298  2.5111
11068TIP3    H254696   2.166   0.043  13.534  0.1630 -1.0545  1.7592
11069TIP3   OH254697   1.015   6.327  16.703  0.4195  0.8247 -0.7054
11069TIP3    H154698   1.092   6.298  16.752  1.1328 -0.8934 -2.7147
11069TIP3    H254699   1.047   6.397  16.646 -0.0808  1.7847  0.1574
11070TIP3   OH254700   6.467   1.657  12.343 -0.2394 -0.5638  0.5991
11070TIP3    H154701   6.462   1.751  12.330 -0.0048 -0.1811  2.8392
11070TIP3    H254702   6.546   1.630  12.296  1.0612  0.8006  1.8767
11071TIP3   OH254703   2.585   2.843   1.257  0.3032 -0.2201 -0.3453
11071TIP3    H154704   2.583   2.748   1.270 -4.3297 -0.2693  0.1456
11071TIP3    H254705   2.501   2.864   1.217  0.6313  3.8375  0.6249
11072TIP3   OH254706   1.467   4.538  13.444  0.8385 -0.1194 -0.6109
11072TIP3    H154707   1.524   4.615  13.437 -0.6733  1.0053 -1.2017
11072TIP3    H254708   1.483   4.489  13.364 -0.1225  1.0245 -1.5465
11073TIP3   OH254709   1.607   1.649  13.441 -0.2737 -0.3439  0.2742
11073TIP3    H154710   1.613   1.689  13.528 -3.7773 -1.1017  1.0135
11073TIP3    H254711   1.581   1.558  13.458  0.4472 -0.9335 -1.5529
11074TIP3   OH254712   1.006   1.745   6.436 -0.6212 -0.0084  0.5743
11074TIP3    H154713   1.081   1.764   6.492 -1.7761  0.2808  2.0693
11074TIP3    H254714   1.000   1.822   6.378 -1.3750  1.2970  2.2849
11075TIP3   OH254715   3.756   6.251   0.153 -0.1408  0.5614 -0.0594
11075TIP3    H154716   3.827   6.192   0.179 -0.1157  0.5578 -0.1372
11075TIP3    H254717   3.680   6.193   0.143 -0.5854  0.7656  1.6755
11076TIP3   OH254718   1.838   3.594  10.745 -0.4357 -0.1121  0.4025
11076TIP3    H154719   1.774   3.579  10.676 -0.0709 -0.0874  0.0593
11076TIP3    H254720   1.913   3.539  10.721 -0.4126 -0.3145  0.9209
11077TIP3   OH254721   5.499   4.094   0.249 -0.0624 -0.3723 -0.1594
11077TIP3    H154722   5.416   4.142   0.250  0.4708  0.6089  1.1976
11077TIP3    H254723   5.486   4.023   0.313 -0.3917 -1.2401 -1.1656
11078TIP3   OH254724   2.518   5.757   5.042 -0.3204  0.4923 -0.6715
11078TIP3    H154725   2.449   5.771   4.977 -0.9968  0.4937  0.0315
11078TIP3    H254726   2.528   5.842   5.085 -1.8068 -0.1548  1.0645
11079TIP3   OH254727   5.214   4.862   1.656  0.3402 -0.4042  0.0856
11079TIP3    H154728   5.153   4.922   1.612  0.5903  1.0578  1.6613
11079TIP3    H254729   5.292   4.914   1.673  1.5635 -1.8934 -0.7108
11080TIP3   OH254730   2.478   6.183  11.114 -0.0387  0.2821  0.6168
11080TIP3    H154731   2.553   6.237  11.091 -0.1809 -0.0721 -0.8196
11080TIP3    H254732   2.406   6.221  11.063 -0.7301  0.3278  1.6080
11081TIP3   OH254733   0.560   2.459  11.937 -0.0708  0.1153  0.6383
11081TIP3    H154734   0.584   2.377  11.979  1.6119  0.5972  0.6727
11081TIP3    H254735   0.552   2.437  11.844  0.0713 -0.1376  0.6859
11082TIP3   OH254736   4.655   5.599  11.302 -0.1300 -0.1134  0.5431
11082TIP3    H154737   4.695   5.514  11.320 -0.8647 -0.5251  0.2829
11082TIP3    H254738   4.573   5.598  11.350  0.1183  0.6908  1.0054
11083TIP3   OH254739   6.620   0.269   1.292 -0.2486 -0.5183 -0.1100
11083TIP3    H154740   6.622   0.320   1.211 -0.6886  0.2249  0.3291
11083TIP3    H254741   6.551   0.204   1.279 -0.6207 -0.1159 -0.1772
11084TIP3   OH254742   5.909   3.460   3.846  0.0086 -0.0500  0.5608
11084TIP3    H154743   5.976   3.449   3.913 -0.3630  0.3233  0.9998
11084TIP3    H254744   5.834   3.411   3.879 -0.0935 -0.0788  0.2929
11085TIP3   OH254745   0.763   6.484  16.926 -0.1823  0.4630  0.3168
11085TIP3    H154746   0.777   6.391  16.907 -0.4324 -0.0886  2.5489
11085TIP3    H254747   0.829   6.529  16.873 -0.1363 -0.9424 -0.9084
11086TIP3   OH254748   2.509   1.889  16.476  0.2288 -0.2788  0.4516
11086TIP3    H154749   2.484   1.800  16.499  1.5670 -0.6830  0.4263
11086TIP3    H254750   2.458   1.945  16.534 -2.5491 -0.8861 -1.2003
11087TIP3   OH254751   2.496   2.693  15.266  0.0468 -0.0238 -0.0320
11087TIP3    H154752   2.454   2.607  15.263 -0.8623  0.3623  1.0069
11087TIP3    H254753   2.454   2.742  15.195 -0.4409 -0.0080  0.2619
11088TIP3   OH254754   4.562   0.216  14.995 -0.0042  0.1483  0.1935
11088TIP3    H154755   4.573   0.161  15.073 -1.8066 -2.1585 -1.0278
11088TIP3    H254756   4.611   0.169  14.927  1.2456  1.9301 -0.1909
11089TIP3   OH254757   0.230   3.255   0.504 -0.0794  0.1570 -0.2911
11089TIP3    H154758   0.278   3.222   0.429 -0.7908  2.3364 -1.8145
11089TIP3    H254759   0.142   3.271   0.471 -0.2947  1.5724  0.8598
11090TIP3   OH254760   1.964   4.404   0.599  0.2839  0.5940  0.2310
11090TIP3    H154761   1.920   4.391   0.683 -0.2113 -2.5793 -0.3919
11090TIP3    H254762   2.055   4.379   0.615  0.4075  0.9090  0.0309
11091TIP3   OH254763   5.543   2.725  16.521 -0.4820  0.2523  0.0120
11091TIP3    H154764   5.545   2.781  16.443 -3.9012  0.3935 -0.1334
11091TIP3    H254765   5.472   2.761  16.575  0.1725 -1.3039  2.0557
11092TIP3   OH254766   6.459   2.376  13.031 -0.2560 -0.1213 -1.0733
11092TIP3    H154767   6.505   2.460  13.037 -0.3097 -0.0504 -1.5954
11092TIP3    H254768   6.425   2.361  13.119  1.8463 -0.8045 -0.3034
11093TIP3   OH254769   0.768   4.003   2.600  0.1692  0.3333 -0.0036
11093TIP3    H154770   0.799   3.931   2.544  1.1156 -0.3572  1.3436
11093TIP3    H254771   0.832   4.073   2.586 -0.8202  0.9935 -1.4082
11094TIP3   OH254772   2.899   1.577  15.096  0.3027  0.0604 -0.3986
11094TIP3    H154773   2.944   1.571  15.012 -0.2072 -1.0735 -0.5996
11094TIP3    H254774   2.917   1.493  15.139 -3.5122 -1.5297 -1.4743
11095TIP3   OH254775   3.199   1.699   1.551  0.3577 -0.5524  0.0498
11095TIP3    H154776   3.270   1.736   1.498 -0.5733  0.7566 -0.3270
11095TIP3    H254777   3.230   1.611   1.574  2.3136  0.1458  0.2967
11096TIP3   OH254778   3.495   6.827   3.670  0.8780  0.1125 -0.1223
11096TIP3    H154779   3.529   6.872   3.592  2.3504 -0.9966 -0.1715
11096TIP3    H254780   3.424   6.883   3.701  0.1044  0.4764 -2.3746
11097TIP3   OH254781   3.244   1.716   6.855 -0.7287 -0.6109 -0.0875
11097TIP3    H154782   3.314   1.780   6.843 -1.0626  0.2244  2.1080
11097TIP3    H254783   3.189   1.727   6.777  1.0343 -0.6372 -1.3931
11098TIP3   OH254784   6.093   1.793  15.204  0.7020 -0.1536 -0.4337
11098TIP3    H154785   6.117   1.850  15.277  2.5921 -1.6338  0.1578
11098TIP3    H254786   6.033   1.729  15.242 -0.1461  0.4468 -0.7339
11099TIP3   OH254787   2.166   1.561   3.091 -0.0077  0.0222 -0.6568
11099TIP3    H154788   2.149   1.469   3.069 -4.4743  0.7286 -1.0991
11099TIP3    H254789   2.104   1.580   3.161 -0.3921  3.0705 -1.7079
11100TIP3   OH254790   3.919   4.543  16.618 -0.1004  0.0186  0.1981
11100TIP3    H154791   3.971   4.549  16.697  0.0076 -1.3274  0.2557
11100TIP3    H254792   3.877   4.457  16.623 -0.6743  0.2150 -0.8450
11101TIP3   OH254793   4.962   4.459   6.399 -0.3257  0.7968  0.9215
11101TIP3    H154794   4.924   4.543   6.374  0.1579  0.7446  0.0017
11101TIP3    H254795   4.924   4.441   6.486 -1.5893  1.2344  0.4843
11102TIP3   OH254796   2.511   0.270   3.766 -0.3781 -0.3090 -0.0158
11102TIP3    H154797   2.553   0.277   3.852  2.6894  0.3641 -1.4346
11102TIP3    H254798   2.441   0.335   3.768  0.6387  0.8127  1.4619
11103TIP3   OH254799   6.322   6.463   1.364  0.0641 -0.7723  0.1747
11103TIP3    H154800   6.346   6.421   1.446  1.0988 -0.3606  0.0848
11103TIP3    H254801   6.319   6.556   1.384 -0.0752 -0.7034 -0.1606
11104TIP3   OH254802   1.720   2.913   6.350 -0.0929  0.3587 -0.1619
11104TIP3    H154803   1.625   2.906   6.358 -0.3598  2.2861 -1.0374
11104TIP3    H254804   1.746   2.968   6.425 -0.2066  2.8659 -1.8309
11105TIP3   OH254805   1.692   4.819  17.007  0.2424  0.6352  0.0037
11105TIP3    H154806   1.628   4.880  17.044 -0.1195 -1.3449  2.9682
11105TIP3    H254807   1.639   4.754  16.961  0.3492  0.6723 -0.1712
11106TIP3   OH254808   2.892   5.335  12.073 -0.9571 -0.4485  0.5514
11106TIP3    H154809   2.880   5.388  11.995 -1.4415 -1.8075 -0.3213
11106TIP3    H254810   2.943   5.259  12.044 -0.5181 -0.6281  1.7096
11107TIP3   OH254811   1.954   0.624   0.735 -0.2343 -0.3219  0.9496
11107TIP3    H154812   2.010   0.565   0.683 -1.0061 -2.1642  2.1063
11107TIP3    H254813   1.873   0.630   0.684 -0.3531 -0.7142  1.0876
11108TIP3   OH254814   0.725   0.434   0.099 -0.0293 -0.4397  0.9988
11108TIP3    H154815   0.754   0.468   0.184  1.0650  0.6296  0.2389
11108TIP3    H254816   0.671   0.504   0.063 -2.2525 -1.7289  1.6627
11109TIP3   OH254817   4.301   0.169  12.556  0.5936  0.0695  0.0034
11109TIP3    H154818   4.260   0.133  12.477 -2.3200 -0.4265  1.5612
11109TIP3    H254819   4.232   0.224  12.594  1.6957 -0.1387  2.4381
11110TIP3   OH254820   3.503   3.925  16.775  0.2940 -0.5787  0.1116
11110TIP3    H154821   3.528   3.836  16.802 -1.1099 -0.3626  2.3790
11110TIP3    H254822   3.479   3.968  16.856 -1.0981  1.2331 -1.1927
11111TIP3   OH254823   5.042   1.356  13.626  0.7049 -0.1809 -0.2197
11111TIP3    H154824   4.979   1.424  13.650 -0.4571 -0.8999 -1.1502
11111TIP3    H254825   5.107   1.358  13.697 -0.6633  0.1778  1.0754
11112TIP3   OH254826   3.912   3.649  16.015  0.8838 -0.2058 -0.3168
11112TIP3    H154827   3.839   3.633  15.956 -0.1273 -1.9338  1.2990
11112TIP3    H254828   3.872   3.670  16.099  2.2624  0.1865  0.2839
11113TIP3   OH254829   3.743   4.752   4.958  0.2393  0.2727  0.3199
11113TIP3    H154830   3.732   4.827   4.900 -0.1782 -0.8135 -1.0971
11113TIP3    H254831   3.660   4.705   4.951  1.1746 -1.3647 -0.4448
11114TIP3   OH254832   2.227   2.132  14.612  0.3050 -0.3568  0.0757
11114TIP3    H154833   2.288   2.105  14.543  1.1506 -1.3967  1.1899
11114TIP3    H254834   2.174   2.055  14.629  0.7737 -0.4254  1.2761
11115TIP3   OH254835   3.355   2.531   0.310 -0.1681  0.2115 -0.0501
11115TIP3    H154836   3.282   2.499   0.364  0.3184  0.3384  0.6987
11115TIP3    H254837   3.394   2.602   0.362 -0.4930  1.2403 -1.1531
11116TIP3   OH254838   4.985   2.383   0.736  0.0314  0.2032 -0.0934
11116TIP3    H154839   4.906   2.334   0.713 -0.0982 -0.9487  2.4728
11116TIP3    H254840   5.053   2.317   0.743  0.9469  1.0232 -0.9894
11117TIP3   OH254841   2.175   5.917   0.786  0.4214  0.2788 -0.2352
11117TIP3    H154842   2.176   5.978   0.713 -1.8945  0.0110 -0.5756
11117TIP3    H254843   2.104   5.856   0.765  1.0017 -0.9965  1.3078
11118TIP3   OH254844   4.083   4.910  16.245 -0.1603 -0.0769  0.3070
11118TIP3    H154845   4.032   4.854  16.187  2.3612 -1.0255 -1.1771
11118TIP3    H254846   4.106   4.986  16.191 -1.9167  1.5301  1.6984
11119TIP3   OH254847   5.869   4.505   3.668 -0.0467 -0.3086 -0.3599
11119TIP3    H154848   5.935   4.508   3.738  0.1168 -1.2393 -0.4607
11119TIP3    H254849   5.920   4.500   3.587 -0.2166 -1.3786 -0.4195
11120TIP3   OH254850   5.637   1.471   5.128 -0.6019 -0.7142 -0.0501
11120TIP3    H154851   5.664   1.550   5.080  3.3692 -1.1116  1.1477
11120TIP3    H254852   5.574   1.502   5.193  0.9706  1.5732  0.4879
11121TIP3   OH254853   1.451   4.911   0.360 -0.0722  0.1065 -0.1395
11121TIP3    H154854   1.535   4.878   0.390  1.1919  0.4370 -2.9902
11121TIP3    H254855   1.471   4.997   0.324 -1.5208 -0.0424 -1.3786
11122TIP3   OH254856   3.098   0.195  17.056 -0.5269  0.2842 -0.2329
11122TIP3    H154857   3.072   0.103  17.049  0.0902  0.1246 -0.5338
11122TIP3    H254858   3.088   0.217  17.149  0.1920 -0.3583  0.0063
11123TIP3   OH254859   5.030   4.612  11.033 -0.0912 -0.1267 -0.7211
11123TIP3    H154860   5.109   4.610  10.979  0.7705 -0.6014  0.5164
11123TIP3    H254861   5.046   4.547  11.102 -2.2026 -1.3428 -1.2912
11124TIP3   OH254862   2.942   0.503  13.577  0.4381 -0.2873 -1.1397
11124TIP3    H154863   2.988   0.425  13.607  3.1359  1.7620  0.5003
11124TIP3    H254864   2.858   0.501  13.623  0.2893 -2.3541 -1.4325
11125TIP3   OH254865   1.356   5.512   3.039 -0.0161  0.6345  0.0505
11125TIP3    H154866   1.283   5.557   2.997 -1.3700 -1.2506  0.2468
11125TIP3    H254867   1.399   5.463   2.969 -1.1344 -1.0295  0.4665
11126TIP3   OH254868   4.149   1.091  15.412 -0.7720  0.3893 -0.0097
11126TIP3    H154869   4.125   1.026  15.347  0.5482 -0.2807  0.1460
11126TIP3    H254870   4.182   1.165  15.361 -1.9481  0.8306 -0.1700
11127TIP3   OH254871   1.698   3.832   2.431  0.3837 -0.0573  0.2360
11127TIP3    H154872   1.742   3.908   2.394  0.6103 -0.1955  0.2183
11127TIP3    H254873   1.716   3.837   2.525  0.0547  0.1332  0.2922
11128TIP3   OH254874   1.727   4.107  11.689  0.3053  0.1269  0.2317
11128TIP3    H154875   1.644   4.089  11.733  0.7506  1.0012  1.4844
11128TIP3    H254876   1.778   4.156  11.753  1.1564  1.0734 -1.1260
11129TIP3   OH254877   6.734   5.923   1.289  0.7280  0.3279 -0.0241
11129TIP3    H154878   6.792   6.000   1.285 -1.4631  2.0530 -0.1760
11129TIP3    H254879   6.715   5.913   1.382  0.3815  0.4720 -0.0787
11130TIP3   OH254880   3.613   4.272   0.607  0.1637  0.6331 -0.4221
11130TIP3    H154881   3.588   4.181   0.592  0.9692  0.3798 -0.2689
11130TIP3    H254882   3.532   4.315   0.633  0.1936 -0.5898  2.0662
11131TIP3   OH254883   4.440   1.332  12.590 -0.2500  0.0067  0.1388
11131TIP3    H154884   4.459   1.419  12.626  1.3038  0.0729 -0.7377
11131TIP3    H254885   4.454   1.272  12.663  2.1988  0.1995 -0.0786
11132TIP3   OH254886   4.770   4.810  16.579  0.5979 -0.2207  0.1309
11132TIP3    H154887   4.754   4.719  16.603  0.6244 -0.0669  0.7474
11132TIP3    H254888   4.735   4.818  16.490  2.0087 -1.2216 -0.5465
11133TIP3   OH254889   3.019   2.338  11.473  0.2731 -0.3750  0.1444
11133TIP3    H154890   2.955   2.329  11.402  1.2038  1.3806 -0.9798
11133TIP3    H254891   2.969   2.376  11.545 -0.4326 -1.1466  0.0816
11134TIP3   OH254892   2.511   2.848   5.675 -0.1702 -1.3306  0.6884
11134TIP3    H154893   2.591   2.897   5.693 -0.9771 -0.0522  0.9582
11134TIP3    H254894   2.535   2.756   5.687  1.6805 -1.1021 -0.9398
11135TIP3   OH254895   5.761   2.795   2.352  0.3202  0.1590 -0.2851
11135TIP3    H154896   5.796   2.759   2.434  0.5235 -0.0202 -0.4482
11135TIP3    H254897   5.667   2.781   2.358  0.1295  1.6372  0.6484
11136TIP3   OH254898   6.155   2.468  10.914  0.3670 -0.1567  0.3304
11136TIP3    H154899   6.179   2.560  10.923 -1.1990  0.7658 -3.1485
11136TIP3    H254900   6.087   2.454  10.980  0.4061  1.2567  0.6894
11137TIP3   OH254901   3.994   1.018  13.956  0.1082 -0.0720  0.1020
11137TIP3    H154902   3.914   1.069  13.960  0.6214  0.6925  1.4254
11137TIP3    H254903   4.027   1.031  13.867 -0.7204  0.3890 -0.1498
11138TIP3   OH254904   5.150   0.923  15.284  0.2218 -0.2700  0.4573
11138TIP3    H154905   5.228   0.963  15.324  1.1189 -0.8780 -0.6146
11138TIP3    H254906   5.079   0.984  15.304  1.0141  0.4195  1.2650
11139TIP3   OH254907   0.697   4.745   3.141 -0.4589  0.4770 -0.3218
11139TIP3    H154908   0.612   4.702   3.126 -0.5038  1.0435 -1.8651
11139TIP3    H254909   0.687   4.832   3.101  0.3374  1.1435  0.8814
11140TIP3   OH254910   5.530   5.082   2.393 -0.1099  0.2261  0.1122
11140TIP3    H154911   5.579   5.152   2.437  0.4515 -0.1855  0.1536
11140TIP3    H254912   5.490   5.124   2.317 -1.7256  1.1338  1.3955
11141TIP3   OH254913   4.574   3.792   6.743 -0.0473  0.2497  0.0092
11141TIP3    H154914   4.535   3.801   6.830  1.7389 -3.6112  1.4438
11141TIP3    H254915   4.669   3.795   6.759  0.3743 -2.6260 -1.3381
11142TIP3   OH254916   1.096   0.978   5.818 -0.5569  0.2066 -0.1454
11142TIP3    H154917   1.083   0.883   5.819 -1.0299  0.2743  0.4701
11142TIP3    H254918   1.008   1.014   5.820 -0.3838  0.6672 -0.5718
11143TIP3   OH254919   5.257   0.985  12.731 -0.0051 -0.1153 -0.1486
11143TIP3    H154920   5.297   0.974  12.817  0.5016  1.5694 -0.1209
11143TIP3    H254921   5.329   0.973  12.669  0.1167  0.8065 -0.2053
11144TIP3   OH254922   6.388   3.886  11.793 -0.6290 -0.3765 -0.7434
11144TIP3    H154923   6.431   3.935  11.723 -1.2232 -0.6786 -1.3379
11144TIP3    H254924   6.458   3.838  11.836  0.3646  2.6184  1.2957
11145TIP3   OH254925   4.943   4.705  15.060 -0.3794  0.2264  0.0347
11145TIP3    H154926   4.865   4.725  15.111 -0.4284 -1.4389  0.6709
11145TIP3    H254927   4.989   4.639  15.111 -0.0438 -0.9665 -1.6995
11146TIP3   OH254928   0.325   3.937  16.830 -0.2510 -0.2349 -0.3145
11146TIP3    H154929   0.239   3.918  16.868 -1.7195  0.5848 -2.9857
11146TIP3    H254930   0.319   3.906  16.740  1.9406  0.7229 -0.8513
11147TIP3   OH254931   1.518   6.035  11.080  0.4428  0.2982  0.0941
11147TIP3    H154932   1.562   6.082  11.009 -0.1498 -0.5942 -0.8938
11147TIP3    H254933   1.572   5.958  11.095 -0.1830 -0.2478 -0.3872
11148TIP3   OH254934   5.941   6.169  14.932  0.2449  0.4856 -0.1577
11148TIP3    H154935   5.846   6.178  14.938  0.1537  0.5004 -1.3714
11148TIP3    H254936   5.965   6.216  14.852  1.3832  1.1834  0.5595
11149TIP3   OH254937   2.554   6.205  11.372 -0.5460 -0.0582 -0.3693
11149TIP3    H154938   2.509   6.237  11.294 -0.3603  0.2979 -0.3337
11149TIP3    H254939   2.493   6.142  11.411 -0.6260 -0.2541 -0.8138
11150TIP3   OH254940   6.268   5.143  11.084  0.4552 -0.3086 -0.0433
11150TIP3    H154941   6.274   5.168  10.991  1.9467 -1.9094 -0.4351
11150TIP3    H254942   6.218   5.061  11.083 -0.4722  0.2418  0.7037
11151TIP3   OH254943   5.337   2.372  14.343  0.7230 -0.6828 -0.2087
11151TIP3    H154944   5.245   2.352  14.322  0.5225  0.2621 -0.2806
11151TIP3    H254945   5.358   2.314  14.416 -0.1714 -0.3798  0.3074
11152TIP3   OH254946   2.517   2.243   4.538  0.0166  0.0950 -0.4470
11152TIP3    H154947   2.509   2.149   4.555 -0.4606 -0.3675 -2.8778
11152TIP3    H254948   2.547   2.280   4.621 -0.9244 -2.0262  0.9260
11153TIP3   OH254949   6.169   1.171   2.806  0.4277 -0.2268 -0.4403
11153TIP3    H154950   6.106   1.201   2.740  2.0321  0.6970 -1.6203
11153TIP3    H254951   6.166   1.238   2.874 -1.2375 -1.1836  0.4703
11154TIP3   OH254952   2.341   2.933   5.297  0.0036  0.2487 -0.1098
11154TIP3    H154953   2.272   2.995   5.274  0.4522  0.0703 -2.1168
11154TIP3    H254954   2.349   2.876   5.220  1.5387 -0.5091  0.5625
11155TIP3   OH254955   6.186   4.261  10.520  0.3224  0.2756  0.4910
11155TIP3    H154956   6.272   4.219  10.525  0.5741  0.6441 -0.4236
11155TIP3    H254957   6.138   4.211  10.454  0.7548  1.5722 -0.8858
11156TIP3   OH254958   6.381   1.271  14.107 -0.5410 -0.5366 -0.0440
11156TIP3    H154959   6.423   1.302  14.026  0.2258  0.6402  0.7745
11156TIP3    H254960   6.435   1.197  14.135  1.3032  1.2109  1.2135
11157TIP3   OH254961   1.064   6.326   0.714  0.2492  0.3133  0.2014
11157TIP3    H154962   1.038   6.418   0.711  1.2152  0.5804 -0.6050
11157TIP3    H254963   1.157   6.328   0.735  0.4561 -0.4396 -0.5698
11158TIP3   OH254964   5.840   5.021   2.255 -0.0841  0.0699 -0.3069
11158TIP3    H154965   5.930   5.009   2.283 -1.1477 -0.4819  3.4342
11158TIP3    H254966   5.835   5.113   2.228  1.2416  0.5689  1.0316
11159TIP3   OH254967   0.836   3.133  15.196  0.3965  0.1525 -0.2630
11159TIP3    H154968   0.896   3.091  15.258 -1.4560  1.3300  2.5606
11159TIP3    H254969   0.862   3.225  15.196  0.5225  0.1325 -1.4957
11160TIP3   OH254970   4.063   3.990   2.643 -0.6345 -0.3234 -0.2658
11160TIP3    H154971   4.103   4.074   2.665  1.0762 -1.0524 -0.4154
11160TIP3    H254972   4.056   3.991   2.547 -0.5471 -0.3831 -0.2728
11161TIP3   OH254973   0.623   4.275  12.843  0.2877 -0.1550  0.4653
11161TIP3    H154974   0.527   4.269  12.843  0.0780  2.2594  0.2623
11161TIP3    H254975   0.648   4.256  12.933 -0.0934 -3.1577  0.0620
11162TIP3   OH254976   3.925   3.111   5.641 -0.1337  0.7284 -0.3744
11162TIP3    H154977   3.913   3.088   5.549 -2.6514 -0.2192  0.1093
11162TIP3    H254978   4.017   3.134   5.648  0.5934 -1.0362 -2.7384
11163TIP3   OH254979   5.713   4.081   3.902  0.0995 -0.1988 -0.1511
11163TIP3    H154980   5.706   4.029   3.981 -0.2998 -1.2711 -0.8667
11163TIP3    H254981   5.772   4.153   3.925 -1.2486  0.4229  1.5843
11164TIP3   OH254982   3.093   4.668  12.144 -0.0742 -0.6146 -0.0299
11164TIP3    H154983   3.126   4.722  12.073 -0.2988 -3.3071 -2.3503
11164TIP3    H254984   3.170   4.624  12.179  0.2310  1.5380  2.3855
11165TIP3   OH254985   2.768   5.018   2.185 -0.0095  0.2247  0.4295
11165TIP3    H154986   2.757   4.978   2.271  0.8535 -0.4780  0.2303
11165TIP3    H254987   2.735   5.107   2.195  0.0844  0.1466  1.4923
11166TIP3   OH254988   3.030   1.740   6.651  0.0809 -0.2775 -0.0631
11166TIP3    H154989   3.019   1.823   6.698  2.3384  1.1809 -1.8724
11166TIP3    H254990   2.958   1.738   6.588 -0.1413  0.1782  0.1677
11167TIP3   OH254991   3.902   1.898  16.627 -0.6822 -0.2983  0.1266
11167TIP3    H154992   3.837   1.966  16.648 -1.7034 -1.1383 -0.2548
11167TIP3    H254993   3.852   1.831  16.580  0.6589 -0.5266 -1.0229
11168TIP3   OH254994   1.649   1.946   5.395  0.1501  0.2082  0.1143
11168TIP3    H154995   1.592   1.884   5.350  0.5504 -1.1431  1.3742
11168TIP3    H254996   1.592   2.019   5.417 -0.3786  0.2421 -1.2586
11169TIP3   OH254997   6.501   3.721   3.529  0.5541 -0.2728 -0.0493
11169TIP3    H154998   6.471   3.811   3.520  0.4483 -0.1687  1.1941
11169TIP3    H254999   6.437   3.679   3.587  0.1752 -1.3709 -1.2194
11170TIP3   OH255000   4.331   0.321   3.785 -0.4655  0.5456 -0.0382
11170TIP3    H155001   4.302   0.334   3.876 -0.4548 -0.4139  0.1138
11170TIP3    H255002   4.370   0.233   3.785 -0.5803  0.4866 -1.0024
11171TIP3   OH255003   5.819   0.060   0.127  0.4917  0.4001  0.6214
11171TIP3    H155004   5.843  -0.008   0.064  0.2236  0.5302  0.3748
11171TIP3    H255005   5.835   0.142   0.081  2.0114  0.5456  1.3507
11172TIP3   OH255006   3.100   5.504   4.372 -0.5813  0.0764 -0.3823
11172TIP3    H155007   3.181   5.525   4.326  0.4001 -0.7998  0.8630
11172TIP3    H255008   3.054   5.444   4.313  1.2360 -2.0396  0.1864
11173TIP3   OH255009   3.190   3.012   2.903 -0.2881  0.4311  0.4991
11173TIP3    H155010   3.174   3.084   2.843  1.6872  0.2010 -0.4006
11173TIP3    H255011   3.190   2.934   2.847 -0.5865 -0.0514  1.1611
11174TIP3   OH255012   3.981   0.157   0.039  0.1705 -0.2086 -0.5045
11174TIP3    H155013   3.906   0.206   0.006  0.4933  1.4713  1.1082
11174TIP3    H255014   4.057   0.208   0.014  0.6319 -0.7004 -0.1334
11175TIP3   OH255015   1.336   3.022   2.600  0.3398 -0.4020 -0.0139
11175TIP3    H155016   1.381   3.049   2.680 -0.9414 -0.8316  0.8950
11175TIP3    H255017   1.373   3.077   2.531  1.0746  0.3773  0.9775
11176TIP3   OH255018   0.732   5.489  12.497  0.5727 -0.0564 -0.4413
11176TIP3    H155019   0.742   5.456  12.586  0.4263 -0.9216 -0.7311
11176TIP3    H255020   0.657   5.441  12.462  0.7940  0.0716 -1.1173
11177TIP3   OH255021   3.123   2.855  16.095 -0.3870 -0.8913 -0.0162
11177TIP3    H155022   3.144   2.767  16.065  1.4029 -0.4393 -0.2660
11177TIP3    H255023   3.091   2.900  16.017  0.8212 -0.7355 -0.4526
11178TIP3   OH255024   2.724   5.043  13.353  0.0839 -0.7720  0.0493
11178TIP3    H155025   2.733   5.034  13.258 -1.1440  0.3689 -0.2031
11178TIP3    H255026   2.647   5.098  13.365 -0.7673 -2.2297  1.7578
11179TIP3   OH255027   0.786   5.336   1.240 -0.4676  0.4701 -0.4622
11179TIP3    H155028   0.695   5.315   1.222 -0.6180 -0.4463  1.1914
11179TIP3    H255029   0.782   5.396   1.314  0.2869 -0.5702  0.4569
11180TIP3   OH255030   6.085   3.941   5.575  0.1717 -0.6296 -0.6603
11180TIP3    H155031   5.990   3.950   5.579  0.0045 -2.3996  0.4384
11180TIP3    H255032   6.109   3.980   5.491 -1.1759  2.2504  0.1654
11181TIP3   OH255033   0.306   2.958   3.666  0.0384 -0.7318  0.7874
11181TIP3    H155034   0.361   3.015   3.612 -0.0976  0.1450  1.5590
11181TIP3    H255035   0.369   2.897   3.707  0.0608 -1.9797 -0.9829
11182TIP3   OH255036   1.877   2.836   5.631  0.3185 -0.4076 -0.6968
11182TIP3    H155037   1.875   2.898   5.704 -0.5206  0.6326 -1.5703
11182TIP3    H255038   1.959   2.855   5.586 -0.5188  0.9909 -1.7001
11183TIP3   OH255039   4.138   4.615   3.705  0.0885 -0.1871 -0.2323
11183TIP3    H155040   4.092   4.664   3.773  0.2233  1.9192 -1.5686
11183TIP3    H255041   4.146   4.677   3.632  2.5751 -1.3892 -1.0721
11184TIP3   OH255042   6.323   2.062   1.459  0.1509 -0.3784  0.3309
11184TIP3    H155043   6.249   2.122   1.450  0.1402 -0.1245  1.7676
11184TIP3    H255044   6.380   2.083   1.385  0.0487  1.2910  0.6772
11185TIP3   OH255045   0.585   5.893   5.610  0.6187 -0.4839 -0.5974
11185TIP3    H155046   0.622   5.974   5.645  1.1863 -1.0528  0.1674
11185TIP3    H255047   0.515   5.921   5.551 -0.7052  0.5360  1.3584
11186TIP3   OH255048   6.751   4.159  12.371  0.9476  0.2454 -0.0923
11186TIP3    H155049   6.802   4.164  12.290  3.2709 -0.1731  1.2283
11186TIP3    H255050   6.816   4.171  12.440 -0.6953 -0.8536  1.7454
11187TIP3   OH255051   1.778   4.870   3.638 -0.0003  0.3181  0.4761
11187TIP3    H155052   1.778   4.810   3.711  0.3801  0.1048  0.3055
11187TIP3    H255053   1.722   4.829   3.572 -0.1134  0.3742  0.5367
11188TIP3   OH255054   0.350   2.636   2.428 -0.4062  0.3398 -0.8402
11188TIP3    H155055   0.344   2.702   2.498 -1.5143  0.3307 -0.9047
11188TIP3    H255056   0.411   2.674   2.365 -1.1281  1.3864 -0.9402
11189TIP3   OH255057   6.319   2.948   2.399 -0.4270 -0.3123  0.1761
11189TIP3    H155058   6.277   2.929   2.315 -0.7830  1.4448 -0.1031
11189TIP3    H255059   6.410   2.965   2.378 -0.0096 -2.0320  0.4836
11190TIP3   OH255060   5.767   2.379   0.842  0.2579  0.7581  0.1285
11190TIP3    H155061   5.793   2.422   0.923 -0.3843  1.5018 -0.0551
11190TIP3    H255062   5.749   2.450   0.781  1.8951  0.2122 -1.0660
11191TIP3   OH255063   4.129   1.758  11.787 -0.2406  0.1066  0.1331
11191TIP3    H155064   4.121   1.840  11.739  0.8018 -0.0435 -0.3083
11191TIP3    H255065   4.044   1.715  11.773  0.0240  0.0664 -1.5976
11192TIP3   OH255066   4.409   3.796  12.848 -0.2359  0.7151  0.0137
11192TIP3    H155067   4.379   3.827  12.934  1.0845 -0.8836  1.1106
11192TIP3    H255068   4.504   3.810  12.849 -0.3084  1.5609 -1.6075
11193TIP3   OH255069   3.125   0.228  11.497  0.1483  0.1522 -0.4057
11193TIP3    H155070   3.192   0.168  11.530  0.1036  0.6772  0.7016
11193TIP3    H255071   3.121   0.297  11.563  1.3520  2.2923 -2.4641
11194TIP3   OH255072   2.618   3.634  11.609 -0.4634 -0.0625  0.7107
11194TIP3    H155073   2.696   3.579  11.616  0.6929  1.2594 -0.9044
11194TIP3    H255074   2.614   3.658  11.516 -0.6118  2.9277  1.3952
11195TIP3   OH255075   5.446   5.547  16.655  0.0619  0.1312 -0.2832
11195TIP3    H155076   5.408   5.552  16.742  1.7420  4.2632  0.4850
11195TIP3    H255077   5.375   5.572  16.595 -0.5279 -0.4996  0.1516
11196TIP3   OH255078   3.117   4.230  16.179  0.1666 -0.4361  0.3354
11196TIP3    H155079   3.103   4.296  16.247 -1.4090  0.8133 -1.1138
11196TIP3    H255080   3.089   4.148  16.218 -1.2751  0.3567  1.0384
11197TIP3   OH255081   0.939   5.400   2.831  0.0780  0.5551  0.3305
11197TIP3    H155082   0.871   5.405   2.898 -1.1374  1.6798 -0.9279
11197TIP3    H255083   0.999   5.472   2.853 -1.6572  2.5609 -1.1158
11198TIP3   OH255084   1.434   0.961  11.300 -0.7124  0.1425 -0.5612
11198TIP3    H155085   1.500   0.978  11.233  0.8560  1.6415  1.2422
11198TIP3    H255086   1.406   0.871  11.284  3.8751 -1.6853  0.2367
11199TIP3   OH255087   6.167   0.342  17.080  0.2512 -0.1803 -0.3426
11199TIP3    H155088   6.260   0.338  17.104  0.0368  1.2511  0.8615
11199TIP3    H255089   6.130   0.261  17.114  1.4337 -1.8844 -2.8246
11200TIP3   OH255090   4.839   5.788   4.120  0.2815  0.3130  0.0993
11200TIP3    H155091   4.749   5.767   4.096  0.2263  1.0510 -0.3847
11200TIP3    H255092   4.865   5.718   4.180 -1.2812  1.0949  1.8115
11201TIP3   OH255093   6.022   3.159  16.633  0.0915  0.1121 -0.0485
11201TIP3    H155094   5.969   3.110  16.570 -0.2723 -0.1652  0.4666
11201TIP3    H255095   6.090   3.200  16.579 -1.5228  1.7493 -0.9626
11202TIP3   OH255096   3.950   1.914   3.528 -0.3172 -0.1761  0.0590
11202TIP3    H155097   4.006   1.882   3.599  0.0076  0.3649  0.0563
11202TIP3    H255098   4.002   1.900   3.449 -0.6393 -0.6872 -0.0634
11203TIP3   OH255099   5.713   2.678  13.536  0.0529  0.0050  0.3665
11203TIP3    H155100   5.794   2.664  13.585  1.0494  0.9645 -0.9540
11203TIP3    H255101   5.702   2.597  13.486  0.7364  0.2642 -0.2047
11204TIP3   OH255102   0.865   4.471  13.041  0.0466 -0.8915  0.4589
11204TIP3    H155103   0.806   4.542  13.016 -0.3856 -1.4152 -0.0655
11204TIP3    H255104   0.806   4.403  13.074  0.4089 -1.2102  0.4514
11205TIP3   OH255105   0.446   1.822   1.165 -0.0265 -0.5575  0.1401
11205TIP3    H155106   0.450   1.727   1.178  0.6346 -0.5374  0.0771
11205TIP3    H255107   0.529   1.845   1.124 -0.6221 -0.0971 -0.8553
11206TIP3   OH255108   4.919   5.600   5.541 -0.4762 -0.4453 -0.5909
11206TIP3    H155109   4.950   5.660   5.608 -4.1741  1.2978 -0.2018
11206TIP3    H255110   4.927   5.650   5.459  1.7360 -1.6780 -1.2297
11207TIP3   OH255111   3.577   4.869   4.120 -0.4289  0.0623  0.2186
11207TIP3    H155112   3.520   4.814   4.065 -2.3505 -0.3473  2.4717
11207TIP3    H255113   3.626   4.806   4.173 -0.9663  0.4814  1.2211
11208TIP3   OH255114   1.252   5.563  11.317  0.0039 -0.2203 -0.0609
11208TIP3    H155115   1.237   5.524  11.231 -0.1758  0.1230 -0.1842
11208TIP3    H255116   1.341   5.537  11.340  0.3471  0.3556 -0.7069
11209TIP3   OH255117   5.292   4.711  14.533 -0.2501 -0.2070  0.2337
11209TIP3    H155118   5.226   4.646  14.557 -2.8305  1.3435 -2.1655
11209TIP3    H255119   5.243   4.787  14.504  2.6338  1.6476 -0.2534
11210TIP3   OH255120   4.994   0.790   0.856 -0.0044  0.5143 -0.3801
11210TIP3    H155121   4.979   0.695   0.852 -0.8407  0.5594  1.1094
11210TIP3    H255122   5.088   0.798   0.872 -0.2052 -0.1585  1.3573
11211TIP3   OH255123   5.051   6.326   0.469  0.0539 -0.3575 -0.2953
11211TIP3    H155124   5.056   6.395   0.402  1.5987 -1.0444 -0.9438
11211TIP3    H255125   5.046   6.373   0.552  2.0904  0.5964 -0.6573
11212TIP3   OH255126   5.807   3.271   5.812  0.1012 -0.4104 -0.2712
11212TIP3    H155127   5.889   3.311   5.780 -1.1780  1.8437 -0.9403
11212TIP3    H255128   5.783   3.324   5.888 -0.5461 -1.3221  0.1719
11213TIP3   OH255129   6.350   6.100  12.099 -0.6284 -0.2464 -0.2660
11213TIP3    H155130   6.379   6.184  12.134 -0.8124 -0.6524  0.8938
11213TIP3    H255131   6.383   6.099  12.009 -1.6127  1.5463 -0.6866
11214TIP3   OH255132   2.190   4.675  10.472 -0.2125 -0.2375 -0.0404
11214TIP3    H155133   2.217   4.583  10.462  0.3133 -0.3092  1.7121
11214TIP3    H255134   2.229   4.702  10.555 -0.0194  1.7120 -0.7287
11215TIP3   OH255135   3.427   6.441  14.454 -0.6560  0.7902 -0.2957
11215TIP3    H155136   3.361   6.427  14.522 -1.6714 -1.1977 -1.5979
11215TIP3    H255137   3.507   6.465  14.502 -1.2033 -1.0237  1.6489
11216TIP3   OH255138   0.141   2.719  13.978 -0.2931 -0.1499 -0.0444
11216TIP3    H155139   0.095   2.780  14.036 -1.5581 -0.9988 -0.1104
11216TIP3    H255140   0.191   2.774  13.918 -1.9361  0.8451 -0.5392
11217TIP3   OH255141   2.661   5.397   1.193 -0.1753 -0.1621 -0.0519
11217TIP3    H155142   2.627   5.327   1.137  0.8525 -2.5937  2.1858
11217TIP3    H255143   2.590   5.415   1.254 -0.1816  0.2619 -0.1825
11218TIP3   OH255144   0.106   0.153  12.194  0.2697  0.3879 -0.0703
11218TIP3    H155145   0.112   0.162  12.099 -2.2555 -0.2060 -0.3699
11218TIP3    H255146   0.024   0.197  12.217 -0.3781 -1.4981  1.4836
11219TIP3   OH255147   2.127   0.886  16.410 -0.3133 -0.0862  0.3142
11219TIP3    H155148   2.130   0.963  16.354  1.1497 -0.8280 -0.7011
11219TIP3    H255149   2.052   0.900  16.467 -0.1787  2.0069  0.0542
11220TIP3   OH255150   4.472   6.532   1.703 -0.5645 -0.1356 -0.2323
11220TIP3    H155151   4.520   6.580   1.770  0.0754 -3.1693  1.7040
11220TIP3    H255152   4.540   6.502   1.642 -0.5459 -0.7956  0.0974
11221TIP3   OH255153   6.801   2.055   0.887  0.2142  0.7545  0.3069
11221TIP3    H155154   6.786   2.122   0.953  0.1228 -0.6636  1.8017
11221TIP3    H255155   6.728   1.994   0.898 -0.4585  1.0891 -1.9444
11222TIP3   OH255156   1.835   4.780  15.911  0.1314  0.2504  0.6969
11222TIP3    H155157   1.857   4.800  16.002  0.5282 -0.0330  0.6711
11222TIP3    H255158   1.847   4.685  15.905  2.6487  0.5583 -0.2932
11223TIP3   OH255159   0.548   4.107  16.869  0.6609  0.7597 -0.1252
11223TIP3    H155160   0.463   4.066  16.853  0.4625  0.7665  0.8509
11223TIP3    H255161   0.576   4.137  16.783  0.4354 -0.6967 -0.7368
11224TIP3   OH255162   1.765   5.090   5.144 -0.0042  0.3375 -0.2465
11224TIP3    H155163   1.721   5.070   5.061  0.9639  2.7068 -1.4012
11224TIP3    H255164   1.856   5.063   5.130 -0.3448 -1.7356  1.0698
11225TIP3   OH255165   3.168   0.297  13.109  0.1906  0.4758  0.1869
11225TIP3    H155166   3.201   0.208  13.096  0.7355  0.7849 -0.5810
11225TIP3    H255167   3.074   0.290  13.091 -0.1836 -0.3412  2.0872
11226TIP3   OH255168   5.759   0.608   4.826  0.2287 -0.1105  0.3287
11226TIP3    H155169   5.683   0.666   4.829 -1.7157 -1.9181 -4.2116
11226TIP3    H255170   5.723   0.521   4.843  1.8796 -0.7130  0.9390
11227TIP3   OH255171   2.928   1.548   4.954 -0.3110  0.3215  0.6595
11227TIP3    H155172   2.959   1.632   4.921  0.6357  0.2562  1.3458
11227TIP3    H255173   2.870   1.515   4.885  1.8120  0.0420 -1.1070
11228TIP3   OH255174   6.194   3.596   2.449 -0.0022  0.0303 -0.4779
11228TIP3    H155175   6.216   3.542   2.373 -1.0200  0.5332 -1.1538
11228TIP3    H255176   6.122   3.652   2.419 -0.3293  0.3432  0.8113
11229TIP3   OH255177   4.508   6.641  17.142  0.5581 -0.1863  0.2965
11229TIP3    H155178   4.507   6.736  17.158  1.9069  0.0214 -0.6198
11229TIP3    H255179   4.542   6.604  17.223  0.7907  0.1962  0.3785
11230TIP3   OH255180   3.287   2.027   5.964 -0.2821  0.6134 -0.1250
11230TIP3    H155181   3.273   2.062   6.052  0.6614  0.1642  0.2191
11230TIP3    H255182   3.376   2.054   5.942 -0.3561  0.3495 -0.7687
11231TIP3   OH255183   3.669   1.399   3.282  0.3832  0.7381 -0.0723
11231TIP3    H155184   3.604   1.433   3.343 -0.0635 -1.4125  0.7438
11231TIP3    H255185   3.658   1.304   3.286  2.3200  0.4072 -1.3335
11232TIP3   OH255186   3.287   2.658  16.695  0.1843 -1.0786  0.3453
11232TIP3    H155187   3.288   2.737  16.641 -1.5990 -1.8865 -0.9414
11232TIP3    H255188   3.287   2.692  16.785 -1.6077  0.4604 -0.1693
11233TIP3   OH255189   0.768   1.053  12.253  0.3199  0.7399  0.4256
11233TIP3    H155190   0.757   1.071  12.160  0.0254  1.9086  0.6699
11233TIP3    H255191   0.851   1.096  12.276  0.9289 -0.4397  0.4840
11234TIP3   OH255192   2.531   0.507   3.556  0.3345  0.1532 -0.0130
11234TIP3    H155193   2.544   0.563   3.633 -0.3551 -2.5960  2.3033
11234TIP3    H255194   2.441   0.475   3.565  0.9700 -1.9820 -0.6967
11235TIP3   OH255195   6.749   1.831   5.266  0.0900  0.0309  0.0728
11235TIP3    H155196   6.729   1.886   5.190 -0.9508  1.1283  1.0875
11235TIP3    H255197   6.695   1.868   5.337 -0.0609 -1.8441  0.9903
11236TIP3   OH255198   2.737   2.621  12.606 -0.0454  0.4177  0.0186
11236TIP3    H155199   2.755   2.619  12.700  0.2400  0.6070 -0.0321
11236TIP3    H255200   2.815   2.660  12.567 -0.8365  1.9147 -0.1305
11237TIP3   OH255201   3.077   1.124  13.332 -0.1054  0.1403  0.6760
11237TIP3    H155202   3.026   1.046  13.355  0.7742 -0.7392 -0.2859
11237TIP3    H255203   3.167   1.093  13.325  0.2378  1.2117  0.1144
11238TIP3   OH255204   4.907   2.280  16.889  0.0500  0.0253  1.3829
11238TIP3    H155205   4.880   2.331  16.965 -0.3703  1.7513  0.1671
11238TIP3    H255206   4.830   2.282  16.831  1.1483  0.9762 -0.1399
11239TIP3   OH255207   2.784   0.287  15.123 -0.1670 -0.1035  0.2434
11239TIP3    H155208   2.874   0.269  15.148 -0.0492  0.9690  0.6476
11239TIP3    H255209   2.732   0.266  15.201 -0.1870 -0.0178  0.2534
11240TIP3   OH255210   5.080   2.569   0.446 -0.0256 -0.6065  0.1061
11240TIP3    H155211   5.101   2.597   0.535  2.1069 -1.0197 -0.2281
11240TIP3    H255212   5.003   2.621   0.422 -0.3058 -0.0918  1.9623
11241TIP3   OH255213   4.632   5.732  12.307 -0.9252 -0.3815 -0.4840
11241TIP3    H155214   4.661   5.658  12.253  1.2625  0.6016 -0.7667
11241TIP3    H255215   4.667   5.714  12.394 -1.2375 -0.1518 -0.3095
11242TIP3   OH255216   3.765   1.331  13.260  0.5944 -0.5537  0.0894
11242TIP3    H155217   3.747   1.270  13.188 -2.0964 -0.2207  0.3681
11242TIP3    H255218   3.776   1.416  13.217  1.4403 -0.7535 -0.0939
11243TIP3   OH255219   0.439   6.158  15.587 -0.0238 -0.1339  0.1771
11243TIP3    H155220   0.431   6.137  15.494  0.1517 -0.1293  0.1612
11243TIP3    H255221   0.380   6.096  15.631  1.0093 -1.1347  0.1951
11244TIP3   OH255222   5.794   0.255   5.843  0.6231  0.2087 -0.1182
11244TIP3    H155223   5.880   0.219   5.818  0.8342 -0.7966  1.7959
11244TIP3    H255224   5.731   0.202   5.794  1.0556 -0.4131 -0.0241
11245TIP3   OH255225   4.674   3.532  16.765  0.7311  0.5161 -0.3798
11245TIP3    H155226   4.762   3.560  16.791  0.9030  0.6269 -1.0713
11245TIP3    H255227   4.616   3.584  16.821  1.0753  1.4392 -0.8690
11246TIP3   OH255228   6.374   1.612  11.743 -0.1751  0.1101  0.2899
11246TIP3    H155229   6.377   1.693  11.693  0.5438  0.8733  1.5424
11246TIP3    H255230   6.408   1.546  11.683 -2.8093  0.2490 -1.5452
11247TIP3   OH255231   5.357   4.975  15.868 -0.6277  0.5233  0.1155
11247TIP3    H155232   5.398   5.007  15.788 -0.3339  2.8268  1.1281
11247TIP3    H255233   5.294   5.043  15.892 -1.3948 -0.5726  1.3442
11248TIP3   OH255234   3.206   6.272  11.182  0.3171  0.1691  0.0506
11248TIP3    H155235   3.183   6.358  11.217 -0.8951  0.9929 -2.5657
11248TIP3    H255236   3.127   6.241  11.139  1.3848 -1.2664 -0.9789
11249TIP3   OH255237   1.711   1.452  17.015 -0.1373  0.0183 -0.1374
11249TIP3    H155238   1.616   1.462  17.010  0.0049  3.0877  1.2621
11249TIP3    H255239   1.724   1.362  17.045 -2.7579  0.4050  2.5608
11250TIP3   OH255240   6.709   1.860   1.859 -0.4208  0.2171  0.0250
11250TIP3    H155241   6.673   1.913   1.787 -0.5541  0.9934  0.6510
11250TIP3    H255242   6.774   1.917   1.900 -2.1137  0.7796  2.0933
11251TIP3   OH255243   6.085   2.293  14.393 -0.2641 -0.0448 -0.2389
11251TIP3    H155244   6.125   2.351  14.458  0.3978 -1.2743  0.4845
11251TIP3    H255245   6.001   2.268  14.431  1.0145 -2.4924  1.2701
11252TIP3   OH255246   3.708   6.637  13.674  0.1641  0.2503  0.2723
11252TIP3    H155247   3.676   6.551  13.700 -0.8469  0.3005 -0.7292
11252TIP3    H255248   3.758   6.620  13.593  3.1240  0.1103  1.9892
11253TIP3   OH255249   3.349   5.701   4.585  0.2444 -0.1508 -0.1375
11253TIP3    H155250   3.314   5.674   4.501 -0.9948 -0.0543  0.3229
11253TIP3    H255251   3.354   5.796   4.580 -0.9933 -0.0461  0.3091
11254TIP3   OH255252   2.852   2.612  11.450 -0.0557 -0.3356 -0.4335
11254TIP3    H155253   2.783   2.565  11.497  0.6164 -0.8362  0.0776
11254TIP3    H255254   2.871   2.557  11.374  1.1348 -1.2226  0.4719
11255TIP3   OH255255   3.630   6.528   3.964 -0.6369  0.2177  0.6047
11255TIP3    H155256   3.655   6.571   3.882  0.4288 -1.1208  0.1759
11255TIP3    H255257   3.548   6.569   3.989 -2.0177 -0.6144 -2.1438
11256TIP3   OH255258   4.013   5.477   4.972 -0.2483 -0.3206 -0.3111
11256TIP3    H155259   4.097   5.516   4.997  0.6631 -1.7450 -1.0329
11256TIP3    H255260   3.949   5.547   4.988  1.1702  1.1063 -0.5633
11257TIP3   OH255261   5.861   3.266  11.225 -0.0554 -0.0165  0.7694
11257TIP3    H155262   5.887   3.176  11.206 -0.6611 -0.4124  1.7623
11257TIP3    H255263   5.890   3.316  11.148 -1.9241 -1.4546 -0.9807
11258TIP3   OH255264   1.006   5.443  17.032  0.3121  0.2286 -0.0717
11258TIP3    H155265   1.021   5.455  17.126  0.4455 -0.4708 -0.0031
11258TIP3    H255266   1.090   5.413  16.998 -0.1017 -0.8281 -0.1848
11259TIP3   OH255267   5.454   0.059  12.895 -0.7785 -0.2527  0.3011
11259TIP3    H155268   5.395   0.122  12.936  0.6186  0.6619  1.0120
11259TIP3    H255269   5.399  -0.016  12.873 -2.1101  0.4019  1.2902
11260TIP3   OH255270   0.797   1.098   4.098  0.1268  0.5146  0.6102
11260TIP3    H155271   0.801   1.153   4.020 -0.1819  3.0823  2.2905
11260TIP3    H255272   0.767   1.013   4.065 -0.9053  1.7440 -1.9360
11261TIP3   OH255273   2.618   0.272  11.383  0.1502  0.3802  0.3593
11261TIP3    H155274   2.610   0.181  11.354  1.0888 -0.0902  1.4957
11261TIP3    H255275   2.562   0.278  11.460 -0.7339  1.0605 -0.3240
11262TIP3   OH255276   5.742   6.436  11.221 -0.3221  0.1093  0.3896
11262TIP3    H155277   5.777   6.458  11.307  1.5439  0.2514 -0.3651
11262TIP3    H255278   5.678   6.505  11.203  0.3339  0.9052  1.0539
11263TIP3   OH255279   4.929   2.363   2.912 -0.0121 -0.2857 -0.0739
11263TIP3    H155280   4.849   2.341   2.960 -0.6576  0.9728 -0.5236
11263TIP3    H255281   4.957   2.447   2.949  0.3432 -0.0555 -0.8435
11264TIP3   OH255282   5.923   4.509   1.979 -0.7068 -0.0642  0.1952
11264TIP3    H155283   5.971   4.579   1.935  1.4299 -0.4399  1.7566
11264TIP3    H255284   5.842   4.550   2.009 -1.0583  0.8145 -1.7897
11265TIP3   OH255285   0.638   4.818   0.903  0.7599  0.1325 -0.1575
11265TIP3    H155286   0.594   4.899   0.931  0.0924  0.3472 -1.7516
11265TIP3    H255287   0.623   4.757   0.975  1.0294  1.3220  0.9507
11266TIP3   OH255288   5.806   5.005  16.058  0.4021  0.3833 -0.1308
11266TIP3    H155289   5.846   4.986  15.974 -0.7668 -0.3203 -0.5617
11266TIP3    H255290   5.842   4.939  16.117  1.4893  1.0960  0.0143
11267TIP3   OH255291   5.433   2.299  12.819 -0.1013  1.2528  0.5532
11267TIP3    H155292   5.457   2.391  12.816  1.3189  0.8731 -0.2690
11267TIP3    H255293   5.501   2.254  12.770 -1.6578 -0.0599 -0.5127
11268TIP3   OH255294   0.438   3.461   1.371 -0.0954  0.0990 -0.0377
11268TIP3    H155295   0.382   3.395   1.410 -3.4447  1.3499 -2.3217
11268TIP3    H255296   0.475   3.420   1.293 -0.4560  0.2531 -0.2918
11269TIP3   OH255297   1.316   3.384   1.009 -0.5925 -0.8883  0.0976
11269TIP3    H155298   1.289   3.469   0.974 -2.5042 -1.7709 -0.7189
11269TIP3    H255299   1.404   3.370   0.974 -0.7344  0.2037 -0.7527
11270TIP3   OH255300   4.717   5.649  15.154 -0.0692  0.0373 -0.1891
11270TIP3    H155301   4.674   5.734  15.146  0.7479  0.5413  0.6282
11270TIP3    H255302   4.796   5.657  15.101 -0.4674 -0.5590 -0.9022
11271TIP3   OH255303   1.852   4.409   4.960 -0.5720  0.5971 -0.9655
11271TIP3    H155304   1.814   4.360   5.033 -2.3575 -0.1123 -2.2777
11271TIP3    H255305   1.777   4.448   4.916  0.3507  0.3741 -2.8405
11272TIP3   OH255306   1.908   1.297   4.506 -0.1423 -0.4449 -0.2163
11272TIP3    H155307   1.931   1.279   4.415 -0.5107 -1.4163 -0.1267
11272TIP3    H255308   1.916   1.213   4.550 -1.6191 -0.3536  0.2880
11273TIP3   OH255309   1.647   4.090  16.221 -0.3624  0.0119 -0.1087
11273TIP3    H155310   1.685   4.178  16.220  1.0995 -0.5871 -0.8231
11273TIP3    H255311   1.714   4.035  16.179 -0.3787 -1.7876  2.0340
11274TIP3   OH255312   6.640   2.127   3.906 -0.0361  0.0894  0.6164
11274TIP3    H155313   6.659   2.220   3.893 -0.0235  0.1176  0.8301
11274TIP3    H255314   6.586   2.103   3.831  0.0802  0.2348  0.4869
11275TIP3   OH255315   1.747   3.215   3.086 -0.2074  0.0638 -0.2078
11275TIP3    H155316   1.754   3.122   3.106  0.6346  0.3021  0.7016
11275TIP3    H255317   1.798   3.258   3.155  1.1352  1.0794 -1.7844
11276TIP3   OH255318   2.734   1.794   2.355  0.2412 -0.0857  0.7646
11276TIP3    H155319   2.683   1.788   2.274  0.7849 -1.0499  0.4725
11276TIP3    H255320   2.671   1.776   2.425 -0.2231  0.7189  0.5634
11277TIP3   OH255321   5.932   3.167  13.343 -0.8759  0.7409 -0.4423
11277TIP3    H155322   5.922   3.076  13.314  0.2653  0.8424 -1.2013
11277TIP3    H255323   5.847   3.189  13.381 -1.8711  0.0332 -2.1576
11278TIP3   OH255324   0.314   0.999   0.614  0.3190 -0.6317  0.4923
11278TIP3    H155325   0.343   1.020   0.703  2.0259 -1.3422  0.1488
11278TIP3    H255326   0.392   0.963   0.572  0.2647  1.9562 -2.0930
11279TIP3   OH255327   2.534   3.108  11.055 -0.4780 -0.2440  0.4506
11279TIP3    H155328   2.594   3.041  11.023 -1.0448 -0.0392 -1.1272
11279TIP3    H255329   2.572   3.191  11.025 -0.9332 -0.0297  0.4600
11280TIP3   OH255330   4.632   5.502   1.956 -0.8638  0.1129 -0.4754
11280TIP3    H155331   4.677   5.576   1.997  1.0351 -1.1750 -0.1071
11280TIP3    H255332   4.541   5.531   1.948 -0.4108  2.0540  0.6559
11281TIP3   OH255333   3.255   3.885   3.201  0.5135 -0.0496 -0.2992
11281TIP3    H155334   3.209   3.803   3.184  0.7267 -0.0189 -1.0341
11281TIP3    H255335   3.190   3.940   3.245  0.2621 -0.4810 -0.1231
11282TIP3   OH255336   4.556   2.934  12.532 -0.4354  0.1625  0.1964
11282TIP3    H155337   4.628   2.903  12.587 -0.3456  0.0331  0.0058
11282TIP3    H255338   4.483   2.877  12.555 -0.4416  0.2104  0.2969
11283TIP3   OH255339   4.730   5.339  12.851 -0.3114 -0.2168  0.4390
11283TIP3    H155340   4.669   5.373  12.786  0.1479 -1.8571 -0.9319
11283TIP3    H255341   4.778   5.270  12.805  1.4781 -0.0547  1.9321
11284TIP3   OH255342   4.763   3.916  11.117  0.5200 -0.4197  0.1371
11284TIP3    H155343   4.734   4.006  11.131  2.8394  1.0356 -3.0443
11284TIP3    H255344   4.801   3.890  11.201  1.4169  2.2839  0.6716
11285TIP3   OH255345   6.082   5.848  14.142  0.0203  0.0957  0.2600
11285TIP3    H155346   6.164   5.800  14.129  0.4193 -0.8294  4.7514
11285TIP3    H255347   6.106   5.940  14.127  1.3444 -0.3276 -0.3735
11286TIP3   OH255348   4.794   5.140  10.922 -0.3764  0.5416  0.1685
11286TIP3    H155349   4.779   5.230  10.951  0.0567  0.6362  0.0957
11286TIP3    H255350   4.806   5.147  10.828 -0.9865  0.3260  0.0662
11287TIP3   OH255351   0.585   1.737  15.101 -0.2427 -0.2503 -0.3639
11287TIP3    H155352   0.609   1.660  15.152  1.8763 -1.1504 -2.5263
11287TIP3    H255353   0.582   1.706  15.010  0.9113  2.2299 -1.3545
11288TIP3   OH255354   1.311   5.548   3.879 -0.2742 -0.4275  0.1768
11288TIP3    H155355   1.402   5.574   3.864  0.3326 -3.2408 -1.9125
11288TIP3    H255356   1.270   5.557   3.793 -1.6780 -0.3748  0.8320
11289TIP3   OH255357   0.133   6.476   4.226 -0.1895  0.2468 -0.2522
11289TIP3    H155358   0.171   6.475   4.314 -0.1194 -0.0228 -0.2838
11289TIP3    H255359   0.040   6.459   4.239 -0.1648  0.1242 -0.2369
11290TIP3   OH255360   1.377   0.279   0.179  0.6516 -0.0628  0.0774
11290TIP3    H155361   1.396   0.372   0.164 -0.3035 -0.0347 -1.0320
11290TIP3    H255362   1.331   0.278   0.263  0.4759  0.4827 -0.0067
11291TIP3   OH255363   0.623   1.818  15.889  0.5490  0.2113  0.2660
11291TIP3    H155364   0.685   1.875  15.843  0.2032 -1.1071 -2.0301
11291TIP3    H255365   0.677   1.746  15.922  0.7910  1.1390  2.0189
11292TIP3   OH255366   1.328   3.421   2.904  0.4892 -0.0069 -0.0683
11292TIP3    H155367   1.273   3.426   2.982 -0.1917 -1.3269 -0.4312
11292TIP3    H255368   1.415   3.399   2.937  0.7628  1.7076  0.4732
11293TIP3   OH255369   4.506   3.813   1.959 -0.1555 -0.0210 -0.5569
11293TIP3    H155370   4.484   3.897   1.920  2.4679  1.2805  0.5179
11293TIP3    H255371   4.553   3.766   1.890 -0.7801 -0.2508 -0.8401
11294TIP3   OH255372   4.594   5.045  15.880  0.3209 -0.1862  0.0475
11294TIP3    H155373   4.675   4.997  15.862  0.6780 -0.2689  1.6803
11294TIP3    H255374   4.610   5.090  15.963 -1.4400 -0.5539  0.6460
11295TIP3   OH255375   5.702   5.269  16.309 -0.0977  0.5641  0.0516
11295TIP3    H155376   5.694   5.174  16.295 -1.8613  0.9235 -1.8614
11295TIP3    H255377   5.619   5.294  16.350 -0.4336  1.5137 -1.1608
11296TIP3   OH255378   3.414   0.236   5.839  0.1757 -0.1492  0.2392
11296TIP3    H155379   3.388   0.191   5.919 -0.8426  0.4547  0.2651
11296TIP3    H255380   3.438   0.166   5.779  0.2744 -0.6417  0.8503
11297TIP3   OH255381   1.614   1.692   4.399 -0.7674  0.2651 -0.1665
11297TIP3    H155382   1.572   1.727   4.477 -0.8923 -1.9322  0.8335
11297TIP3    H255383   1.627   1.599   4.418  2.4178  0.3248 -1.3394
11298TIP3   OH255384   0.244   0.284   4.180 -0.2685  0.0693  0.5837
11298TIP3    H155385   0.318   0.254   4.233 -1.7987 -0.8870  2.3180
11298TIP3    H255386   0.284   0.327   4.104  2.0340 -0.6960  1.2821
11299TIP3   OH255387   6.533   6.700  15.926 -0.2318 -0.0584 -0.1058
11299TIP3    H155388   6.582   6.772  15.966  1.8273 -1.6801  0.5094
11299TIP3    H255389   6.487   6.740  15.852  0.7786  1.8822  0.2494
11300TIP3   OH255390   3.937   3.540   1.226  0.2043 -0.1821  0.3815
11300TIP3    H155391   4.005   3.531   1.158  0.0936  0.9757  0.0946
11300TIP3    H255392   3.900   3.453   1.234 -0.0587 -0.2753 -1.3606
11301TIP3   OH255393   3.963   2.039   1.144 -0.2355 -0.3906  0.1470
11301TIP3    H155394   3.876   2.062   1.176 -0.6000 -0.2280 -0.9458
11301TIP3    H255395   4.012   2.016   1.224 -1.7272 -2.0686  0.6409
11302TIP3   OH255396   0.638   6.519  11.694  0.4875  0.5144 -0.2202
11302TIP3    H155397   0.555   6.523  11.742  0.1767  1.8123 -0.8098
11302TIP3    H255398   0.612   6.527  11.602  1.1840 -0.4465 -0.5164
11303TIP3   OH255399   5.538   5.947   3.541  0.5797 -0.5142  0.2779
11303TIP3    H155400   5.570   6.035   3.524  0.4494 -0.7906 -1.6653
11303TIP3    H255401   5.479   5.928   3.468 -0.7018 -1.5979  1.5349
11304TIP3   OH255402   3.789   6.158   1.330  0.4431 -0.0954  0.2281
11304TIP3    H155403   3.858   6.224   1.331 -0.6045  1.0400  1.8661
11304TIP3    H255404   3.815   6.096   1.398  0.9813 -0.9530 -0.7224
11305TIP3   OH255405   4.623   6.417   3.322 -0.3634  0.6230  1.2104
11305TIP3    H155406   4.710   6.457   3.317  0.3490 -0.7659  1.9506
11305TIP3    H255407   4.581   6.462   3.396  0.1280  0.5433  1.5387
11306TIP3   OH255408   4.103   6.399   7.021 -0.1098  0.1831  0.1193
11306TIP3    H155409   4.117   6.317   6.973 -1.3293  1.1057 -1.9157
11306TIP3    H255410   4.016   6.389   7.059  0.0568  0.2398  0.5162
11307TIP3   OH255411   2.650   3.161   3.886 -0.1707 -0.5552  0.6920
11307TIP3    H155412   2.605   3.109   3.953 -1.3813  0.0712  0.3893
11307TIP3    H255413   2.707   3.098   3.841 -0.0196 -1.1659  1.7004
11308TIP3   OH255414   6.387   2.598   5.563  0.4633 -0.1580  0.0914
11308TIP3    H155415   6.402   2.624   5.472  1.5676 -0.3454  0.2055
11308TIP3    H255416   6.469   2.557   5.590 -0.0904 -0.7323  0.9611
11309TIP3   OH255417   6.725   1.618   2.040  0.5689 -0.0371  0.9362
11309TIP3    H155418   6.710   1.669   2.120  0.6219  1.2614  0.1611
11309TIP3    H255419   6.650   1.638   1.984 -0.5065 -2.5199  1.3873
11310TIP3   OH255420   6.383   5.739  15.777 -0.3012  0.3626  0.1136
11310TIP3    H155421   6.444   5.675  15.813  1.3123  2.4589  1.2737
11310TIP3    H255422   6.396   5.734  15.682  1.2887  0.3762  0.3080
11311TIP3   OH255423   6.515   1.201  11.643  0.0899 -0.0556 -0.0808
11311TIP3    H155424   6.475   1.163  11.721 -1.9762 -0.0064 -1.0592
11311TIP3    H255425   6.597   1.240  11.675 -1.1567  0.8261  2.2647
11312TIP3   OH255426   3.719   1.069   2.347  0.4345 -0.3336 -0.5424
11312TIP3    H155427   3.668   1.042   2.271 -1.3614  1.7426 -0.1686
11312TIP3    H255428   3.678   1.023   2.420  2.2487 -2.4401 -0.7569
11313TIP3   OH255429   2.797   2.276   2.532  0.7036 -0.0908  0.3692
11313TIP3    H155430   2.806   2.194   2.483  1.3418 -0.2735  0.7829
11313TIP3    H255431   2.725   2.259   2.592 -1.2824  0.7145 -1.6223
11314TIP3   OH255432   3.473   2.549  13.924  0.8437  0.0650 -0.7975
11314TIP3    H155433   3.519   2.571  14.005  1.3737  2.9815 -1.7730
11314TIP3    H255434   3.533   2.490  13.878  2.0183  0.9821 -0.4937
11315TIP3   OH255435   6.076   5.130   1.981  0.1801 -0.7448  0.0873
11315TIP3    H155436   6.022   5.162   1.909  1.1006 -0.6191 -0.5736
11315TIP3    H255437   6.062   5.192   2.052  1.3573  0.7510 -0.9176
11316TIP3   OH255438   4.472   3.831  14.903  0.0219 -0.4090  0.1131
11316TIP3    H155439   4.458   3.907  14.958 -1.4120 -0.3929 -0.2204
11316TIP3    H255440   4.389   3.782  14.909  0.4662 -1.2878 -0.6548
11317TIP3   OH255441   1.289   5.636   4.714  0.6094 -0.0088 -0.1401
11317TIP3    H155442   1.283   5.546   4.682  1.4181  0.0338 -0.4519
11317TIP3    H255443   1.333   5.683   4.643  5.7423 -0.6103  2.2108
11318TIP3   OH255444   4.981   6.389   1.827 -0.4807  0.2330 -0.3960
11318TIP3    H155445   5.038   6.367   1.753 -0.1428  0.9122 -0.3464
11318TIP3    H255446   5.021   6.468   1.865 -0.9446  0.1880  0.1930
11319TIP3   OH255447   6.082   3.210  10.797 -0.0998  0.3344  0.0442
11319TIP3    H155448   6.130   3.127  10.805 -0.5109  0.0243 -0.6139
11319TIP3    H255449   6.148   3.273  10.769  0.2825  0.3037  0.8468
11320TIP3   OH255450   3.898   2.170  14.833 -0.2224  0.1443 -0.6010
11320TIP3    H155451   3.969   2.179  14.769  0.3317 -1.3812 -0.2648
11320TIP3    H255452   3.929   2.219  14.909  1.6243 -2.3326  0.3899
11321TIP3   OH255453   4.030   1.645  17.029 -0.3715 -0.1507  0.1474
11321TIP3    H155454   4.081   1.726  17.020  0.9446 -0.9542  0.1339
11321TIP3    H255455   3.951   1.661  16.977 -0.3899  1.3162  0.5742
11322TIP3   OH255456   6.153   3.762  10.883  0.5775  0.2913  0.4961
11322TIP3    H155457   6.114   3.681  10.850  2.5411 -2.0342  3.3469
11322TIP3    H255458   6.085   3.800  10.939  0.1996 -0.2747  0.4272
11323TIP3   OH255459   2.810   6.067  13.335 -0.3821  0.9384  0.5825
11323TIP3    H155460   2.901   6.092  13.348  0.3959 -1.4852  0.3998
11323TIP3    H255461   2.805   6.041  13.242 -1.3263  1.2741  0.5281
11324TIP3   OH255462   6.540   4.176   5.139  0.5941 -0.1701  0.0117
11324TIP3    H155463   6.557   4.099   5.195 -1.4835 -0.7579 -0.0837
11324TIP3    H255464   6.495   4.238   5.196  0.3344  0.0882 -0.4678
11325TIP3   OH255465   5.882   6.728  11.817 -0.3757  0.1301  0.2151
11325TIP3    H155466   5.790   6.701  11.818 -0.6406  0.9342  2.0010
11325TIP3    H255467   5.881   6.812  11.771 -0.0844 -1.0646 -2.1236
11326TIP3   OH255468   5.230   0.985  16.015 -0.4181 -0.1782 -0.0418
11326TIP3    H155469   5.281   0.921  15.964 -0.0089  0.5694 -0.5839
11326TIP3    H255470   5.140   0.972  15.987 -0.3344 -0.4997 -0.1655
11327TIP3   OH255471   4.514   3.135  16.135 -0.4776 -0.1713 -0.1090
11327TIP3    H155472   4.593   3.181  16.162  0.9874 -0.5641 -3.2812
11327TIP3    H255473   4.500   3.069  16.203  1.4352  0.4234  0.9257
11328TIP3   OH255474   1.070   4.029   5.412 -0.2313 -0.1537 -0.4060
11328TIP3    H155475   1.157   4.069   5.411 -0.3892  0.1928 -0.5693
11328TIP3    H255476   1.086   3.936   5.431  0.1301  0.0108  0.1411
11329TIP3   OH255477   5.442   6.675   5.936  0.2231  0.1756  0.1317
11329TIP3    H155478   5.486   6.590   5.938  1.7602  0.9266 -0.0850
11329TIP3    H255479   5.375   6.669   6.003  1.1396 -0.7935  0.9961
11330TIP3   OH255480   1.570   3.963  11.989 -0.2531 -0.1401  0.2123
11330TIP3    H155481   1.621   3.940  12.066  1.9436 -1.0396 -1.4167
11330TIP3    H255482   1.573   4.059  11.985  1.4126 -0.1786  0.1309
11331TIP3   OH255483   1.726   1.544  11.363 -0.5094 -0.2470  0.1385
11331TIP3    H155484   1.725   1.452  11.389  0.5416 -0.2896  0.0789
11331TIP3    H255485   1.690   1.591  11.438 -0.3070 -0.6457  0.4883
11332TIP3   OH255486   3.390   1.932  11.267  0.2511 -0.0929  0.0672
11332TIP3    H155487   3.369   1.895  11.182 -1.6801 -0.9424  0.8429
11332TIP3    H255488   3.426   1.859  11.318  0.5371  0.1790  0.2622
11333TIP3   OH255489   3.676   1.273   4.890  0.2127  0.8300 -0.0337
11333TIP3    H155490   3.709   1.342   4.947  3.2035  0.0608 -0.6552
11333TIP3    H255491   3.647   1.318   4.811  0.7257  1.5183  0.1620
11334TIP3   OH255492   3.556   3.741   4.799 -0.1209  0.4420  0.4568
11334TIP3    H155493   3.583   3.741   4.707  0.7347 -0.6664  0.6930
11334TIP3    H255494   3.461   3.756   4.796  0.1840  2.5792 -0.4885
11335TIP3   OH255495   2.971   0.855   4.705 -0.7841 -0.5073  0.4872
11335TIP3    H155496   2.957   0.948   4.685  0.4192  0.1440  2.3964
11335TIP3    H255497   2.971   0.812   4.620 -1.2209  1.2691 -0.4599
11336TIP3   OH255498   5.199   4.938   2.099  0.4185 -0.4218 -0.6206
11336TIP3    H155499   5.290   4.939   2.070  0.6449 -1.7958 -0.0736
11336TIP3    H255500   5.151   4.895   2.028  0.3070 -0.2834 -0.6301
11337TIP3   OH255501   1.055   6.372  17.037  0.0818 -0.0925 -0.0814
11337TIP3    H155502   1.135   6.399  16.991  0.4367  0.1420  0.6493
11337TIP3    H255503   1.000   6.450  17.038 -0.2208 -0.2912 -0.7002
11338TIP3   OH255504   3.904   3.091   2.388  0.5254 -0.1596  0.0234
11338TIP3    H155505   3.930   3.001   2.368 -0.7408 -0.2438 -1.3999
11338TIP3    H255506   3.951   3.144   2.324  1.1075  0.2047  0.7287
11339TIP3   OH255507   5.971   1.162  13.820 -0.6830 -0.1285  0.1136
11339TIP3    H155508   6.015   1.108  13.754 -0.8612 -1.1077  0.7760
11339TIP3    H255509   5.879   1.163  13.793 -0.9531 -1.3965  0.8721
11340TIP3   OH255510   0.029   3.401   0.310  0.0959 -0.3733  0.1138
11340TIP3    H155511   0.091   3.462   0.349 -1.8082 -0.0044  2.8516
11340TIP3    H255512   0.080   3.354   0.243  2.7558  1.1593  0.9317
11341TIP3   OH255513   0.515   4.592   2.894 -0.1644 -0.0857 -0.1497
11341TIP3    H155514   0.495   4.645   2.971 -1.2444  1.7839 -1.6018
11341TIP3    H255515   0.461   4.630   2.825  2.4471 -0.1086 -2.4054
11342TIP3   OH255516   1.914   4.755  14.949 -0.1542  0.7971  0.4779
11342TIP3    H155517   1.851   4.825  14.964  1.4426  2.4765 -0.2037
11342TIP3    H255518   1.982   4.769  15.015 -0.0419 -0.4235  0.6424
11343TIP3   OH255519   1.838   2.015   4.283 -0.4415  0.0336 -0.0760
11343TIP3    H155520   1.764   1.978   4.235 -0.0518  2.5875 -3.0086
11343TIP3    H255521   1.817   2.108   4.292  1.0286  0.2374  1.9039
11344TIP3   OH255522   1.108   1.897   3.244 -0.6962 -0.8897  1.3562
11344TIP3    H155523   1.084   1.989   3.254  0.8034 -0.3606  0.3591
11344TIP3    H255524   1.182   1.884   3.302  1.9111 -0.2543 -1.5666
11345TIP3   OH255525   5.972   5.506  12.831  0.2079 -0.2945  0.4284
11345TIP3    H155526   5.887   5.463  12.826 -0.5812  1.3043 -2.5731
11345TIP3    H255527   5.958   5.592  12.792  3.1890  0.0472 -0.1683
11346TIP3   OH255528   0.139   0.375  13.167 -0.4542 -0.2079  0.0775
11346TIP3    H155529   0.095   0.317  13.105 -0.9509  0.8494 -0.5786
11346TIP3    H255530   0.087   0.368  13.247 -1.0462  0.0268 -0.2838
11347TIP3   OH255531   1.207   2.866   2.138  0.3945 -0.6848  0.1780
11347TIP3    H155532   1.254   2.812   2.202  0.7628 -0.6055 -0.0255
11347TIP3    H255533   1.265   2.869   2.062 -0.2459 -1.1774 -0.3481
11348TIP3   OH255534   6.224   6.290   2.587  0.2177 -0.0935  0.4470
11348TIP3    H155535   6.317   6.278   2.571 -0.2072 -1.0498 -1.6863
11348TIP3    H255536   6.209   6.249   2.672  1.2194 -3.0731 -0.6651
11349TIP3   OH255537   5.680   1.714  14.648  0.3454  0.8241  0.7880
11349TIP3    H155538   5.634   1.752  14.574 -0.7188 -0.5762  0.6985
11349TIP3    H255539   5.731   1.787  14.684  1.3510  1.4166 -1.6351
11350TIP3   OH255540   3.339   6.195  17.094  0.0053 -0.3570  0.1770
11350TIP3    H155541   3.253   6.186  17.052  0.2444 -0.0353 -0.3991
11350TIP3    H255542   3.396   6.226  17.023  0.8229 -1.5471  0.2924
11351TIP3   OH255543   5.293   1.035  14.624 -0.5188  0.0641 -0.1492
11351TIP3    H155544   5.372   0.988  14.648 -0.0749  1.5399  1.5384
11351TIP3    H255545   5.323   1.106  14.567 -0.6506  0.4310  0.2283
11352TIP3   OH255546   1.474   6.572  15.893 -0.7992 -0.1645  0.1921
11352TIP3    H155547   1.473   6.487  15.938  1.3537 -0.3598 -0.0311
11352TIP3    H255548   1.435   6.633  15.956 -1.5220 -1.1461  0.7198
11353TIP3   OH255549   4.949   3.826   1.462 -0.1200 -0.2603  0.1371
11353TIP3    H155550   5.032   3.861   1.432  0.3582 -1.9183 -0.5911
11353TIP3    H255551   4.937   3.863   1.550  1.0807  0.4708  0.0063
11354TIP3   OH255552   6.674   3.708  11.877 -0.8280  0.1464  0.0194
11354TIP3    H155553   6.744   3.654  11.840 -0.1738  1.1863 -0.3074
11354TIP3    H255554   6.664   3.678  11.967 -0.2402 -0.2912 -0.0618
11355TIP3   OH255555   6.426   4.281   2.634  0.2512  0.1083 -0.9672
11355TIP3    H155556   6.350   4.257   2.580  0.1622 -1.1550 -0.3143
11355TIP3    H255557   6.422   4.221   2.709  1.4134  0.6027 -0.4915
11356TIP3   OH255558   0.019   6.270  16.502 -0.1147  0.3364  0.3195
11356TIP3    H155559   0.030   6.350  16.554 -1.9803  1.0003 -0.2357
11356TIP3    H255560  -0.052   6.291  16.441  1.6823 -0.5509 -2.2434
11357TIP3   OH255561   3.173   6.698  14.725  0.2706  0.4486  0.7825
11357TIP3    H155562   3.130   6.702  14.810  1.7567  0.2042  1.5888
11357TIP3    H255563   3.236   6.771  14.726 -1.2365  1.8894 -1.0439
11358TIP3   OH255564   4.907   0.867  12.506 -0.9693 -0.0788 -0.2249
11358TIP3    H155565   4.922   0.928  12.578 -3.6677  0.6445 -0.1775
11358TIP3    H255566   4.864   0.792  12.546 -1.1288 -0.3354 -0.8588
11359TIP3   OH255567   5.790   3.360   4.996  0.3701 -0.1719  0.2056
11359TIP3    H155568   5.798   3.431   4.933 -1.1918  0.6467  0.8682
11359TIP3    H255569   5.754   3.287   4.946  1.3300 -0.2961 -0.3256
11360TIP3   OH255570   6.067   2.287  13.006  0.1857  1.0039 -0.2840
11360TIP3    H155571   6.127   2.214  13.018  0.2050  1.0174 -0.2989
11360TIP3    H255572   6.008   2.259  12.936  0.2531  1.0405 -0.3560
11361TIP3   OH255573   4.588   2.410   3.322 -0.2901 -0.0555 -0.4361
11361TIP3    H155574   4.521   2.471   3.353  0.2901  1.0616 -1.3256
11361TIP3    H255575   4.621   2.369   3.402  0.1057  1.6482  0.3089
11362TIP3   OH255576   4.935   5.025   4.857 -0.2550 -0.4372  0.0384
11362TIP3    H155577   4.867   5.090   4.870 -0.8069 -1.3625  2.0113
11362TIP3    H255578   4.903   4.972   4.784 -0.2588  0.8389 -0.9361
11363TIP3   OH255579   4.364   2.477   5.374  0.3063 -0.2616  0.6186
11363TIP3    H155580   4.343   2.417   5.302 -2.1522  1.0335  0.1537
11363TIP3    H255581   4.458   2.494   5.364  0.4292 -1.6438 -1.0722
11364TIP3   OH255582   4.722   1.164  14.712  0.0326 -0.2058 -0.6665
11364TIP3    H155583   4.638   1.188  14.673 -0.9512 -0.1184  1.3700
11364TIP3    H255584   4.747   1.084  14.666 -1.8568 -1.0051 -0.4215
11365TIP3   OH255585   1.295   2.549   6.315  0.0059  0.5384  0.1284
11365TIP3    H155586   1.349   2.569   6.391 -1.5203  1.9300  0.9243
11365TIP3    H255587   1.260   2.634   6.288 -2.7010 -0.3860  0.4160
11366TIP3   OH255588   0.025   6.444  13.001 -0.0811  0.0191 -0.0993
11366TIP3    H155589   0.069   6.517  13.045 -1.8195  1.2470 -0.2851
11366TIP3    H255590  -0.017   6.483  12.925 -1.5454 -1.0352  0.1110
11367TIP3   OH255591   2.595   5.550  11.056 -0.0665  0.7919  0.7719
11367TIP3    H155592   2.655   5.622  11.037 -0.4735  0.8640 -0.3469
11367TIP3    H255593   2.617   5.522  11.145  2.6010 -0.1184 -0.0617
11368TIP3   OH255594   0.684   1.030  13.990  0.0531 -0.7635  0.2303
11368TIP3    H155595   0.706   0.956  14.047  4.4063  0.5531  0.5995
11368TIP3    H255596   0.632   1.088  14.045  0.6437 -1.4057  1.5195
11369TIP3   OH255597   4.461   1.632  16.724 -0.0562 -0.0929 -0.2738
11369TIP3    H155598   4.431   1.690  16.794 -3.5547 -0.4281 -1.2599
11369TIP3    H255599   4.553   1.654  16.712  0.0349  1.7263  2.6788
11370TIP3   OH255600   1.973   0.921   5.782 -0.1772  0.4161  0.1397
11370TIP3    H155601   1.942   0.841   5.740  5.1501 -2.1793  0.2954
11370TIP3    H255602   1.902   0.946   5.841 -2.1495 -4.3433  0.2531
11371TIP3   OH255603   0.904   0.246   1.181  0.7434  0.0262  0.2169
11371TIP3    H155604   0.943   0.183   1.119 -0.0798 -1.5495  1.2423
11371TIP3    H255605   0.840   0.195   1.230 -1.3040  2.0964 -0.1198
11372TIP3   OH255606   6.634   3.290   1.212  0.1664  0.7071 -0.3091
11372TIP3    H155607   6.566   3.358   1.214  0.5046  1.2235 -3.1168
11372TIP3    H255608   6.717   3.339   1.209  0.4584  0.1764 -1.2650
11373TIP3   OH255609   2.940   0.815   4.433 -0.0656 -0.0022 -0.5252
11373TIP3    H155610   2.979   0.749   4.376 -0.5511  0.6508 -1.6369
11373TIP3    H255611   2.940   0.895   4.381 -0.4537  0.6324  0.4230
11374TIP3   OH255612   0.483   0.779   5.767  0.0679 -0.5276  0.5455
11374TIP3    H155613   0.390   0.803   5.773 -0.0887 -0.4829 -1.4397
11374TIP3    H255614   0.486   0.688   5.797 -1.2062 -1.6206 -2.3233
11375TIP3   OH255615   4.611   3.031   2.912  0.3061 -0.0854  0.2989
11375TIP3    H155616   4.559   3.108   2.891  0.5093 -0.3602 -1.3730
11375TIP3    H255617   4.556   2.957   2.887 -0.3286 -0.5922  2.8960
11376TIP3   OH255618   0.704   4.693  12.256  0.1110  0.6768 -0.3331
11376TIP3    H155619   0.660   4.778  12.246 -1.9796 -0.2412  0.3187
11376TIP3    H255620   0.673   4.662  12.342  0.5469 -0.8846 -0.7247
11377TIP3   OH255621   2.109   0.201   4.636 -0.0524 -0.0343 -0.6212
11377TIP3    H155622   2.157   0.276   4.602  0.4223  0.3554  0.8311
11377TIP3    H255623   2.046   0.237   4.698 -1.1462 -0.6846 -1.3255
11378TIP3   OH255624   3.142   4.156  14.050  0.4637  0.5843  0.5549
11378TIP3    H155625   3.183   4.173  14.134  0.1853 -0.2182  0.8632
11378TIP3    H255626   3.109   4.067  14.057 -1.8689  1.3634  0.5629
11379TIP3   OH255627   5.445   4.940  14.966 -0.0709 -0.2450  0.0484
11379TIP3    H155628   5.395   4.880  15.021  0.7167 -0.0341  1.0407
11379TIP3    H255629   5.530   4.897  14.955  0.2108  0.2960  0.0711
11380TIP3   OH255630   0.740   6.352  13.530 -0.5121  0.0355  0.1556
11380TIP3    H155631   0.739   6.410  13.606 -2.2174  1.0919 -0.6247
11380TIP3    H255632   0.649   6.347  13.502 -0.5301 -3.3319  0.3835
11381TIP3   OH255633   0.738   3.616   3.257 -0.2298 -0.0292  0.1583
11381TIP3    H155634   0.797   3.692   3.247 -0.6320  0.2450 -0.1751
11381TIP3    H255635   0.764   3.576   3.340  1.2648 -0.6409 -0.5546
11382TIP3   OH255636   3.294   6.593   1.754 -0.0277  0.3807 -0.3396
11382TIP3    H155637   3.326   6.519   1.806 -1.2074 -0.0564 -0.1974
11382TIP3    H255638   3.360   6.661   1.766  1.1742 -0.6946 -0.6045
11383TIP3   OH255639   2.709   0.350  12.996 -0.2321 -0.2329  0.7752
11383TIP3    H155640   2.693   0.281  12.931  0.8757  0.6570 -0.4967
11383TIP3    H255641   2.656   0.325  13.071 -0.6736 -1.9112 -0.0497
11384TIP3   OH255642   0.832   4.180   1.044  0.0609  0.4241 -0.3704
11384TIP3    H155643   0.816   4.193   1.137 -1.5339  0.4746 -0.6243
11384TIP3    H255644   0.755   4.132   1.013 -0.4571  2.2279 -2.0591
11385TIP3   OH255645   4.264   3.478  12.276 -0.4883  0.4102 -0.6720
11385TIP3    H155646   4.245   3.439  12.361  0.6110  0.1228 -0.5340
11385TIP3    H255647   4.285   3.569  12.295 -0.4380  0.3946 -0.6510
11386TIP3   OH255648   1.025   5.443  16.199  0.4080 -0.6288 -0.5029
11386TIP3    H155649   1.023   5.503  16.274 -1.0630 -1.3210  0.0481
11386TIP3    H255650   1.028   5.501  16.123 -0.8226  0.1687  0.0203
11387TIP3   OH255651   6.391   2.501   2.173 -0.3535  0.3264  0.4050
11387TIP3    H155652   6.378   2.566   2.242 -2.2769  1.0227 -0.5481
11387TIP3    H255653   6.346   2.423   2.205  0.5239 -0.0250  0.8140
11388TIP3   OH255654   6.516   5.053  16.220  0.3142  0.0805 -0.5660
11388TIP3    H155655   6.425   5.079  16.232  0.4679  0.4178 -0.0774
11388TIP3    H255656   6.548   5.037  16.309  0.9697  0.7939 -0.6552
11389TIP3   OH255657   5.477   2.665   2.872 -0.6328  0.0841  0.8839
11389TIP3    H155658   5.524   2.743   2.904  1.1546 -0.5674 -0.0207
11389TIP3    H255659   5.407   2.652   2.936 -0.9627  2.3918  1.0924
11390TIP3   OH255660   5.831   0.968   3.878 -0.1349  0.9592 -0.6318
11390TIP3    H155661   5.789   0.981   3.963  3.3971  0.0275  1.4349
11390TIP3    H255662   5.768   0.915   3.828 -1.8131  0.4771  1.8432
11391TIP3   OH255663   2.069   1.136   3.240 -0.1138  0.1144 -0.1156
11391TIP3    H155664   2.148   1.104   3.195 -0.6214 -1.2064 -0.1055
11391TIP3    H255665   2.000   1.076   3.213 -0.9743  0.8318  0.4405
11392TIP3   OH255666   3.154   1.537   0.157 -0.1462 -0.7209 -0.3336
11392TIP3    H155667   3.112   1.474   0.216 -0.4881 -0.4914 -0.3225
11392TIP3    H255668   3.084   1.599   0.136  0.5294  0.4884  0.7982
11393TIP3   OH255669   2.747   5.159   1.008  0.0166 -0.0581 -0.1803
11393TIP3    H155670   2.719   5.167   0.917 -0.5196 -0.0770 -0.0209
11393TIP3    H255671   2.841   5.141   1.003 -0.3051 -1.7046 -0.7795
11394TIP3   OH255672   3.610   0.667  16.309 -0.6151  0.3697 -0.0394
11394TIP3    H155673   3.595   0.703  16.222 -2.2884 -1.4203 -0.5597
11394TIP3    H255674   3.538   0.605  16.322  0.4298 -0.4978  2.0155
11395TIP3   OH255675   5.827   3.885   2.843  0.2745 -0.6574  0.1600
11395TIP3    H155676   5.825   3.939   2.764 -0.1875 -2.4993 -1.1531
11395TIP3    H255677   5.751   3.827   2.834 -2.3150  1.7416  3.9994
11396TIP3   OH255678   2.507   3.978   3.372 -0.8740 -0.2968  0.0825
11396TIP3    H155679   2.577   3.951   3.432  0.3995 -0.9438 -1.5954
11396TIP3    H255680   2.500   4.072   3.384  1.3194  0.0185 -0.6781
11397TIP3   OH255681   1.067   6.189  16.149 -0.0456  0.0602 -0.1049
11397TIP3    H155682   1.068   6.185  16.053 -0.4759  0.0068 -0.1090
11397TIP3    H255683   1.091   6.100  16.177 -0.8468 -0.1830 -0.1690
11398TIP3   OH255684   1.668   6.427  14.399  0.0725 -0.1552 -0.0320
11398TIP3    H155685   1.651   6.444  14.306  0.7211  0.0196 -0.1305
11398TIP3    H255686   1.763   6.411  14.403 -0.1564 -1.5230  0.4047
11399TIP3   OH255687   2.704   1.723  16.333  0.1103  0.4581  0.5150
11399TIP3    H155688   2.630   1.782  16.323 -0.5722 -0.5644 -0.6723
11399TIP3    H255689   2.769   1.754  16.271 -0.0200  0.3054  0.3029
11400TIP3   OH255690   0.084   3.014   1.887  0.4341  0.2623 -0.1182
11400TIP3    H155691   0.091   3.056   1.972  1.4766 -0.5306  0.2045
11400TIP3    H255692   0.135   2.933   1.895 -1.1537 -0.8619 -0.8499
11401TIP3   OH255693   6.320   5.523  10.616  0.1798  0.2898  0.9281
11401TIP3    H155694   6.408   5.544  10.646 -0.0319  0.4464  1.4568
11401TIP3    H255695   6.263   5.584  10.663 -0.1852  0.4139  0.3454
11402TIP3   OH255696   2.144   3.748   2.849  0.6350 -0.1134  0.4280
11402TIP3    H155697   2.110   3.684   2.786 -0.5806 -0.5983  1.5120
11402TIP3    H255698   2.075   3.754   2.915  2.5081 -0.8727  2.6081
11403TIP3   OH255699   4.578   5.548  13.309  0.1418 -0.3173  0.1661
11403TIP3    H155700   4.503   5.591  13.349 -1.3766 -1.8654 -0.8963
11403TIP3    H255701   4.569   5.567  13.215  0.9588 -0.7170  0.0021
11404TIP3   OH255702   6.095   6.460  10.523  0.0362  0.0153 -0.7396
11404TIP3    H155703   6.034   6.520  10.567  0.1647 -0.8661  0.7035
11404TIP3    H255704   6.039   6.393  10.484  0.0317 -0.5305  0.1771
11405TIP3   OH255705   6.766   6.773  12.024  0.7630  0.0592 -0.0012
11405TIP3    H155706   6.739   6.724  11.946  0.6775 -0.7691  0.5321
11405TIP3    H255707   6.688   6.822  12.050  0.6357 -0.0738 -0.1318
11406TIP3   OH255708   4.223   5.806  15.895  0.3768  0.3069  0.0244
11406TIP3    H155709   4.300   5.762  15.932 -1.1531 -1.6027  1.1529
11406TIP3    H255710   4.211   5.765  15.809 -1.1816 -1.8647  1.1667
11407TIP3   OH255711   5.076   1.916   0.311 -0.1022 -0.1468 -0.0161
11407TIP3    H155712   5.043   1.988   0.258 -0.0793  0.0605  0.2479
11407TIP3    H255713   5.066   1.838   0.256  1.2707  0.2644 -0.8770
11408TIP3   OH255714   4.722   1.453  14.687 -0.0992  0.2327  0.1371
11408TIP3    H155715   4.655   1.485  14.747  0.5434  0.7616  0.5864
11408TIP3    H255716   4.760   1.378  14.732  1.5406  1.6256  1.2210
11409TIP3   OH255717   4.979   1.859  12.629 -0.4346  0.3884 -1.3044
11409TIP3    H155718   4.982   1.941  12.679 -0.7086 -0.0726 -0.4994
11409TIP3    H255719   5.067   1.847  12.595  0.3927 -0.3797  0.9277
11410TIP3   OH255720   3.057   3.817   1.234 -0.2366 -0.0130  0.0563
11410TIP3    H155721   3.122   3.844   1.299 -0.5672 -3.4019  2.0718
11410TIP3    H255722   2.977   3.805   1.285 -1.2588 -0.2033 -1.5435
11411TIP3   OH255723   3.574   1.569  14.759  0.3143 -0.6997  0.0026
11411TIP3    H155724   3.571   1.579  14.854 -0.5773  0.2211 -0.1067
11411TIP3    H255725   3.530   1.485  14.742  1.0745 -1.1973  0.4316
11412TIP3   OH255726   4.942   1.150   5.899 -0.1805  0.6912 -0.7413
11412TIP3    H155727   5.005   1.124   5.967 -1.2702 -1.1079 -0.3562
11412TIP3    H255728   4.857   1.144   5.942 -0.9283 -0.8867 -2.3353
11413TIP3   OH255729   5.016   1.663   3.505 -0.3705  0.5050  0.7084
11413TIP3    H155730   5.057   1.748   3.489 -0.1925  0.0478 -1.4588
11413TIP3    H255731   5.080   1.614   3.556  0.8875  0.5692 -0.7681
11414TIP3   OH255732   0.300   6.240  11.248  0.3128 -0.0293  0.2210
11414TIP3    H155733   0.359   6.171  11.217  1.2196  0.3073  1.1356
11414TIP3    H255734   0.299   6.304  11.177 -0.0204 -0.6756 -0.3613
11415TIP3   OH255735   3.704   1.789  11.646 -0.7108 -0.0844 -0.0309
11415TIP3    H155736   3.715   1.794  11.741  0.6044 -1.3850 -0.0888
11415TIP3    H255737   3.752   1.711  11.620 -2.2880 -0.5950 -1.6069
11416TIP3   OH255738   2.436   3.084  14.566 -0.3015 -0.2038  0.5434
11416TIP3    H155739   2.469   2.996  14.582  1.1562 -0.0199 -1.0753
11416TIP3    H255740   2.409   3.084  14.475  1.6011  1.4969 -0.1083
11417TIP3   OH255741   5.822   2.771  10.727 -0.5638 -0.0421 -0.0317
11417TIP3    H155742   5.788   2.802  10.644 -3.6012 -1.1251  0.6859
11417TIP3    H255743   5.825   2.848  10.783 -2.0641  0.1004 -0.1061
11418TIP3   OH255744   6.147   5.673  10.859  0.2933 -0.8119 -0.2637
11418TIP3    H155745   6.212   5.677  10.929  0.7785 -1.6031 -0.6570
11418TIP3    H255746   6.135   5.764  10.832  0.1733 -0.5057  0.7729
11419TIP3   OH255747   2.945   2.002   0.990  0.5487 -0.4830 -0.9437
11419TIP3    H155748   2.948   1.983   1.084  0.5529  0.9902 -0.6321
11419TIP3    H255749   2.994   1.930   0.950 -0.2631 -1.6572  0.0808
11420TIP3   OH255750   6.690   6.465  13.584 -0.1535 -0.0185 -0.1195
11420TIP3    H155751   6.653   6.512  13.509  0.9533  1.4174  0.1835
11420TIP3    H255752   6.615   6.443  13.639 -0.7952  0.6115 -0.7297
11421TIP3   OH255753   3.032   3.169   6.122  0.1019 -0.3676 -0.2801
11421TIP3    H155754   2.996   3.251   6.157 -1.3209 -1.7702  1.8472
11421TIP3    H255755   2.960   3.107   6.131  1.6074 -2.2055 -0.3820
11422TIP3   OH255756   0.341   6.307   0.954  0.3025  0.3408  0.7883
11422TIP3    H155757   0.430   6.343   0.956  0.5547 -0.2594  0.7472
11422TIP3    H255758   0.309   6.327   0.866 -0.3520  2.2830  1.4199
11423TIP3   OH255759   6.120   0.863   1.133 -0.7647  0.2812  0.1835
11423TIP3    H155760   6.069   0.868   1.052 -0.1490  0.1980 -0.2171
11423TIP3    H255761   6.193   0.924   1.119 -0.7427  0.3875  0.7415
11424TIP3   OH255762   0.554   0.899   0.473  0.2176 -0.1219  0.7737
11424TIP3    H155763   0.548   0.810   0.441  1.0475  0.8668 -2.5137
11424TIP3    H255764   0.642   0.905   0.511  1.1730 -0.1471 -1.2752
11425TIP3   OH255765   5.448   3.427  10.721  0.3427  0.7023 -0.0294
11425TIP3    H155766   5.453   3.331  10.721  2.2372  0.7617 -0.5126
11425TIP3    H255767   5.366   3.446  10.675  1.1658 -0.6836 -2.2695
11426TIP3   OH255768   3.445   5.305  12.503  0.7734  0.1501 -0.3167
11426TIP3    H155769   3.432   5.269  12.415 -1.3044  1.8793 -0.7881
11426TIP3    H255770   3.445   5.228  12.560 -2.1253 -0.8053 -1.4254
11427TIP3   OH255771   6.559   3.946  12.369  0.1308 -0.4894 -0.6855
11427TIP3    H155772   6.605   4.030  12.377 -0.1847 -0.4086  0.4334
11427TIP3    H255773   6.467   3.967  12.384  0.3847 -1.4648  3.2299
11428TIP3   OH255774   0.559   1.094   4.282 -0.0312 -0.2199 -0.4283
11428TIP3    H155775   0.532   1.113   4.193 -1.9876  0.4056  0.2412
11428TIP3    H255776   0.517   1.011   4.303 -0.7766  0.3402  0.3639
11429TIP3   OH255777   5.946   1.561  16.650 -0.1175  0.2373  0.4918
11429TIP3    H155778   5.884   1.521  16.711 -0.3220 -0.2739 -0.0357
11429TIP3    H255779   6.031   1.527  16.677 -0.1725  0.2633  0.6940
11430TIP3   OH255780   6.367   4.171  11.622 -0.2241  0.3032  0.0665
11430TIP3    H155781   6.412   4.100  11.576 -2.4823 -0.7596 -0.6776
11430TIP3    H255782   6.428   4.199  11.690  1.5526 -0.9450 -0.9551
11431TIP3   OH255783   5.900   6.235  14.090  0.1156 -0.1093 -0.0240
11431TIP3    H155784   5.903   6.187  14.173  0.7989  0.6274  0.3873
11431TIP3    H255785   5.968   6.193  14.037 -0.1376 -0.4067 -0.1145
11432TIP3   OH255786   0.374   6.144  14.265 -0.7910 -0.3243  0.6559
11432TIP3    H155787   0.351   6.225  14.218  0.3214 -0.3030  0.1094
11432TIP3    H255788   0.417   6.174  14.345 -2.9007 -0.3568  1.8617
11433TIP3   OH255789   0.694   5.625   3.513 -0.3620 -0.2851 -0.0811
11433TIP3    H155790   0.624   5.595   3.454  0.5852 -2.2055 -0.2955
11433TIP3    H255791   0.649   5.682   3.576 -2.2384 -1.8114  0.0592
11434TIP3   OH255792   5.423   4.920   2.618 -0.0470 -0.6565 -0.6061
11434TIP3    H155793   5.449   4.976   2.545 -0.9891 -2.6696 -2.5806
11434TIP3    H255794   5.364   4.974   2.670 -0.8345  0.2540 -2.3651
11435TIP3   OH255795   4.232   5.409   3.994  0.0579  0.1314 -0.1779
11435TIP3    H155796   4.319   5.371   3.983 -0.4329 -1.2798  0.5249
11435TIP3    H255797   4.235   5.451   4.081 -0.3525 -1.1122  0.4585
11436TIP3   OH255798   5.595   4.435   3.684 -0.5396  0.1393 -0.2156
11436TIP3    H155799   5.686   4.458   3.665 -0.2926 -0.9802 -0.4775
11436TIP3    H255800   5.584   4.453   3.777  0.7531 -2.1761  0.4482
11437TIP3   OH255801   4.364   5.374  10.697 -0.2695  1.0199 -0.0638
11437TIP3    H155802   4.383   5.398  10.788 -2.0833  0.9757  0.3641
11437TIP3    H255803   4.295   5.434  10.670 -0.1218  0.6818 -1.2394
11438TIP3   OH255804   1.850   2.001   3.699 -0.2811 -0.3051 -0.0738
11438TIP3    H155805   1.779   2.065   3.693  2.0012  2.6815  2.0048
11438TIP3    H255806   1.817   1.935   3.761 -0.8453  1.8518  2.0981
11439TIP3   OH255807   0.472   5.047   2.053 -0.2234  0.0487 -0.3818
11439TIP3    H155808   0.440   5.064   1.964 -1.1766  1.9383  0.2676
11439TIP3    H255809   0.565   5.070   2.050  0.2595 -1.8547 -1.3564
11440TIP3   OH255810   3.189   2.466   1.987  0.2392 -0.0645  0.1100
11440TIP3    H155811   3.142   2.389   1.957 -1.3445  0.8940 -0.0025
11440TIP3    H255812   3.239   2.495   1.911 -0.8532  0.2198 -0.5291
11441TIP3   OH255813   3.704   0.337   4.736  0.1329  0.5359  0.2888
11441TIP3    H155814   3.642   0.314   4.667 -2.6045  1.5891  2.2165
11441TIP3    H255815   3.750   0.413   4.703  1.5007 -1.0628 -1.7338
11442TIP3   OH255816   0.863   3.542   1.735  0.0459 -0.6112  0.5307
11442TIP3    H155817   0.931   3.608   1.744  0.0436 -0.6657  0.9723
11442TIP3    H255818   0.869   3.514   1.644 -0.0818  0.1311  0.2878
11443TIP3   OH255819   2.782   6.580   3.084 -0.0280  0.0058  0.1576
11443TIP3    H155820   2.780   6.525   3.162 -4.4852  0.8488  0.9369
11443TIP3    H255821   2.786   6.669   3.117  1.2672  0.3492 -0.8185
11444TIP3   OH255822   0.890   0.471   5.883 -0.3742  0.3240 -1.1237
11444TIP3    H155823   0.794   0.469   5.888 -0.2984 -0.1429  1.3796
11444TIP3    H255824   0.913   0.399   5.825 -1.4841 -1.4667  0.5669
11445TIP3   OH255825   1.022   2.062   2.224  0.1912  0.2878  0.2251
11445TIP3    H155826   0.929   2.048   2.242  0.1982 -0.3676 -0.2213
11445TIP3    H255827   1.054   2.110   2.300 -0.1518 -0.8896  1.1406
11446TIP3   OH255828   3.572   4.102  14.562  0.5533 -0.1124 -0.0607
11446TIP3    H155829   3.591   4.173  14.501  0.7009 -1.0873 -1.1728
11446TIP3    H255830   3.652   4.095  14.615  0.1753  1.1733  0.7181
11447TIP3   OH255831   3.877   0.157   4.027  0.2264  0.2360 -0.0449
11447TIP3    H155832   3.957   0.124   4.067  1.2685  1.8009 -0.7706
11447TIP3    H255833   3.807   0.113   4.075  1.4908 -0.6726  1.0386
11448TIP3   OH255834   3.252   2.453   6.085  0.0075 -0.2503  0.2062
11448TIP3    H155835   3.206   2.403   6.153  1.8831  1.0780  2.6071
11448TIP3    H255836   3.270   2.538   6.126  2.8292 -0.0308 -1.2746
11449TIP3   OH255837   3.210   4.629   5.879  0.2422 -0.0990  0.1884
11449TIP3    H155838   3.268   4.579   5.936 -0.1515 -1.4597 -0.5478
11449TIP3    H255839   3.125   4.626   5.922  0.6969  2.0770  1.3755
11450TIP3   OH255840   1.771   2.724   4.123 -0.2642 -0.0830  0.3787
11450TIP3    H155841   1.750   2.776   4.046 -1.5607  2.1733  2.1351
11450TIP3    H255842   1.855   2.759   4.154  0.7186 -1.6009 -0.4449
11451TIP3   OH255843   3.023   6.585  16.222  0.3298  0.4599  0.0729
11451TIP3    H155844   3.019   6.498  16.263  0.5877  0.1107 -0.6252
11451TIP3    H255845   3.110   6.618  16.245  0.5542  0.1765 -0.3663
11452TIP3   OH255846   2.642   5.327   2.776 -0.2677  0.4421  0.2809
11452TIP3    H155847   2.619   5.407   2.728 -0.1259  0.0035 -0.5393
11452TIP3    H255848   2.558   5.293   2.807 -0.5039  0.1074 -0.6763
11453TIP3   OH255849   2.035   3.811   2.451 -0.0973  0.0094  0.3193
11453TIP3    H155850   2.084   3.738   2.412 -1.2121 -0.2481 -0.6751
11453TIP3    H255851   1.987   3.850   2.378 -0.4774  0.9782  1.0543
11454TIP3   OH255852   1.705   1.460   3.929 -0.1202 -0.0560 -0.0339
11454TIP3    H155853   1.750   1.507   4.000  0.8942  1.6178 -1.7043
11454TIP3    H255854   1.774   1.438   3.867 -1.2159  0.1757 -1.3864
11455TIP3   OH255855   3.929   1.574  15.950 -0.5792 -0.3537 -0.6668
11455TIP3    H155856   3.990   1.647  15.961 -2.2443  1.1345 -0.8476
11455TIP3    H255857   3.979   1.508  15.901  1.0400  0.5601 -0.3166
11456TIP3   OH255858   4.793   5.074  12.932  1.1469 -0.6208 -0.1180
11456TIP3    H155859   4.730   5.022  12.883  2.0267  1.2220 -3.5654
11456TIP3    H255860   4.746   5.153  12.956  1.3787 -0.4827 -0.1127
11457TIP3   OH255861   4.505   4.842  15.364 -0.4187  0.1123 -0.5102
11457TIP3    H155862   4.547   4.785  15.428  0.0787  1.5272  0.4798
11457TIP3    H255863   4.415   4.811  15.360 -0.0790 -0.9580 -0.2828
11458TIP3   OH255864   2.593   0.013   6.577 -0.0091 -0.3903 -0.2685
11458TIP3    H155865   2.534   0.074   6.533 -0.0023  0.7315  1.2000
11458TIP3    H255866   2.580  -0.070   6.532 -2.1001  0.0314 -0.5183
11459TIP3   OH255867   5.464   1.046  16.168 -0.1720 -0.0099 -0.0897
11459TIP3    H155868   5.378   1.052  16.127  0.7660  0.1738 -2.1549
11459TIP3    H255869   5.448   1.005  16.253 -2.2852  0.1245 -0.3750
11460TIP3   OH255870   2.103   5.112  12.390 -0.1285 -0.4682  0.1426
11460TIP3    H155871   2.057   5.080  12.313 -0.2036  0.6643 -0.3061
11460TIP3    H255872   2.191   5.132  12.359  0.2046 -1.1265  0.6347
11461TIP3   OH255873   4.157   2.050  14.337 -0.1615  0.3278 -0.0333
11461TIP3    H155874   4.122   2.069  14.250  1.2663  2.1379 -0.2611
11461TIP3    H255875   4.235   1.996  14.320 -1.8947 -2.5399  0.4053
11462TIP3   OH255876   6.825   0.685  13.591  0.3160 -0.4534 -0.0063
11462TIP3    H155877   6.759   0.675  13.522  0.1434 -0.8758  0.2199
11462TIP3    H255878   6.886   0.750  13.555  1.6927 -2.5292 -1.7110
11463TIP3   OH255879   1.246   6.684  15.845  0.3706  0.2294 -0.1471
11463TIP3    H155880   1.197   6.606  15.868 -0.6637  1.0377  0.4826
11463TIP3    H255881   1.335   6.653  15.826  0.2464 -0.9547  1.1195
11464TIP3   OH255882   5.978   4.445   5.133 -0.4862  0.1160 -0.4653
11464TIP3    H155883   6.012   4.441   5.044  1.2105  1.3323  0.0946
11464TIP3    H255884   6.054   4.430   5.189 -1.7215 -1.8107  0.8168
11465TIP3   OH255885   1.395   4.180  16.129 -0.0667 -0.7866  0.2042
11465TIP3    H155886   1.460   4.158  16.196  0.6071 -1.2948 -0.5959
11465TIP3    H255887   1.418   4.124  16.055  0.7111  1.4439 -1.3498
11466TIP3   OH255888   5.818   2.105   2.956 -0.3137 -0.4780  0.3511
11466TIP3    H155889   5.822   2.200   2.956 -0.2014 -0.4765 -0.3329
11466TIP3    H255890   5.769   2.083   3.035 -0.5450  0.1539  0.3905
11467TIP3   OH255891   6.058   0.041   2.270 -0.3919 -0.1467  0.1495
11467TIP3    H155892   6.114  -0.024   2.228 -1.1886 -2.4239  2.3416
11467TIP3    H255893   6.120   0.102   2.310  0.4576 -0.7393 -0.2219
11468TIP3   OH255894   0.207   0.221  11.515 -0.0172 -0.0225  0.1105
11468TIP3    H155895   0.160   0.147  11.553 -0.7288  0.1175 -0.4769
11468TIP3    H255896   0.232   0.275  11.590  0.5135 -0.8486  0.5440
11469TIP3   OH255897   0.181   5.239   1.728  0.0874 -0.3754  0.4883
11469TIP3    H155898   0.148   5.157   1.692  0.0625  0.5952 -1.8604
11469TIP3    H255899   0.274   5.239   1.707 -0.2106  0.8670 -0.9783
11470TIP3   OH255900   5.573   3.431   1.479  0.3194  0.3989  0.2382
11470TIP3    H155901   5.557   3.439   1.573 -0.0500  0.7728  0.1466
11470TIP3    H255902   5.667   3.416   1.471  0.1974 -0.7196  0.7330
11471TIP3   OH255903   2.152   3.065  11.398  0.1031 -0.0957  0.2246
11471TIP3    H155904   2.145   3.157  11.371 -0.6280 -0.4723 -0.9409
11471TIP3    H255905   2.068   3.045  11.438 -1.0272 -1.1043 -2.4096
11472TIP3   OH255906   1.578   3.733  16.384  0.7512 -0.0535 -0.0326
11472TIP3    H155907   1.499   3.680  16.383 -0.4188  1.6146 -1.7676
11472TIP3    H255908   1.556   3.809  16.438  1.9652 -0.6373  1.3487
11473TIP3   OH255909   6.238   3.442   0.137  0.2094  0.0808  0.5403
11473TIP3    H155910   6.266   3.466   0.226 -1.7633 -0.5406  1.3676
11473TIP3    H255911   6.152   3.402   0.148  1.0530 -2.5561 -1.3614
11474TIP3   OH255912   2.332   3.265   1.954 -0.3424  0.2077 -0.6653
11474TIP3    H155913   2.243   3.300   1.944 -0.3982 -0.0727 -1.2091
11474TIP3    H255914   2.320   3.184   2.003 -0.1392  1.2560  1.2215
11475TIP3   OH255915   2.844   0.017   0.876 -0.0452  0.1197 -0.3643
11475TIP3    H155916   2.926  -0.001   0.920 -0.9354 -0.7950  1.0009
11475TIP3    H255917   2.788   0.056   0.944 -1.5006 -1.4559 -0.5793
11476TIP3   OH255918   1.111   3.363  11.486  0.1396 -0.7634  0.0887
11476TIP3    H155919   1.161   3.305  11.429 -0.8049 -0.4428 -1.1082
11476TIP3    H255920   1.175   3.425  11.520  0.8000 -1.2581 -0.2277
11477TIP3   OH255921   2.401   2.013  14.421 -0.3305  0.4286 -0.2645
11477TIP3    H155922   2.439   2.033  14.336  0.9627  0.2179  0.2354
11477TIP3    H255923   2.360   1.928  14.410 -0.5704  0.6100 -0.7925
11478TIP3   OH255924   0.729   4.988  12.992 -0.2283 -0.3489  0.0086
11478TIP3    H155925   0.802   4.966  12.934  0.5298 -0.2490  0.8998
11478TIP3    H255926   0.770   5.012  13.075 -1.2399  0.3426  0.3412
11479TIP3   OH255927   1.992   2.821  11.198  0.4624  0.3603  0.1835
11479TIP3    H155928   2.064   2.878  11.226  0.7623 -1.1113  2.6440
11479TIP3    H255929   2.021   2.733  11.220 -2.2276 -0.2537  1.6969
11480TIP3   OH255930   0.829   3.800   2.411  0.2772 -0.8032 -0.5754
11480TIP3    H155931   0.780   3.718   2.402  1.2655 -1.4039 -0.6363
11480TIP3    H255932   0.911   3.784   2.363  0.2280  0.4382 -1.1181
11481TIP3   OH255933   2.605   0.294   0.666  0.1056  0.7152  0.2658
11481TIP3    H155934   2.548   0.335   0.731 -0.2528  1.6510 -0.6054
11481TIP3    H255935   2.557   0.304   0.583 -0.1642 -1.7644  0.0260
11482TIP3   OH255936   5.349   0.425   0.011 -0.2281  0.2390 -0.0970
11482TIP3    H155937   5.407   0.415   0.087  0.2202 -2.3778 -0.6835
11482TIP3    H255938   5.399   0.477  -0.051  1.4448 -1.6890 -0.4600
11483TIP3   OH255939   6.701   2.126   0.573  0.1040 -0.3279  0.1578
11483TIP3    H155940   6.698   2.187   0.646 -0.7013  0.4790 -0.5399
11483TIP3    H255941   6.613   2.090   0.567  0.0219 -0.0015 -0.7345
11484TIP3   OH255942   2.111   1.104   1.268 -0.2286  0.5529 -0.2385
11484TIP3    H155943   2.071   1.057   1.341  0.4240  0.4327  0.0526
11484TIP3    H255944   2.040   1.157   1.231 -0.8498 -0.2975 -0.2710
11485TIP3   OH255945   2.661   0.215  14.334  0.0190  0.0580  0.2555
11485TIP3    H155946   2.609   0.263  14.270 -0.7267 -2.1765 -0.9441
11485TIP3    H255947   2.743   0.195  14.288 -0.2767 -1.0425  0.1607
11486TIP3   OH255948   6.846   4.878  14.221  0.0956  0.1257  0.2016
11486TIP3    H155949   6.849   4.787  14.191  1.8387  0.9178 -2.2561
11486TIP3    H255950   6.847   4.871  14.317  0.0701 -2.4183  0.0891
11487TIP3   OH255951   1.350   2.532  12.406 -0.2127  0.0211  0.2713
11487TIP3    H155952   1.283   2.489  12.459 -1.2692  0.4338 -0.7002
11487TIP3    H255953   1.425   2.541  12.466 -0.5887 -1.4875  1.0356
11488TIP3   OH255954   5.047   5.283   1.697  0.1573 -0.1736 -0.0295
11488TIP3    H155955   5.007   5.370   1.692 -0.3514 -0.3066  1.2289
11488TIP3    H255956   5.041   5.260   1.790  1.9658 -0.7758 -0.0387
11489TIP3   OH255957   3.585   6.573   1.731 -0.0336  0.3481 -0.2736
11489TIP3    H155958   3.587   6.644   1.667 -1.3802 -0.2141 -0.9839
11489TIP3    H255959   3.597   6.493   1.679 -2.7622 -0.2490 -0.1212
11490TIP3   OH255960   1.631   3.539   0.219  0.5925 -0.4787 -0.2336
11490TIP3    H155961   1.680   3.491   0.151 -0.5491 -1.8797 -0.1090
11490TIP3    H255962   1.596   3.615   0.173  0.8596 -0.7643 -0.9319
11491TIP3   OH255963   3.945   3.906  15.886  0.0606 -0.0478  0.5183
11491TIP3    H155964   3.926   3.838  15.950  2.5441 -0.3840  1.0012
11491TIP3    H255965   4.033   3.937  15.909  0.6584  0.4994 -2.1354
11492TIP3   OH255966   2.129   0.751   2.887 -0.4737  0.0571  0.1880
11492TIP3    H155967   2.157   0.692   2.956 -0.4801  1.1377  1.1607
11492TIP3    H255968   2.195   0.743   2.818 -0.8681 -1.5866 -0.0259
11493TIP3   OH255969   5.260   6.321   1.280 -0.4182  0.1201 -0.1361
11493TIP3    H155970   5.285   6.414   1.281  0.4050  0.0450 -3.3370
11493TIP3    H255971   5.342   6.274   1.293 -0.3842 -0.1233 -1.1428
11494TIP3   OH255972   0.528   2.673  13.362 -0.3130 -0.0796 -0.0311
11494TIP3    H155973   0.573   2.691  13.444  0.8065 -1.4053 -0.3122
11494TIP3    H255974   0.598   2.667  13.297 -1.1493  0.6573 -1.0393
11495TIP3   OH255975   3.579   5.147   5.311 -0.4518  0.2040 -0.0516
11495TIP3    H155976   3.589   5.158   5.406 -0.4242  3.2295 -0.2970
11495TIP3    H255977   3.664   5.171   5.275  0.2697 -3.0854 -0.8556
11496TIP3   OH255978   2.769   4.959   1.565 -0.1733  0.0492 -0.5237
11496TIP3    H155979   2.857   4.994   1.579 -0.5664  0.9524 -0.2405
11496TIP3    H255980   2.713   5.011   1.623 -1.0999  0.4821 -1.7598
11497TIP3   OH255981   5.756   4.545   1.697  0.4188  0.4806  0.1095
11497TIP3    H155982   5.834   4.560   1.750 -0.2234  0.3904  1.1045
11497TIP3    H255983   5.685   4.586   1.747 -0.9116 -3.0278  1.4303
11498TIP3   OH255984   6.607   3.440  13.594 -0.1241 -0.1974 -0.0080
11498TIP3    H155985   6.643   3.449  13.506 -0.6894 -0.3749 -0.2657
11498TIP3    H255986   6.683   3.435  13.651  0.2475  0.3044 -0.4464
11499TIP3   OH255987   5.939   4.186   5.916  0.4017 -0.1920  0.2429
11499TIP3    H155988   5.968   4.095   5.903 -1.6672 -1.0045  0.9147
11499TIP3    H255989   5.978   4.212   6.000  0.1173 -0.8527  0.5858
11500TIP3   OH255990   1.134   5.725  16.929  0.3832 -0.1077  0.0284
11500TIP3    H155991   1.069   5.655  16.924  0.3178 -0.0337 -0.1946
11500TIP3    H255992   1.207   5.688  16.978 -1.0305  0.7356  2.9691
11501TIP3   OH255993   0.251   5.369  14.541  0.4740 -0.0256  0.0985
11501TIP3    H155994   0.215   5.300  14.486  0.3586  0.1899 -0.0990
11501TIP3    H255995   0.286   5.323  14.617 -0.3201 -0.2390  0.3469
11502TIP3   OH255996   0.563   5.705  15.984 -0.5451 -0.7115 -0.1137
11502TIP3    H155997   0.510   5.784  15.978 -1.9727 -1.4602  1.7263
11502TIP3    H255998   0.501   5.633  15.973  1.0468 -1.7630 -4.6239
11503TIP3   OH255999   3.493   3.933   3.034 -0.1648  0.8849  0.6152
11503TIP3    H156000   3.413   3.908   3.080 -0.7577  0.7142 -0.4730
11503TIP3    H256001   3.506   3.863   2.970  1.0703  0.7240  1.0245
11504TIP3   OH256002   0.786   1.737   5.969  0.6413 -0.2696  0.1556
11504TIP3    H156003   0.838   1.762   5.892  0.3132  1.4512  0.4691
11504TIP3    H256004   0.791   1.813   6.027 -0.7192 -0.7988  0.9985
11505TIP3   OH256005   3.607   6.352   1.934  0.1948 -0.1566 -0.3789
11505TIP3    H156006   3.643   6.276   1.888 -0.2825 -0.6386  0.0411
11505TIP3    H256007   3.622   6.425   1.874 -1.3090 -0.9235 -1.7478
11506TIP3   OH256008   5.207   5.484   4.611 -0.2483  0.0929  0.0724
11506TIP3    H156009   5.123   5.516   4.579 -0.2227 -0.6789 -0.8074
11506TIP3    H256010   5.251   5.449   4.533  0.0127 -1.4152  0.8508
11507TIP3   OH256011   6.671   5.336   2.191 -1.0382  0.4332 -0.0227
11507TIP3    H156012   6.704   5.404   2.132 -1.4218  2.1942  1.7068
11507TIP3    H256013   6.576   5.336   2.177 -0.8923 -1.1144 -1.3513
11508TIP3   OH256014   5.529   0.397  10.660 -0.2927  0.3374  0.4720
11508TIP3    H156015   5.602   0.347  10.623 -0.7561  0.5444 -0.7606
11508TIP3    H256016   5.459   0.333  10.672 -0.4764  0.4589  0.0507
11509TIP3   OH256017   1.914   2.254   2.943  0.0879 -0.2251  0.1105
11509TIP3    H156018   1.939   2.280   3.031 -0.1333 -0.7742  0.3405
11509TIP3    H256019   1.989   2.204   2.909  0.5985  0.8695 -0.4092
11510TIP3   OH256020   5.932   5.040  12.761  0.0284 -0.0008  0.3683
11510TIP3    H156021   5.858   4.979  12.759 -0.6869  0.8558 -1.1614
11510TIP3    H256022   5.899   5.119  12.718  1.7160  0.5373 -0.0297
11511TIP3   OH256023   0.682   3.334  13.949 -0.3952  0.7215  0.1535
11511TIP3    H156024   0.732   3.372  14.022  0.1223 -0.7699  0.6025
11511TIP3    H256025   0.621   3.403  13.924  1.8632  2.6777 -0.4373
11512TIP3   OH256026   3.495   5.028   1.009 -0.5071 -0.3457  0.3656
11512TIP3    H156027   3.523   5.119   0.999 -1.1026 -0.1432  0.5007
11512TIP3    H256028   3.526   5.003   1.096  0.0601 -0.4190  0.1425
11513TIP3   OH256029   2.468   4.042   5.437 -0.6417  0.1248  0.8615
11513TIP3    H156030   2.441   3.959   5.399  0.3626 -0.6790  1.8261
11513TIP3    H256031   2.392   4.098   5.429 -0.8427 -0.3705 -1.2196
11514TIP3   OH256032   1.872   1.870   5.626  0.2499  0.5302 -0.4952
11514TIP3    H156033   1.804   1.938   5.635  0.0985  0.1590  1.7188
11514TIP3    H256034   1.935   1.890   5.694  0.2277 -1.5090  0.1976
11515TIP3   OH256035   4.264   5.977   6.075 -0.0432  0.2208 -0.1543
11515TIP3    H156036   4.210   6.056   6.083  0.2922  0.2782  2.0740
11515TIP3    H256037   4.338   5.992   6.134  0.9515 -1.0411 -1.0223
11516TIP3   OH256038   6.844   3.177   1.525 -0.0202  0.4006 -0.2075
11516TIP3    H156039   6.778   3.245   1.537 -0.6885 -0.2538 -0.0431
11516TIP3    H256040   6.807   3.101   1.571  1.7359  0.5668  1.6110
11517TIP3   OH256041   1.344   6.775  16.362 -0.2339 -0.0486 -0.2685
11517TIP3    H156042   1.276   6.827  16.406 -1.1456 -0.2888 -1.3567
11517TIP3    H256043   1.299   6.733  16.289  0.7633 -1.4119 -0.1450
11518TIP3   OH256044   6.514   6.457  12.503  0.2136  0.4484 -0.7342
11518TIP3    H156045   6.543   6.375  12.462  3.1404  0.7357  0.4859
11518TIP3    H256046   6.419   6.456  12.496  0.2059 -2.7026 -1.4125
11519TIP3   OH256047   2.139   1.099   0.283  0.5423  0.4892  0.1578
11519TIP3    H156048   2.212   1.065   0.334 -1.0258 -1.9040  0.9786
11519TIP3    H256049   2.124   1.033   0.215 -0.7612  1.0040 -0.0853
11520TIP3   OH256050   3.576   1.964   5.585  0.3318  0.5635  0.0226
11520TIP3    H156051   3.611   2.000   5.666 -1.0904  0.1212  0.8650
11520TIP3    H256052   3.486   1.995   5.582 -0.4151 -1.4686 -0.0817
11521TIP3   OH256053   3.003   1.108  15.069  0.0582 -0.3234  0.3802
11521TIP3    H156054   3.052   1.050  15.012  0.1010  0.8028 -0.7728
11521TIP3    H256055   2.911   1.085  15.055  0.1004 -0.4460  0.3079
11522TIP3   OH256056   0.154   5.883   0.809  0.0733 -0.3120  0.0718
11522TIP3    H156057   0.221   5.838   0.758 -0.2203 -0.4476 -0.1997
11522TIP3    H256058   0.194   5.898   0.894  0.4487 -0.3886 -0.0901
11523TIP3   OH256059   1.162   5.648  12.023 -0.2723  0.6913 -0.4502
11523TIP3    H156060   1.238   5.592  12.041  0.2392  1.5521  0.1415
11523TIP3    H256061   1.091   5.586  12.007  0.3204 -0.1374 -0.0078
11524TIP3   OH256062   2.909   3.120   1.158  0.1805  0.5182  0.7822
11524TIP3    H156063   2.828   3.093   1.115  0.6252 -0.1961  0.3634
11524TIP3    H256064   2.969   3.047   1.144  0.3871  0.2971  2.5545
11525TIP3   OH256065   2.272   5.390   1.983 -0.2027 -0.0143 -0.6149
11525TIP3    H156066   2.298   5.310   2.028  0.9347 -0.5054 -2.0609
11525TIP3    H256067   2.181   5.374   1.957  0.0716 -0.9288 -1.0510
11526TIP3   OH256068   6.382   6.250  16.678 -0.2234 -0.2971  0.6818
11526TIP3    H156069   6.304   6.287  16.718  0.0346 -1.4857  2.3953
11526TIP3    H256070   6.355   6.226  16.589 -1.5013  0.1808  0.9234
11527TIP3   OH256071   0.372   0.040  16.082  0.2841 -0.5527 -0.1463
11527TIP3    H156072   0.384   0.013  15.991 -0.9777 -1.0879 -0.1781
11527TIP3    H256073   0.429  -0.017  16.132  1.1052 -0.1512 -0.6037
11528TIP3   OH256074   5.118   4.406   0.762  0.1351 -0.4987  0.1323
11528TIP3    H156075   5.105   4.457   0.843  0.4987 -1.1250  0.5963
11528TIP3    H256076   5.090   4.318   0.786  3.6750 -1.6062  0.7458
11529TIP3   OH256077   5.973   4.901  14.652 -0.2047 -0.0158 -0.0330
11529TIP3    H156078   5.907   4.956  14.695  0.0537 -0.3683  0.8289
11529TIP3    H256079   6.055   4.926  14.694  0.0296 -0.4602 -0.2291
11530TIP3   OH256080   2.603   3.241  13.688 -0.3195  0.8201 -0.0657
11530TIP3    H156081   2.514   3.264  13.716 -0.8068  0.6426 -1.3709
11530TIP3    H256082   2.649   3.324  13.685  0.3072  0.6795  2.9024
11531TIP3   OH256083   1.320   5.209   2.982  0.1131  0.1254 -0.1655
11531TIP3    H156084   1.409   5.243   2.992  0.0968  0.4584 -1.0504
11531TIP3    H256085   1.317   5.133   3.040  1.3529 -0.5830 -0.9810
11532TIP3   OH256086   4.368   6.332   0.990 -0.2210  0.1975 -0.4504
11532TIP3    H156087   4.440   6.393   0.972  0.8274 -0.5755  0.8866
11532TIP3    H256088   4.387   6.256   0.935 -0.3125  0.2125 -0.5018
11533TIP3   OH256089   0.367   0.565  16.797 -0.1474 -0.1270 -0.1946
11533TIP3    H156090   0.346   0.559  16.890 -2.9384 -1.1244 -0.8066
11533TIP3    H256091   0.407   0.651  16.787  2.9480 -1.0936  2.3303
11534TIP3   OH256092   0.692   6.358  12.241 -1.0087 -0.6019  0.2161
11534TIP3    H156093   0.694   6.451  12.263 -2.7208 -0.6426  0.7071
11534TIP3    H256094   0.606   6.328  12.272 -1.1073 -2.0095 -1.2809
11535TIP3   OH256095   4.912   2.021  12.391 -0.0732  0.5961 -0.1120
11535TIP3    H156096   4.999   2.041  12.425 -0.2185  0.0730  0.5761
11535TIP3    H256097   4.881   1.947  12.443 -0.7004  0.4078 -0.7295
11536TIP3   OH256098   3.494   0.451   5.610  0.4150 -0.5613 -0.7877
11536TIP3    H156099   3.491   0.373   5.664  1.9056  0.1868  0.4424
11536TIP3    H256100   3.402   0.470   5.590 -0.0904 -1.4846  0.5716
11537TIP3   OH256101   4.762   5.370  13.164  0.0405  0.1686 -0.0424
11537TIP3    H156102   4.691   5.400  13.221  1.3714  0.6283  1.4230
11537TIP3    H256103   4.792   5.449  13.119 -0.5080 -0.0659 -0.8403
11538TIP3   OH256104   3.810   2.979  11.769  0.4703 -0.4103  0.0922
11538TIP3    H156105   3.744   2.912  11.788 -0.4649 -0.4130 -2.7705
11538TIP3    H256106   3.785   3.052  11.826 -1.4464 -0.7636 -0.2090
11539TIP3   OH256107   5.763   6.119   4.849 -0.0845 -0.3756  0.7533
11539TIP3    H156108   5.809   6.152   4.772 -0.0107 -1.8088  0.1536
11539TIP3    H256109   5.832   6.107   4.914  0.3484 -1.9141  0.0641
11540TIP3   OH256110   2.823   2.616  12.857 -0.3098 -0.7587 -0.1558
11540TIP3    H156111   2.774   2.544  12.898  1.0031 -0.1536  2.7238
11540TIP3    H256112   2.915   2.589  12.863  0.1533  0.8020  0.3219
11541TIP3   OH256113   3.243   1.689  11.894 -0.3680 -0.2861  0.1674
11541TIP3    H156114   3.168   1.631  11.903 -0.4896 -0.1225  0.2065
11541TIP3    H256115   3.303   1.642  11.836 -0.1859 -0.7433  0.7079
11542TIP3   OH256116   5.629   0.247   1.310 -0.4131  0.0186 -0.1962
11542TIP3    H156117   5.643   0.308   1.383  0.3720 -0.8653  0.4123
11542TIP3    H256118   5.701   0.264   1.250 -0.6809  0.2794 -0.4464
11543TIP3   OH256119   5.819   0.803  13.397 -0.3531 -0.0332  0.2418
11543TIP3    H156120   5.815   0.708  13.393 -0.3876 -0.1240  1.6685
11543TIP3    H256121   5.747   0.828  13.455  0.3352  0.7615  0.7853
11544TIP3   OH256122   6.417   0.103  14.605  0.1137 -0.3895  0.1775
11544TIP3    H156123   6.460   0.053  14.675 -1.5330  0.2159  1.6679
11544TIP3    H256124   6.376   0.177  14.650 -0.1889  0.5504 -1.5764
11545TIP3   OH256125   5.343   5.371   4.376  0.1559  0.0409  0.0611
11545TIP3    H156126   5.424   5.360   4.427 -0.3585  0.3623  0.9779
11545TIP3    H256127   5.371   5.368   4.285  1.0597 -0.9712  0.3496
11546TIP3   OH256128   4.277   5.075   2.576  0.4205 -0.1652 -0.2278
11546TIP3    H156129   4.313   5.076   2.665  0.7353 -0.1453 -0.3528
11546TIP3    H256130   4.253   4.984   2.560  2.4430 -0.6202 -0.9340
11547TIP3   OH256131   4.209   6.091  14.353 -0.3213  0.3334  1.1535
11547TIP3    H156132   4.133   6.148  14.343  1.0064  2.0890  0.6288
11547TIP3    H256133   4.283   6.145  14.327  1.0253 -1.6297  0.7164
11548TIP3   OH256134   1.741   0.307   1.098 -0.5052  0.4170  0.3674
11548TIP3    H156135   1.767   0.399   1.085  0.3557  0.1261 -0.0770
11548TIP3    H256136   1.753   0.292   1.192  2.7442 -0.1823 -0.0342
11549TIP3   OH256137   4.387   5.318  16.699  0.1264 -0.3891  0.4204
11549TIP3    H156138   4.356   5.229  16.715 -1.1314  0.1190  0.9006
11549TIP3    H256139   4.309   5.373  16.707  0.6748  0.6573 -0.8938
11550TIP3   OH256140   2.761   2.200   5.754  0.3208  0.4685  0.6655
11550TIP3    H156141   2.802   2.233   5.674 -0.0436  0.2910  0.4026
11550TIP3    H256142   2.834   2.169   5.808  0.6961  1.8046  0.9824
11551TIP3   OH256143   5.563   2.654  14.956 -0.3545  0.0553 -0.0694
11551TIP3    H156144   5.564   2.750  14.963 -1.0198 -0.0289  1.6946
11551TIP3    H256145   5.607   2.636  14.873  1.6270  1.8227  0.4865
11552TIP3   OH256146   5.929   6.066   3.841 -0.2344  0.9145 -0.1082
11552TIP3    H156147   5.836   6.055   3.862  0.2860  1.8336  3.5043
11552TIP3    H256148   5.944   6.161   3.849  0.7940  0.9373 -1.9320
11553TIP3   OH256149   5.835   6.132   5.399 -0.2929  0.1729  0.1935
11553TIP3    H156150   5.835   6.216   5.445 -0.7736 -1.1144  2.6859
11553TIP3    H256151   5.917   6.090   5.425  1.2905  0.8185 -3.1366
11554TIP3   OH256152   3.792   3.681   6.415  0.3733 -0.0211  0.3660
11554TIP3    H156153   3.714   3.737   6.423  0.5312  0.1901  0.4328
11554TIP3    H256154   3.865   3.740   6.433  0.4014 -0.8901  3.9420
11555TIP3   OH256155   4.632   6.177  12.609 -0.3727 -0.1639  0.9780
11555TIP3    H156156   4.602   6.227  12.533 -2.0529 -0.6463  1.2932
11555TIP3    H256157   4.583   6.214  12.682 -2.2556 -2.7195  1.1144
11556TIP3   OH256158   6.090   2.463   1.833  0.1574 -0.2081 -0.3533
11556TIP3    H156159   6.145   2.540   1.814  2.1372 -1.2584  0.7651
11556TIP3    H256160   6.153   2.392   1.847 -1.5220 -1.5512  0.7479
11557TIP3   OH256161   4.609   4.469  12.212 -0.0049 -0.3977 -0.3778
11557TIP3    H156162   4.605   4.503  12.123  1.8983  1.1692  0.0682
11557TIP3    H256163   4.607   4.547  12.268  3.7105 -0.8709  0.7176
11558TIP3   OH256164   4.037   1.041   1.336 -0.6899  0.1369 -0.7171
11558TIP3    H156165   4.022   1.064   1.428 -0.8809 -0.3704 -0.6133
11558TIP3    H256166   4.128   1.012   1.333 -0.6459  0.2747 -0.7136
11559TIP3   OH256167   2.607   5.104   3.664  0.0954 -0.3060 -0.4245
11559TIP3    H156168   2.604   5.074   3.573  1.8234 -2.1653  0.0328
11559TIP3    H256169   2.696   5.083   3.693 -0.2220  0.7764  1.5251
11560TIP3   OH256170   3.606   1.273   6.228  0.2977  0.3540  0.1620
11560TIP3    H156171   3.575   1.186   6.255  1.6661 -0.1931  0.0401
11560TIP3    H256172   3.608   1.324   6.308  0.1324  0.0607  0.3527
11561TIP3   OH256173   2.707   1.605  14.827  0.1937  0.0751  0.1481
11561TIP3    H156174   2.766   1.672  14.862  1.1372  0.8550 -2.6773
11561TIP3    H256175   2.620   1.646  14.828  0.0741 -0.1392  1.9600
11562TIP3   OH256176   1.770   6.244  12.027  1.0703  0.9597 -0.4509
11562TIP3    H156177   1.855   6.203  12.012  0.2447 -1.1665  0.3817
11562TIP3    H256178   1.706   6.177  12.003 -0.3569  1.7076  1.0487
11563TIP3   OH256179   4.454   1.918  12.408 -0.4726 -0.2463 -0.2827
11563TIP3    H156180   4.425   1.828  12.395  0.0649 -1.0279  3.1485
11563TIP3    H256181   4.531   1.926  12.351  0.0256 -2.2692  0.0138
11564TIP3   OH256182   3.365   6.838   4.258  0.1790 -0.1763  0.1452
11564TIP3    H156183   3.347   6.925   4.224  1.6700  0.8166  1.7270
11564TIP3    H256184   3.294   6.820   4.320  0.1651  0.1466  0.2220
11565TIP3   OH256185   0.730   5.346   3.013 -0.3223 -0.5240 -0.4046
11565TIP3    H156186   0.695   5.362   3.101 -0.2546 -0.4528 -0.3900
11565TIP3    H256187   0.701   5.258   2.991 -0.4462 -0.4942 -0.3612
11566TIP3   OH256188   5.845   6.321   2.802 -0.7627  0.1917 -0.3279
11566TIP3    H156189   5.890   6.394   2.760  0.3185 -0.5763 -0.5478
11566TIP3    H256190   5.818   6.264   2.729 -1.6138  0.3778 -0.1626
11567TIP3   OH256191   0.516   1.333   3.476  0.1518 -0.0629 -0.1868
11567TIP3    H156192   0.451   1.381   3.426  1.0726 -0.4500 -1.8427
11567TIP3    H256193   0.480   1.245   3.485 -0.0078  0.0033 -0.1901
11568TIP3   OH256194   1.307   5.721   0.165  0.3711  0.2226  0.0793
11568TIP3    H156195   1.299   5.657   0.094  1.5287  0.4266 -0.2439
11568TIP3    H256196   1.283   5.805   0.124  0.1512  0.2052  0.1692
11569TIP3   OH256197   5.283   6.787  11.555 -0.2455 -0.3984 -0.3861
11569TIP3    H156198   5.329   6.857  11.508  1.1443 -1.5156 -0.7503
11569TIP3    H256199   5.247   6.830  11.633 -0.5978  0.9941 -1.2688
11570TIP3   OH256200   1.179   4.096  16.798  0.3255  0.0665 -0.0063
11570TIP3    H156201   1.156   4.165  16.860 -1.2044 -0.6758  0.3020
11570TIP3    H256202   1.209   4.024  16.853 -1.1461 -0.6370 -0.0755
11571TIP3   OH256203   4.045   5.354   4.585  0.3449 -0.7974  0.3528
11571TIP3    H156204   3.976   5.420   4.577  0.2652 -0.6518  1.9976
11571TIP3    H256205   4.124   5.398   4.553  0.2666  0.0717  1.3043
11572TIP3   OH256206   0.841   0.827   5.610  0.0125 -0.1592 -0.9517
11572TIP3    H156207   0.931   0.794   5.600  0.3536  1.1736 -2.8917
11572TIP3    H256208   0.787   0.748   5.614  1.1923 -0.9780 -0.5411
11573TIP3   OH256209   5.171   6.846  13.272 -0.4213 -0.1704 -0.5510
11573TIP3    H156210   5.247   6.793  13.297 -0.0531  1.0511  1.0691
11573TIP3    H256211   5.101   6.782  13.258  0.0797 -1.1461  1.0583
11574TIP3   OH256212   3.170   1.757   3.675 -0.5400 -0.2615  0.5744
11574TIP3    H156213   3.212   1.838   3.645 -1.4439  0.0574  0.1257
11574TIP3    H256214   3.140   1.715   3.595  0.3516 -1.3037  0.7679
11575TIP3   OH256215   4.649   4.335  14.727  0.6223  0.0149  0.3734
11575TIP3    H156216   4.571   4.381  14.757  1.8782  3.0466 -0.5805
11575TIP3    H256217   4.701   4.322  14.806  0.5798  1.0028  0.5740
11576TIP3   OH256218   4.087   2.370  12.606  0.1862  0.0596 -0.3836
11576TIP3    H156219   4.149   2.324  12.663  0.2907  1.4321  0.6810
11576TIP3    H256220   4.134   2.385  12.524  1.9368  2.4493  0.9231
11577TIP3   OH256221   2.459   2.922   4.819  0.3142 -0.1336 -0.0974
11577TIP3    H156222   2.424   2.998   4.867 -0.5605  0.0337 -0.9789
11577TIP3    H256223   2.437   2.847   4.874  0.4889  0.1720  0.4009
11578TIP3   OH256224   6.445   4.894   1.901 -0.8250  0.1209  0.3254
11578TIP3    H156225   6.510   4.957   1.933  1.2843 -1.8856  0.2254
11578TIP3    H256226   6.427   4.838   1.976 -1.0917 -0.4267 -0.1438
11579TIP3   OH256227   0.165   5.052  14.495  0.5060  0.1836  0.0839
11579TIP3    H156228   0.081   5.043  14.541  0.8066 -0.2498  0.5518
11579TIP3    H256229   0.230   5.017  14.556  0.7945 -1.3640 -1.0564
11580TIP3   OH256230   2.532   5.967  16.849 -0.0696  0.4514  0.3699
11580TIP3    H156231   2.616   5.970  16.895 -0.2386 -1.6641  0.9139
11580TIP3    H256232   2.501   5.878  16.862 -2.2944  1.1099 -0.0531
11581TIP3   OH256233   0.424   4.332  15.707 -0.0587  0.3213  0.0018
11581TIP3    H156234   0.417   4.238  15.692  1.5971  0.5253 -2.9150
11581TIP3    H256235   0.508   4.344  15.751  0.4128  0.4949 -0.9200
11582TIP3   OH256236   1.969   0.823  12.689 -0.0375  0.5512 -0.0941
11582TIP3    H156237   1.985   0.866  12.773  0.2721  1.1587 -0.4575
11582TIP3    H256238   1.881   0.853  12.664 -0.6019 -0.5229  0.5421
11583TIP3   OH256239   5.254   3.428  13.548  0.4971 -0.5008  0.4140
11583TIP3    H156240   5.193   3.365  13.508  0.6107  1.3299 -2.9792
11583TIP3    H256241   5.326   3.434  13.485  0.7274  2.5755  0.8284
11584TIP3   OH256242   2.536   1.024   4.406  0.4685  0.4504  0.3632
11584TIP3    H156243   2.579   0.967   4.469 -0.4310 -0.2975  0.3241
11584TIP3    H256244   2.503   1.097   4.458 -0.9566 -0.5516  0.9258
11585TIP3   OH256245   5.522   1.407   6.233  0.5016 -0.0318 -0.0765
11585TIP3    H156246   5.485   1.481   6.281  0.2209  0.7820 -1.5070
11585TIP3    H256247   5.578   1.363   6.297  0.4177  1.2196  0.9011
11586TIP3   OH256248   5.802   6.443  10.411 -0.0479 -0.2855 -0.2920
11586TIP3    H156249   5.778   6.500  10.484 -1.4614  1.0098 -1.6774
11586TIP3    H256250   5.722   6.393  10.392  0.2192 -0.4148 -1.1182
11587TIP3   OH256251   2.266   4.595  13.742  0.5143 -0.3828 -0.0271
11587TIP3    H156252   2.232   4.628  13.825  1.3176  0.7775 -0.1492
11587TIP3    H256253   2.351   4.637  13.731  0.0430  0.1831 -1.8623
11588TIP3   OH256254   2.556   3.361  15.680 -0.4092 -0.2418 -0.1569
11588TIP3    H156255   2.518   3.443  15.713  1.5517  0.9834 -0.7836
11588TIP3    H256256   2.506   3.343  15.600 -0.8758  0.3143 -0.0039
11589TIP3   OH256257   5.327   0.878  13.532 -0.2334 -0.3104 -0.2788
11589TIP3    H156258   5.294   0.951  13.585 -1.2548 -0.2213 -0.9990
11589TIP3    H256259   5.261   0.867  13.464  1.5404  0.2689 -2.1789
11590TIP3   OH256260   4.432   6.480   5.997  0.6644  0.6851 -0.2657
11590TIP3    H156261   4.440   6.572   6.023  1.0883  0.3453  0.8501
11590TIP3    H256262   4.514   6.440   6.026  0.1769 -0.2011 -0.0713
11591TIP3   OH256263   5.478   4.551  15.175 -0.1796 -0.2775  0.1080
11591TIP3    H156264   5.472   4.541  15.080  1.7374  1.7313 -0.2951
11591TIP3    H256265   5.543   4.487  15.203 -0.0224 -0.1927 -0.0673
11592TIP3   OH256266   0.621   1.031   5.773  0.6963  0.0397 -0.1972
11592TIP3    H156267   0.576   0.947   5.783  0.7145  0.1935  1.4258
11592TIP3    H256268   0.557   1.086   5.727 -0.7040  0.1445  1.7500
11593TIP3   OH256269   6.198   2.491  12.076 -0.1551 -0.0757  0.2141
11593TIP3    H156270   6.204   2.518  11.985 -1.9345 -1.1436 -0.2583
11593TIP3    H256271   6.190   2.572  12.125  2.3498  0.6232 -0.3654
11594TIP3   OH256272   0.350   5.602  16.803  0.2458 -0.7148  0.2212
11594TIP3    H156273   0.304   5.684  16.785 -0.6519 -1.3195 -0.3244
11594TIP3    H256274   0.386   5.576  16.718  1.8071 -0.1411  0.6847
11595TIP3   OH256275   6.312   5.663   5.570 -0.1662 -0.7470 -0.3805
11595TIP3    H156276   6.407   5.671   5.565 -0.1234  2.6840  2.0786
11595TIP3    H256277   6.297   5.616   5.653 -0.5524  0.6569  0.3706
11596TIP3   OH256278   2.745   4.772   0.249  0.1545 -0.7290 -0.3796
11596TIP3    H156279   2.721   4.685   0.217 -0.3038 -0.5996 -0.3822
11596TIP3    H256280   2.801   4.754   0.325 -0.3993 -1.0294 -0.0307
11597TIP3   OH256281   2.787   2.255   0.466  0.0064 -0.0916  0.2882
11597TIP3    H156282   2.840   2.216   0.536  1.3001  0.2960 -0.4402
11597TIP3    H256283   2.804   2.349   0.473  0.7580 -0.1159 -1.0022
11598TIP3   OH256284   3.516   4.441   5.700 -0.4747  0.1518 -0.3043
11598TIP3    H156285   3.454   4.468   5.768  0.2056 -0.2895  0.5055
11598TIP3    H256286   3.596   4.419   5.747  0.6387  1.6202 -1.4125
11599TIP3   OH256287   3.786   5.594   2.006 -0.3287  0.4895  0.0115
11599TIP3    H156288   3.815   5.683   1.984 -0.2828  0.4016 -0.2842
11599TIP3    H256289   3.691   5.600   2.010 -0.3442  0.4887 -0.3002
11600TIP3   OH256290   5.559   4.428  13.078 -0.2306  0.3220  0.0923
11600TIP3    H156291   5.564   4.334  13.093  3.8984  0.2188 -0.7559
11600TIP3    H256292   5.575   4.438  12.985  1.7625  1.8754  0.5367
11601TIP3   OH256293   1.995   1.460   1.891 -0.2447 -0.1597  0.1754
11601TIP3    H156294   1.982   1.553   1.870 -1.1462 -0.3770 -0.2785
11601TIP3    H256295   2.080   1.439   1.852 -0.9031 -0.0055 -1.4363
11602TIP3   OH256296   6.731   0.095  17.050  0.2542 -0.5653  0.0378
11602TIP3    H156297   6.795   0.165  17.045  0.7169 -1.0120 -0.4426
11602TIP3    H256298   6.650   0.133  17.016  0.0731  0.2023  1.2888
11603TIP3   OH256299   0.796   0.735  11.217 -0.1117  0.2100 -0.5812
11603TIP3    H156300   0.718   0.730  11.161  0.1943 -1.4271 -0.9255
11603TIP3    H256301   0.790   0.657  11.272  1.0028  0.3689 -0.2286
11604TIP3   OH256302   6.301   4.590  12.128 -0.2726  0.5200  0.0856
11604TIP3    H156303   6.299   4.511  12.074 -0.5636  2.4792 -2.9930
11604TIP3    H256304   6.351   4.564  12.206 -0.4714 -2.6906 -0.7272
11605TIP3   OH256305   5.632   1.125   1.483  0.3092  0.1098 -0.3457
11605TIP3    H156306   5.720   1.088   1.476  0.5823  0.8307 -0.7884
11605TIP3    H256307   5.576   1.049   1.503  0.8159 -0.5919 -1.4844
11606TIP3   OH256308   3.579   5.610  15.315  0.1919 -0.1154 -0.1698
11606TIP3    H156309   3.588   5.665  15.393 -1.6636  0.3099 -0.2093
11606TIP3    H256310   3.647   5.642  15.256  1.6933 -0.4964  1.2473
11607TIP3   OH256311   6.017   6.606   3.955 -0.2773  0.1421  0.0175
11607TIP3    H156312   5.964   6.606   3.875 -1.1051 -0.2371  0.5570
11607TIP3    H256313   6.107   6.612   3.923 -0.6145  0.4799 -0.9259
11608TIP3   OH256314   4.474   5.838   1.192 -0.4265  0.3869  0.2481
11608TIP3    H156315   4.493   5.919   1.143  0.6828 -0.6822 -1.1874
11608TIP3    H256316   4.393   5.805   1.152  1.0764 -1.0849 -1.8228
11609TIP3   OH256317   1.326   2.713   2.359  1.1807 -0.0521  0.0763
11609TIP3    H156318   1.408   2.759   2.377  1.0948 -0.2453  0.9911
11609TIP3    H256319   1.326   2.640   2.420 -0.4723  0.9131  1.3026
11610TIP3   OH256320   3.205   4.070   0.155  0.2592 -0.1944  0.0562
11610TIP3    H156321   3.214   4.146   0.098  1.3096  0.8665  1.5516
11610TIP3    H256322   3.186   4.107   0.242 -1.5255 -1.7529  0.3977
11611TIP3   OH256323   5.600   1.601  11.580  0.5277 -0.0968 -0.1588
11611TIP3    H156324   5.639   1.678  11.539  0.1754  0.5539  0.7011
11611TIP3    H256325   5.513   1.594  11.540 -0.5763  1.6699  1.7754
11612TIP3   OH256326   1.126   2.593   0.808  0.4509 -0.4880 -0.3296
11612TIP3    H156327   1.080   2.579   0.725  1.0920 -3.1722 -0.3272
11612TIP3    H256328   1.126   2.506   0.849  1.9843  0.3382  1.5109
11613TIP3   OH256329   0.626   4.651  13.271  0.0545  0.2651  0.2881
11613TIP3    H156330   0.593   4.569  13.234 -1.2093 -0.3061  2.5516
11613TIP3    H256331   0.557   4.714  13.253  1.1140  0.9675 -1.6342
11614TIP3   OH256332   4.026   4.262  14.094  0.3003  0.2727 -0.4196
11614TIP3    H156333   4.108   4.281  14.141  0.6791 -1.1806 -0.4511
11614TIP3    H256334   4.051   4.259  14.002 -0.1228  1.4281 -0.5938
11615TIP3   OH256335   4.779   4.687   4.328 -0.0510 -0.5650  0.0853
11615TIP3    H156336   4.793   4.601   4.286  0.0231  0.0341 -1.1679
11615TIP3    H256337   4.691   4.682   4.364  0.8941 -2.1229  2.4593
11616TIP3   OH256338   3.476   2.070   2.354  0.1705 -0.0798  0.0629
11616TIP3    H156339   3.498   2.141   2.293  0.1482  0.5546  0.7780
11616TIP3    H256340   3.433   2.004   2.300  1.3297 -0.1178 -0.8592
11617TIP3   OH256341   3.235   4.309  17.120 -0.4643 -0.6655 -0.6371
11617TIP3    H156342   3.327   4.290  17.106  0.1268  1.6681 -0.3018
11617TIP3    H256343   3.234   4.397  17.159 -2.7173 -1.4605  1.3515
11618TIP3   OH256344   4.179   2.532  14.778 -0.0838 -0.3769  0.2397
11618TIP3    H156345   4.240   2.564  14.711  1.0118 -0.7052  1.0430
11618TIP3    H256346   4.232   2.526  14.857 -1.3004 -0.2085  1.0872
11619TIP3   OH256347   0.642   3.655  12.928 -0.1293  0.3988  0.0439
11619TIP3    H156348   0.717   3.608  12.965 -0.9737 -0.0888  1.1851
11619TIP3    H256349   0.596   3.691  13.004 -3.6519 -3.2006  0.0042
11620TIP3   OH256350   0.414   1.412  13.950  0.1199  0.1140  0.1340
11620TIP3    H156351   0.474   1.350  13.909 -2.1575 -1.2426 -1.4080
11620TIP3    H256352   0.452   1.498  13.931  0.7810 -0.6090 -2.2231
11621TIP3   OH256353   0.326   6.014   4.731  0.1979  0.4637  0.6739
11621TIP3    H156354   0.234   5.987   4.726  0.5561 -0.6384 -0.2381
11621TIP3    H256355   0.355   5.982   4.816 -0.2485  0.8074  0.9623
11622TIP3   OH256356   0.309   1.078   4.092 -0.4999  0.5303  0.1359
11622TIP3    H156357   0.238   1.096   4.154 -1.8412  0.1004 -1.2217
11622TIP3    H256358   0.347   1.164   4.074 -2.0477  1.0707 -0.6842
11623TIP3   OH256359   0.041   1.892  13.373 -0.0358  0.1058 -0.5423
11623TIP3    H156360   0.091   1.829  13.321  0.4578  0.9661 -1.1507
11623TIP3    H256361  -0.050   1.871  13.353  0.1306 -0.1062 -1.1268
11624TIP3   OH256362   2.291   4.054   1.532  0.2100 -0.1766  0.0950
11624TIP3    H156363   2.277   4.140   1.573 -0.5413 -0.8657  1.3576
11624TIP3    H256364   2.342   4.006   1.597  0.2764 -0.8178 -0.4321
11625TIP3   OH256365   4.855   2.946  12.158  0.0045 -0.1280  0.2330
11625TIP3    H156366   4.810   3.013  12.210  0.0607  0.2701 -0.2246
11625TIP3    H256367   4.943   2.943  12.193  0.2436  0.6210 -0.2625
11626TIP3   OH256368   3.032   1.629   4.525  0.6672  0.2110  0.3545
11626TIP3    H156369   3.022   1.537   4.501  0.0192  0.0357  1.2234
11626TIP3    H256370   3.127   1.641   4.536  0.7018 -0.5884  1.0677
11627TIP3   OH256371   0.939   0.602  14.605  0.1465  0.0519 -0.7754
11627TIP3    H156372   0.874   0.596  14.675 -0.0444 -0.4307 -0.9914
11627TIP3    H256373   1.018   0.561  14.642  0.3078  0.5527 -0.5490
11628TIP3   OH256374   6.505   1.801   4.936  0.2613  0.1862  0.2087
11628TIP3    H156375   6.417   1.839   4.933  0.2930  0.2375 -1.6941
11628TIP3    H256376   6.490   1.708   4.917  0.6432  0.3250 -0.8620
11629TIP3   OH256377   5.214   4.117  16.513 -0.4810 -0.1522  0.6689
11629TIP3    H156378   5.273   4.192  16.510 -2.2987  1.3564  0.8160
11629TIP3    H256379   5.195   4.098  16.421 -0.5945  0.0456  0.6505
11630TIP3   OH256380   1.250   6.300  13.725  0.4677 -0.3379  0.3460
11630TIP3    H156381   1.330   6.252  13.744  0.1334 -1.1197 -0.1847
11630TIP3    H256382   1.183   6.260  13.781  0.0182 -1.0388 -0.6581
11631TIP3   OH256383   3.663   4.427  15.957  0.0501  0.2144 -0.3657
11631TIP3    H156384   3.577   4.469  15.967  0.2854  0.3637  1.3251
11631TIP3    H256385   3.658   4.350  16.013  0.5771 -0.5067 -1.2933
11632TIP3   OH256386   4.460   0.285   2.576 -0.7100 -0.1394 -0.1029
11632TIP3    H156387   4.367   0.281   2.600 -0.2323 -2.2914  1.7011
11632TIP3    H256388   4.475   0.205   2.526 -0.0132  0.7193 -1.3274
11633TIP3   OH256389   0.153   0.880  12.716 -0.1030 -0.3445  0.1443
11633TIP3    H156390   0.078   0.934  12.691  0.2161 -0.0407 -0.1639
11633TIP3    H256391   0.178   0.912  12.803 -1.1497 -1.3352  0.8542
11634TIP3   OH256392   4.017   3.253   5.891 -0.3751  0.7776 -0.1878
11634TIP3    H156393   3.948   3.226   5.830  0.5575  1.1428 -1.4445
11634TIP3    H256394   3.988   3.218   5.975 -1.0941 -0.8486 -1.0432
11635TIP3   OH256395   1.714   3.015  12.170  0.0124  1.0256  0.9830
11635TIP3    H156396   1.738   2.983  12.257 -0.7274  1.9364  1.5420
11635TIP3    H256397   1.636   2.966  12.146  0.3543  0.6044  0.7227
11636TIP3   OH256398   3.106   5.835   2.438  0.3814  0.5955 -0.2345
11636TIP3    H156399   3.137   5.910   2.488  0.9727 -0.7978  1.6138
11636TIP3    H256400   3.046   5.789   2.497 -1.6025  0.6889 -2.0636
11637TIP3   OH256401   4.187   2.444  15.339 -0.2964 -0.1660  0.0744
11637TIP3    H156402   4.148   2.489  15.264  1.8993  0.5056 -0.7513
11637TIP3    H256403   4.227   2.365  15.301 -0.5632 -0.6694  0.8239
11638TIP3   OH256404   4.235   3.290  12.585  1.0098 -0.0687 -0.1955
11638TIP3    H156405   4.167   3.354  12.606  0.3570 -0.2602 -1.5704
11638TIP3    H256406   4.316   3.329  12.617  0.5197  1.1244 -0.3643
11639TIP3   OH256407   0.376   1.588   0.613 -0.5552  0.2810  0.1198
11639TIP3    H156408   0.346   1.515   0.559  0.5786  1.1218 -1.7513
11639TIP3    H256409   0.465   1.564   0.639 -1.2711 -0.3660  2.1787
11640TIP3   OH256410   0.768   4.726  15.328 -0.0268  0.0167  0.1416
11640TIP3    H156411   0.820   4.668  15.383  0.9388  1.4371  0.7869
11640TIP3    H256412   0.816   4.809  15.327 -1.5856  0.9714 -0.3551
11641TIP3   OH256413   2.842   1.916  17.125  0.1882  0.1963  0.1203
11641TIP3    H156414   2.814   2.005  17.101  0.2036  0.1121 -0.2096
11641TIP3    H256415   2.766   1.861  17.106 -0.9510  0.5304  3.1223
11642TIP3   OH256416   1.987   4.351   5.410 -0.6490  0.5654 -0.6542
11642TIP3    H156417   2.071   4.318   5.442 -1.0047  1.6376  1.5617
11642TIP3    H256418   1.954   4.282   5.353  0.8385 -0.7277 -0.0127
11643TIP3   OH256419   4.777   6.136   2.151  0.3947  0.5352  0.2835
11643TIP3    H156420   4.682   6.122   2.147  0.4666 -1.1775  2.6391
11643TIP3    H256421   4.789   6.227   2.123 -1.5494 -0.0797 -3.1380
11644TIP3   OH256422   6.556   2.184   5.022 -1.1005  0.3065 -0.1453
11644TIP3    H156423   6.610   2.254   4.986 -2.2366 -0.1136 -2.9235
11644TIP3    H256424   6.473   2.227   5.044 -1.9648 -0.1082 -2.2776
11645TIP3   OH256425   6.344   4.330  13.036  0.3863  0.1105 -0.3302
11645TIP3    H156426   6.255   4.343  13.067  0.7119  2.1340 -0.0952
11645TIP3    H256427   6.391   4.408  13.064  1.8049 -0.0802 -1.9643
11646TIP3   OH256428   0.262   6.449  16.279 -0.2098 -0.4281  0.0182
11646TIP3    H156429   0.315   6.385  16.231 -0.9184 -0.7119 -0.4025
11646TIP3    H256430   0.252   6.412  16.367  1.7650  0.4700  0.6754
11647TIP3   OH256431   1.462   0.530   0.111  0.6231 -0.1177  0.3818
11647TIP3    H156432   1.436   0.566   0.026 -0.4363  0.0786  0.7813
11647TIP3    H256433   1.558   0.540   0.112  0.4436  2.1737  0.2423
11648TIP3   OH256434   6.392   5.038   3.196 -0.5813  0.2580 -0.3124
11648TIP3    H156435   6.399   5.120   3.244  0.2246  1.0128 -1.6470
11648TIP3    H256436   6.384   4.971   3.263 -1.1882  1.4164  0.8021
11649TIP3   OH256437   3.074   1.021   2.708 -0.4321  0.5611  0.6591
11649TIP3    H156438   2.994   0.994   2.662  0.3246 -0.1369 -0.2613
11649TIP3    H256439   3.078   1.116   2.694 -0.9614  0.5676  0.5048
11650TIP3   OH256440   0.702   6.515   2.232 -0.5625  0.1968 -0.0099
11650TIP3    H156441   0.674   6.581   2.296  0.2821  2.2337 -1.6224
11650TIP3    H256442   0.626   6.457   2.223 -0.2014 -1.2055  3.9460
11651TIP3   OH256443   6.723   6.467  14.168  0.0601 -0.8185 -0.1689
11651TIP3    H156444   6.637   6.459  14.126  1.1903 -1.2919 -2.5943
11651TIP3    H256445   6.748   6.377  14.188 -0.7895 -0.5627  2.4438
11652TIP3   OH256446   5.092   2.051   1.488  0.1126 -0.0092  0.1484
11652TIP3    H156447   5.058   2.105   1.559  0.7466 -1.1044  1.3314
11652TIP3    H256448   5.185   2.038   1.511  0.5113  0.2122 -1.2693
11653TIP3   OH256449   6.526   1.022  12.495 -0.2849  0.3511 -0.3125
11653TIP3    H156450   6.539   1.110  12.460  0.6568  0.5558  0.5208
11653TIP3    H256451   6.525   0.966  12.417  0.1695  0.9732 -0.7754
11654TIP3   OH256452   2.024   5.694  15.894  0.4517 -0.2748  0.0422
11654TIP3    H156453   2.048   5.663  15.806  0.8730 -0.2909  0.1592
11654TIP3    H256454   1.929   5.700  15.892  0.4571 -0.2714 -0.4191
11655TIP3   OH256455   5.472   0.849  12.646 -0.6993 -0.0034 -0.5646
11655TIP3    H156456   5.541   0.810  12.700  0.2268  0.2225 -1.5614
11655TIP3    H256457   5.497   0.827  12.556 -2.2451 -0.4163 -0.9142
11656TIP3   OH256458   5.010   2.281   5.198  0.3096 -0.2473 -0.0891
11656TIP3    H156459   5.096   2.238   5.200 -0.2952 -1.5235 -0.7314
11656TIP3    H256460   4.978   2.268   5.109 -0.7434 -0.1746  0.2638
11657TIP3   OH256461   5.725   0.873   4.404  0.3287  0.1074  0.2770
11657TIP3    H156462   5.681   0.821   4.337 -1.0653  1.0335  0.4390
11657TIP3    H256463   5.796   0.917   4.358 -1.1223  1.3980 -0.8215
11658TIP3   OH256464   3.685   1.566  16.545  0.5976  0.2142 -0.8177
11658TIP3    H156465   3.693   1.502  16.616 -0.9572  1.2575  0.3600
11658TIP3    H256466   3.724   1.522  16.469  0.8198 -1.5808  0.2632
11659TIP3   OH256467   0.218   6.064   3.111  0.1158 -0.3813 -0.0717
11659TIP3    H156468   0.300   6.017   3.132 -0.4818 -0.5453  2.2541
11659TIP3    H256469   0.243   6.156   3.108  0.6657 -0.5554 -1.0079
11660TIP3   OH256470   0.222   1.919  13.589  0.1099  0.2875  0.5710
11660TIP3    H156471   0.171   1.914  13.508  0.6596 -1.2590  0.2931
11660TIP3    H256472   0.307   1.955  13.563  0.0937  0.3220  0.5658
11661TIP3   OH256473   1.535   0.866   1.700  0.1767 -0.1243  0.1558
11661TIP3    H156474   1.448   0.828   1.712  0.5267 -1.9294 -2.2553
11661TIP3    H256475   1.518   0.959   1.683 -1.0712 -0.0131  1.7156
11662TIP3   OH256476   0.302   4.981  14.023 -0.4298 -0.2653  0.2025
11662TIP3    H156477   0.243   4.967  13.949 -0.7699  1.2996  0.1395
11662TIP3    H256478   0.359   5.052  13.995 -0.1878 -0.0456  1.2183
11663TIP3   OH256479   4.499   3.869   4.632 -0.2600 -0.1181  0.4423
11663TIP3    H156480   4.531   3.917   4.709  0.2935  0.3189 -0.0497
11663TIP3    H256481   4.539   3.915   4.558 -0.1614 -1.0168 -0.0666
11664TIP3   OH256482   4.422   2.593  14.334 -0.3556  0.2672  0.0901
11664TIP3    H156483   4.411   2.684  14.360 -0.0105  0.2098  0.4564
11664TIP3    H256484   4.473   2.597  14.253  1.1460  0.3594  0.9877
11665TIP3   OH256485   4.267   3.724   5.578  0.4461  0.3552 -0.5746
11665TIP3    H156486   4.283   3.792   5.512  1.8811 -0.3665 -1.0084
11665TIP3    H256487   4.257   3.644   5.527  1.0540 -0.1285  0.0546
11666TIP3   OH256488   5.058   3.381  16.609 -0.1743  0.5352 -0.0259
11666TIP3    H156489   5.150   3.368  16.631 -0.6475 -0.4408  1.5753
11666TIP3    H256490   5.012   3.376  16.694 -1.6449  1.5697 -0.7004
11667TIP3   OH256491   1.369   5.811  12.280 -0.6264 -0.0824  0.0714
11667TIP3    H156492   1.418   5.795  12.199 -1.7266 -1.1235 -0.4163
11667TIP3    H256493   1.392   5.902  12.303  0.6894 -0.1815 -0.6937
11668TIP3   OH256494   0.349   3.698  15.132 -0.5290 -0.3608  0.2979
11668TIP3    H156495   0.302   3.739  15.059 -1.1171  0.1181  0.9366
11668TIP3    H256496   0.393   3.770  15.176 -0.8187 -0.5314  0.8804
11669TIP3   OH256497   6.234   2.809  13.813  0.1253  0.4243  0.8201
11669TIP3    H156498   6.244   2.841  13.724  0.6596  1.5940  1.2764
11669TIP3    H256499   6.288   2.867  13.866 -0.7737  0.2268  2.0147
11670TIP3   OH256500   1.252   4.255  12.340  0.0608  0.7519 -0.0088
11670TIP3    H156501   1.227   4.195  12.269  1.4004 -1.3814  1.1940
11670TIP3    H256502   1.178   4.254  12.400  0.4656 -0.6796  0.5358
11671TIP3   OH256503   0.604   4.562  16.763 -0.5533 -0.4970  0.2906
11671TIP3    H156504   0.639   4.516  16.686  0.4096 -1.4992  1.3041
11671TIP3    H256505   0.598   4.495  16.831 -1.4878  0.3550  1.0811
11672TIP3   OH256506   4.947   0.984  13.974  0.4902  0.0270  0.1754
11672TIP3    H156507   4.954   0.938  13.890 -1.2288  0.4089 -0.2207
11672TIP3    H256508   5.036   0.983  14.010  1.3165  0.0906 -1.7630
11673TIP3   OH256509   3.901   4.299  11.582 -0.0018  0.1577  0.0150
11673TIP3    H156510   3.857   4.325  11.663  2.5979  2.6964  0.7843
11673TIP3    H256511   3.848   4.338  11.513  0.3706  2.2626  0.8462
11674TIP3   OH256512   1.371   6.152   0.179 -0.0726  0.6363  0.7689
11674TIP3    H156513   1.379   6.247   0.179 -0.3695  0.6896 -0.7680
11674TIP3    H256514   1.350   6.129   0.088 -0.4956 -0.8599  1.2036
11675TIP3   OH256515   5.368   3.137  13.999 -0.5101  0.0261 -0.1521
11675TIP3    H156516   5.358   3.131  14.094  1.2525  0.4889  0.0961
11675TIP3    H256517   5.460   3.161  13.986 -0.8003  0.2913 -1.9677
11676TIP3   OH256518   1.970   2.040   0.942  0.1054  0.5964 -0.6582
11676TIP3    H156519   2.031   2.011   0.874  0.5463 -1.0592  0.3722
11676TIP3    H256520   2.001   2.127   0.966  2.4909 -0.3993  0.2185
11677TIP3   OH256521   6.481   5.402   4.233 -0.0832 -0.0715 -0.3114
11677TIP3    H156522   6.534   5.480   4.224 -1.3276  0.9225  0.5435
11677TIP3    H256523   6.414   5.426   4.298 -1.7928 -1.1187 -1.6054
11678TIP3   OH256524   5.645   3.054  11.365  0.5455  0.1256  0.0872
11678TIP3    H156525   5.711   3.001  11.409 -1.2339 -0.6055  2.0798
11678TIP3    H256526   5.682   3.142  11.363  2.6251 -0.7050 -1.2642
11679TIP3   OH256527   5.885   0.302   4.273  0.3296  0.0335  0.4296
11679TIP3    H156528   5.851   0.308   4.362  0.7512 -1.1547  0.6903
11679TIP3    H256529   5.964   0.356   4.274  0.7049 -0.5168  0.9736
11680TIP3   OH256530   6.156   6.023   0.717 -0.2321  1.3442  0.0529
11680TIP3    H156531   6.076   5.984   0.753 -1.0101  1.0106 -1.8986
11680TIP3    H256532   6.223   6.008   0.784 -0.9646 -1.5513  0.2647
11681TIP3   OH256533   1.783   4.543   3.839  0.3924  0.0621  0.1280
11681TIP3    H156534   1.829   4.459   3.834 -0.0789 -0.2306  0.6648
11681TIP3    H256535   1.709   4.534   3.780 -0.6769 -0.5587  1.5086
11682TIP3   OH256536   6.641   3.575  16.537  0.4762  0.0323 -0.5024
11682TIP3    H156537   6.636   3.603  16.446  0.4431  0.1625 -0.4600
11682TIP3    H256538   6.599   3.489  16.539 -1.0746  0.7762 -0.2891
11683TIP3   OH256539   1.181   0.549   5.039  0.1375  0.1203 -0.3326
11683TIP3    H156540   1.210   0.547   5.130  2.8804  1.9904 -1.0196
11683TIP3    H256541   1.110   0.613   5.038 -0.6458 -0.7045  0.6265
11684TIP3   OH256542   1.692   0.182   0.446  0.5401 -0.0228 -0.6142
11684TIP3    H156543   1.631   0.243   0.489 -0.1344 -0.5005 -0.8648
11684TIP3    H256544   1.685   0.102   0.497  0.7845 -0.1575 -0.7917
11685TIP3   OH256545   2.889   2.589  14.608  0.1711 -0.3970 -0.7910
11685TIP3    H156546   2.872   2.640  14.529  0.7310  0.4903 -0.3567
11685TIP3    H256547   2.959   2.638  14.653 -1.5740  0.3031  1.3253
11686TIP3   OH256548   5.737   1.838  11.476 -0.0710 -0.1502 -0.2360
11686TIP3    H156549   5.752   1.877  11.389 -2.6574  0.2930 -0.5639
11686TIP3    H256550   5.790   1.892  11.535 -1.6116  2.3979 -1.0041
11687TIP3   OH256551   5.377   4.711  15.966 -0.0618  0.1235 -0.2569
11687TIP3    H156552   5.352   4.799  15.939  0.7236  0.6538  0.6392
11687TIP3    H256553   5.421   4.673  15.890 -1.6367 -0.0353 -1.1148
11688TIP3   OH256554   6.546   0.209   1.576  0.6774  0.7897 -0.4277
11688TIP3    H156555   6.517   0.248   1.493 -0.1714  2.6038  0.6539
11688TIP3    H256556   6.610   0.271   1.610 -0.3156  1.0031  1.1111
11689TIP3   OH256557   5.495   4.730  15.688 -0.3908  0.5731  0.3240
11689TIP3    H156558   5.489   4.643  15.649  0.1857  1.1267 -1.1002
11689TIP3    H256559   5.569   4.725  15.749  0.9293  0.5447 -1.2074
11690TIP3   OH256560   1.601   3.009  11.880  0.0916  0.5924  0.5442
11690TIP3    H156561   1.696   3.015  11.885  0.5303 -3.4849  0.5246
11690TIP3    H256562   1.583   2.974  11.793 -1.3540  0.2685  0.9375
11691TIP3   OH256563   6.506   0.087  12.276 -0.4081 -0.5626 -0.6926
11691TIP3    H156564   6.584   0.078  12.331 -1.2812  2.5459  1.3215
11691TIP3    H256565   6.539   0.121  12.193  0.3801  1.4645  0.4011
11692TIP3   OH256566   0.713   4.025   4.022  0.5308 -0.0946  0.4604
11692TIP3    H156567   0.652   4.008   4.094 -1.4173  1.8226 -0.6096
11692TIP3    H256568   0.778   4.083   4.060 -0.5064  0.9406  0.7246
11693TIP3   OH256569   6.007   1.798   0.017 -0.5035  0.4835  0.7071
11693TIP3    H156570   5.913   1.779   0.012 -0.2280 -1.3329  1.5756
11693TIP3    H256571   6.041   1.735   0.081  1.8478 -1.3079 -2.0357
11694TIP3   OH256572   2.125   0.323   1.703  0.2288  0.7930 -0.0484
11694TIP3    H156573   2.070   0.245   1.698  1.1764  0.0774  0.2831
11694TIP3    H256574   2.119   0.350   1.795  2.7115 -1.0541  0.7590
11695TIP3   OH256575   0.175   5.733  10.465 -0.1628  0.1778  0.5703
11695TIP3    H156576   0.165   5.639  10.448  0.4762  0.0205  1.0563
11695TIP3    H256577   0.185   5.772  10.378 -1.8982 -0.0145  0.2500
11696TIP3   OH256578   1.697   6.198  11.508  0.4774  0.2314  0.2908
11696TIP3    H156579   1.701   6.210  11.413 -2.2605 -1.0691 -0.0515
11696TIP3    H256580   1.646   6.273  11.540  1.4891  0.7321  0.7901
11697TIP3   OH256581   5.517   6.461  12.469 -0.3752  0.2830 -0.6595
11697TIP3    H156582   5.474   6.467  12.554  1.5386  2.2732  0.2452
11697TIP3    H256583   5.450   6.490  12.407 -2.0177 -1.8168 -0.0116
11698TIP3   OH256584   3.610   2.495  14.468 -0.2333  0.3787 -0.0836
11698TIP3    H156585   3.657   2.422  14.508  2.1256  1.8518  0.0539
11698TIP3    H256586   3.536   2.455  14.423  0.3904 -1.9506  0.8238
11699TIP3   OH256587   3.149   1.984  16.376  0.9935  0.1323 -1.2450
11699TIP3    H156588   3.150   2.037  16.456 -0.4052  0.2703 -1.2783
11699TIP3    H256589   3.233   2.002  16.334  1.5964  0.3549 -0.0011
11700TIP3   OH256590   4.983   1.290  11.893  0.2003 -0.2746 -0.0185
11700TIP3    H156591   5.004   1.309  11.985 -2.0987 -1.2051  0.7691
11700TIP3    H256592   4.973   1.194  11.890 -1.4872 -0.1128 -0.7910
11701TIP3   OH256593   3.182   1.625   2.278  0.7005  0.2977 -0.7495
11701TIP3    H156594   3.204   1.577   2.358 -1.2433  0.3492 -0.1330
11701TIP3    H256595   3.172   1.558   2.211  0.4709  0.0744 -0.4931
11702TIP3   OH256596   1.570   2.853   2.411  0.2775  1.0738 -0.2872
11702TIP3    H156597   1.524   2.833   2.493 -1.0858  1.6873 -0.8592
11702TIP3    H256598   1.653   2.891   2.439 -0.0892  1.1144  0.8183
11703TIP3   OH256599   5.188   3.585   3.852  0.2530  0.2589  0.6357
11703TIP3    H156600   5.190   3.649   3.781 -1.0958  1.3132  1.4868
11703TIP3    H256601   5.280   3.569   3.873  0.6291  1.4212 -0.0455
11704TIP3   OH256602   2.048   3.678   3.126  0.0486  0.3735  0.5462
11704TIP3    H156603   2.116   3.621   3.161  1.4301  1.7475  0.2320
11704TIP3    H256604   2.071   3.765   3.158 -0.5587  1.1511 -1.0153
11705TIP3   OH256605   3.328   3.222  12.621 -0.0702  0.6953  0.1390
11705TIP3    H156606   3.248   3.273  12.610  0.3974  1.3578 -0.2536
11705TIP3    H256607   3.318   3.149  12.559  0.2425  1.5546 -0.9650
11706TIP3   OH256608   1.242   6.495   2.392 -0.1623 -0.0677  0.1233
11706TIP3    H156609   1.161   6.531   2.357 -0.0201  1.5951  1.3974
11706TIP3    H256610   1.310   6.523   2.331 -0.6380 -2.9630 -1.9599
11707TIP3   OH256611   4.192   3.256   2.611  0.3765 -0.1579 -0.1534
11707TIP3    H156612   4.239   3.261   2.528 -0.7398  0.2316 -0.7888
11707TIP3    H256613   4.103   3.285   2.590 -0.3998 -1.6750  0.8026
11708TIP3   OH256614   6.330   0.309  12.086  0.2548  0.2067 -0.8911
11708TIP3    H156615   6.341   0.392  12.039 -1.6381  0.7568 -0.4466
11708TIP3    H256616   6.332   0.333  12.179  0.4013 -0.3639 -0.7394
11709TIP3   OH256617   2.500   0.309  16.669 -0.3082  0.5486 -0.1417
11709TIP3    H156618   2.467   0.337  16.755  0.9527  0.9819  0.2223
11709TIP3    H256619   2.484   0.214  16.668 -1.4455  0.7286  0.0570
11710TIP3   OH256620   4.469   3.737  15.491 -0.0911 -0.3458  0.0877
11710TIP3    H156621   4.533   3.665  15.498 -0.5809 -0.6671  1.7998
11710TIP3    H256622   4.507   3.796  15.426  0.4851 -1.9761 -1.1467
11711TIP3   OH256623   4.221   2.772  16.949 -0.6150 -0.1864  0.5397
11711TIP3    H156624   4.214   2.694  17.005 -1.5194 -0.1673  0.4606
11711TIP3    H256625   4.235   2.844  17.010  2.4372 -0.6402  0.5103
11712TIP3   OH256626   4.645   4.547   5.778 -0.2793  0.3607  0.3424
11712TIP3    H156627   4.610   4.590   5.700  1.6364  2.5676  0.5913
11712TIP3    H256628   4.726   4.506   5.749 -0.5463 -0.5012  0.7751
11713TIP3   OH256629   1.095   3.805   1.776  0.3117 -0.0164  0.0781
11713TIP3    H156630   1.024   3.856   1.816 -0.7523 -1.7246  0.4434
11713TIP3    H256631   1.173   3.861   1.786 -0.7169  1.3513  0.8052
11714TIP3   OH256632   0.874   2.552  12.600 -0.0215  0.0223  0.4339
11714TIP3    H156633   0.936   2.621  12.578 -1.2390  0.7645 -0.8531
11714TIP3    H256634   0.791   2.598  12.613 -0.9591 -1.2046 -0.8461
11715TIP3   OH256635   1.669   0.563  13.055 -0.0535  0.2051 -0.6944
11715TIP3    H156636   1.676   0.641  13.111  1.0505 -1.4384  1.6355
11715TIP3    H256637   1.672   0.598  12.966 -2.0635  2.9967  0.1791
11716TIP3   OH256638   4.580   5.770  16.904  0.5599  0.2855 -0.2187
11716TIP3    H156639   4.583   5.681  16.870  0.7598  0.3437 -0.3606
11716TIP3    H256640   4.598   5.762  16.997 -1.6837 -0.0480  0.2260
11717TIP3   OH256641   5.638   5.841  13.172 -0.1218 -0.5753 -0.5922
11717TIP3    H156642   5.658   5.857  13.080  0.9546 -0.5146 -0.3722
11717TIP3    H256643   5.669   5.752  13.189  0.9478 -0.1109  0.0182
11718TIP3   OH256644   3.768   6.041  15.455  0.2079 -0.4766 -0.7440
11718TIP3    H156645   3.777   5.947  15.466 -2.4005 -0.7255 -0.2200
11718TIP3    H256646   3.816   6.060  15.374  0.6181 -2.2674 -0.9641
11719TIP3   OH256647   2.881   2.989   4.204  0.5655  0.2646  0.0958
11719TIP3    H156648   2.852   2.901   4.179  2.1394 -0.1010 -0.6171
11719TIP3    H256649   2.877   2.989   4.300 -1.8825  0.3451  0.0580
11720TIP3   OH256650   4.755   2.166   3.974 -0.1258  0.4891  0.1241
11720TIP3    H156651   4.748   2.178   3.880 -0.2605  1.4286  0.2445
11720TIP3    H256652   4.780   2.252   4.008 -0.6109  0.3002  0.9981
11721TIP3   OH256653   1.176   1.590  14.718 -0.1782  0.5909 -0.1377
11721TIP3    H156654   1.269   1.598  14.698  0.0223  1.9154  1.1402
11721TIP3    H256655   1.143   1.524  14.656  1.5023  0.4200 -0.8941
11722TIP3   OH256656   5.168   4.365   1.761  0.1011 -0.0968  0.5563
11722TIP3    H156657   5.175   4.289   1.817 -1.2688  0.0724  0.9959
11722TIP3    H256658   5.205   4.437   1.813  1.4921 -0.4468  0.0995
11723TIP3   OH256659   2.031   0.151   4.343  0.3988 -0.0536 -0.5860
11723TIP3    H156660   2.086   0.155   4.421 -0.5510 -1.2049  0.2007
11723TIP3    H256661   2.089   0.121   4.274  1.3842  1.5087 -0.4751
11724TIP3   OH256662   5.361   5.476   0.890  0.0659 -0.0155  0.3732
11724TIP3    H156663   5.376   5.519   0.974  1.0831  0.4813 -0.0378
11724TIP3    H256664   5.434   5.505   0.835  0.4835 -1.8247 -0.1119
11725TIP3   OH256665   4.306   1.611   3.041 -0.2932  0.6492  0.1618
11725TIP3    H156666   4.392   1.585   3.073 -0.3392 -0.2988 -0.4538
11725TIP3    H256667   4.244   1.554   3.088 -0.2745 -1.8573 -2.5877
11726TIP3   OH256668   5.576   6.629  13.143  0.3780  0.0240 -0.0495
11726TIP3    H156669   5.579   6.724  13.154  1.0927 -0.0252  0.2751
11726TIP3    H256670   5.626   6.595  13.217 -0.7837 -0.6608  0.4391
11727TIP3   OH256671   2.379   0.361   4.383 -0.0526  0.2978 -0.4484
11727TIP3    H156672   2.394   0.277   4.426  0.9558 -0.3396 -1.9732
11727TIP3    H256673   2.323   0.409   4.444  0.0250 -1.1529  0.8307
11728TIP3   OH256674   3.395   1.216   2.301  0.6351 -0.2925  0.2348
11728TIP3    H156675   3.445   1.138   2.277  2.0398  0.4554  0.5857
11728TIP3    H256676   3.377   1.259   2.217  3.9487  1.3706  0.2179
11729TIP3   OH256677   3.347   4.955  10.980  0.1065  0.2951 -0.5875
11729TIP3    H156678   3.418   4.892  10.969 -0.2504  0.2270 -2.9309
11729TIP3    H256679   3.274   4.918  10.930 -1.3148  0.8367  0.9571
11730TIP3   OH256680   6.465   3.647   4.139 -0.0872 -0.0921  0.1835
11730TIP3    H156681   6.554   3.638   4.174 -0.9703 -1.5958  2.2558
11730TIP3    H256682   6.469   3.608   4.052  1.3571  0.1981  0.0935
11731TIP3   OH256683   2.199   6.583   1.302  0.3003  0.1315  0.6348
11731TIP3    H156684   2.137   6.536   1.357 -0.7273 -0.0464 -0.6304
11731TIP3    H256685   2.150   6.603   1.222  0.9400  2.6648  0.8050
11732TIP3   OH256686   0.485   5.276   1.361  0.1471 -0.0356 -0.1829
11732TIP3    H156687   0.416   5.247   1.302  1.2908  1.0451 -2.1465
11732TIP3    H256688   0.518   5.195   1.401  0.7017 -1.1176 -2.6230
11733TIP3   OH256689   6.390   6.221   4.353  0.6871 -0.2794  0.2366
11733TIP3    H156690   6.465   6.162   4.354  1.2270  0.3808 -0.4654
11733TIP3    H256691   6.417   6.294   4.297 -0.3109  0.1851  0.3375
11734TIP3   OH256692   5.700   4.881  16.760 -0.0341  0.3596 -0.2652
11734TIP3    H156693   5.635   4.933  16.808 -2.5231 -0.7493 -2.1437
11734TIP3    H256694   5.712   4.930  16.678  0.0070 -0.4098 -0.7278
11735TIP3   OH256695   2.608   1.507   1.120 -0.1313  0.0077 -0.1766
11735TIP3    H156696   2.621   1.601   1.103 -1.6240  0.2605 -0.0688
11735TIP3    H256697   2.565   1.504   1.205 -1.4264 -0.6629 -0.8300
11736TIP3   OH256698   6.769   4.556  10.454  0.0764  0.1682 -0.3709
11736TIP3    H156699   6.816   4.498  10.515 -0.2832  0.1789 -0.0789
11736TIP3    H256700   6.698   4.502  10.420 -0.3843  0.4953  0.0605
11737TIP3   OH256701   1.889   2.615   3.255  0.1440 -0.1454  0.0696
11737TIP3    H156702   1.890   2.657   3.169 -0.3103  0.1970  0.2240
11737TIP3    H256703   1.832   2.671   3.308  0.2209 -0.4893  0.5234
11738TIP3   OH256704   2.080   2.254   1.028  0.3849  0.3634 -0.3587
11738TIP3    H156705   2.115   2.317   0.966 -1.8239  2.8273  0.6693
11738TIP3    H256706   2.133   2.265   1.107  0.5115  0.3634 -0.4446
11739TIP3   OH256707   2.031   1.765  15.281 -0.2433 -0.2994 -0.6879
11739TIP3    H156708   1.950   1.732  15.241 -0.4727 -0.5722 -0.0215
11739TIP3    H256709   2.086   1.687  15.291 -0.7340 -0.4925  0.7755
11740TIP3   OH256710   1.014   0.034   0.127 -0.5500  0.7371  0.1703
11740TIP3    H156711   0.941   0.096   0.129 -0.1877  1.2485 -1.2431
11740TIP3    H256712   1.006  -0.010   0.043 -0.5965 -0.9326  1.0038
11741TIP3   OH256713   3.922   1.413   4.213  0.3792  0.1326 -0.0164
11741TIP3    H156714   3.896   1.402   4.121  1.0581 -0.1858 -0.1748
11741TIP3    H256715   3.955   1.328   4.239 -0.1114  0.1351  0.6339
11742TIP3   OH256716   2.375   4.381   1.991 -0.2444 -0.1565 -0.1267
11742TIP3    H156717   2.294   4.332   1.999 -1.9227  2.4039 -0.2603
11742TIP3    H256718   2.418   4.345   1.913 -2.0568 -0.4855 -1.0112
11743TIP3   OH256719   1.980   1.945  12.420  0.4128  0.0057  0.3566
11743TIP3    H156720   2.004   1.935  12.512  2.1309 -1.5883 -0.1869
11743TIP3    H256721   1.938   2.031  12.415 -1.3389 -0.5788  2.9004
11744TIP3   OH256722   1.023   4.032  10.974 -0.0725  0.0458 -0.8683
11744TIP3    H156723   1.096   3.989  11.019 -1.4436 -1.6199 -0.0861
11744TIP3    H256724   1.060   4.113  10.940  2.1246 -0.7290 -0.5068
11745TIP3   OH256725   3.750   2.421  16.137  0.4169  1.0719  0.1882
11745TIP3    H156726   3.682   2.475  16.095 -0.5714 -0.9948 -1.0044
11745TIP3    H256727   3.776   2.472  16.213 -1.5027  2.5815 -0.0664
11746TIP3   OH256728   2.408   5.353  10.952  0.0265 -0.4390  0.1938
11746TIP3    H156729   2.469   5.354  10.877  0.7573 -0.2450  0.7837
11746TIP3    H256730   2.455   5.397  11.022 -1.4216  1.1779  0.2049
11747TIP3   OH256731   5.540   3.526  16.256 -0.7652 -0.1409 -0.1039
11747TIP3    H156732   5.519   3.432  16.258  1.6227 -0.7288  1.2494
11747TIP3    H256733   5.490   3.560  16.182 -3.2631 -2.0525  0.5626
11748TIP3   OH256734   5.677   1.119  12.263  0.5622 -0.2122  0.7470
11748TIP3    H156735   5.586   1.090  12.269  0.4458  0.0540  0.2817
11748TIP3    H256736   5.728   1.041  12.281  0.2507 -0.7213 -0.4657
11749TIP3   OH256737   2.957   1.584   1.160 -0.0275  0.5954 -0.4544
11749TIP3    H156738   2.998   1.504   1.127 -0.9337 -0.8967  1.8004
11749TIP3    H256739   3.027   1.632   1.203  0.1529  0.1058 -0.2031
11750TIP3   OH256740   3.497   3.603   6.472 -0.0210 -0.2519  0.3076
11750TIP3    H156741   3.496   3.597   6.568 -2.0748 -0.8249  0.2935
11750TIP3    H256742   3.536   3.521   6.443  1.1969  0.1909  0.6464
11751TIP3   OH256743   1.365   6.726   2.775 -0.2404 -0.1823 -0.2521
11751TIP3    H156744   1.358   6.689   2.863  0.9880  0.3241  0.0811
11751TIP3    H256745   1.366   6.821   2.789  1.1343 -0.1106 -0.6799
11752TIP3   OH256746   4.181   2.918  12.468 -0.5212  0.3520 -0.4372
11752TIP3    H156747   4.221   2.969  12.538  1.0530 -2.9279  1.2733
11752TIP3    H256748   4.198   2.969  12.389  2.3268  1.7542  0.9269
11753TIP3   OH256749   1.150   0.102  12.016 -0.0247 -0.0639  0.4739
11753TIP3    H156750   1.155   0.114  11.921 -0.6032  1.2643  0.5886
11753TIP3    H256751   1.193   0.180  12.052 -0.0331 -0.4339  1.3003
11754TIP3   OH256752   4.348   2.884  15.620  0.8358  0.3381  0.4195
11754TIP3    H156753   4.437   2.857  15.644  0.1645 -1.0403  1.5214
11754TIP3    H256754   4.345   2.875  15.525  1.4695 -1.0277  0.4986
11755TIP3   OH256755   3.409   2.174   0.959 -0.1264 -0.2614  0.0708
11755TIP3    H156756   3.447   2.249   0.912  0.0501 -1.2541 -1.4437
11755TIP3    H256757   3.315   2.182   0.942 -0.0362 -0.7804 -0.7504
11756TIP3   OH256758   1.824   6.194  15.269  0.1200  0.2627  0.2739
11756TIP3    H156759   1.917   6.215  15.265 -0.0180  0.6767 -1.0305
11756TIP3    H256760   1.817   6.130  15.340  1.4418 -0.0339  0.1538
11757TIP3   OH256761   0.088   6.027  10.624  0.2659 -0.0059 -0.9009
11757TIP3    H156762   0.116   6.022  10.715  0.1938 -1.5061 -0.9434
11757TIP3    H256763   0.031   6.104  10.620 -0.9541 -0.7772  0.6624
11758TIP3   OH256764   1.226   3.775   5.734  0.1468  0.2729  0.5054
11758TIP3    H156765   1.134   3.749   5.736 -0.2243  1.5186  0.3334
11758TIP3    H256766   1.262   3.741   5.816 -0.4115 -0.3830  0.4910
11759TIP3   OH256767   3.346   0.503   1.723  0.2752 -0.2629 -0.6437
11759TIP3    H156768   3.251   0.504   1.714  0.3123  1.1019 -1.1834
11759TIP3    H256769   3.376   0.569   1.661  1.4107  0.9898  1.1336
11760TIP3   OH256770   6.337   1.631  14.000  0.0474 -0.1668 -0.2724
11760TIP3    H156771   6.394   1.613  13.925  1.2683  0.0024  0.5940
11760TIP3    H256772   6.393   1.621  14.076 -1.5053 -1.7263  0.7371
11761TIP3   OH256773   3.075   4.883  15.300 -0.0648 -0.1059 -0.1222
11761TIP3    H156774   3.135   4.877  15.375 -1.5091  0.9891  1.1967
11761TIP3    H256775   3.006   4.942  15.330  0.3338  2.0349 -3.0405
11762TIP3   OH256776   2.885   2.858  15.484  0.2534  0.4985 -0.6256
11762TIP3    H156777   2.821   2.824  15.546  2.9813 -0.7720  1.7095
11762TIP3    H256778   2.853   2.830  15.399 -1.5833 -1.2327  0.5479
11763TIP3   OH256779   6.437   5.306   1.860  0.5490  0.5782 -0.2341
11763TIP3    H156780   6.509   5.247   1.837 -0.5220 -0.6314 -0.5828
11763TIP3    H256781   6.358   5.262   1.828 -0.1534  3.1305 -2.4271
11764TIP3   OH256782   1.178   2.339  15.245  0.3146  0.4039  0.3818
11764TIP3    H156783   1.177   2.302  15.157 -0.3202 -1.1114  0.9888
11764TIP3    H256784   1.090   2.322  15.279  0.3312  1.5746  1.0790
11765TIP3   OH256785   3.749   1.628   1.312 -0.2053 -0.4191  0.3763
11765TIP3    H156786   3.721   1.543   1.347  1.9113 -1.5659 -0.5385
11765TIP3    H256787   3.762   1.613   1.219  0.7778  0.7279  0.2968
11766TIP3   OH256788   5.166   0.893  10.494 -0.9417 -0.3278  0.6396
11766TIP3    H156789   5.156   0.867  10.586  1.4609  1.7986  1.5982
11766TIP3    H256790   5.248   0.852  10.467 -0.3612  1.0692  0.2408
11767TIP3   OH256791   1.630   3.802   6.216 -0.1526 -0.4623  0.6008
11767TIP3    H156792   1.625   3.794   6.121 -2.0431 -0.5529  0.6818
11767TIP3    H256793   1.617   3.896   6.233  0.5175 -0.3933  0.7662
11768TIP3   OH256794   4.274   1.026   4.939 -0.0187  0.0075 -0.4071
11768TIP3    H156795   4.207   1.012   4.872  1.1730  0.4585 -1.7496
11768TIP3    H256796   4.317   1.108   4.913  0.2626  0.3758  1.1115
11769TIP3   OH256797   5.033   2.300  14.766  0.1811 -0.3089  0.9229
11769TIP3    H156798   5.105   2.312  14.828  0.2038 -0.2249  0.8809
11769TIP3    H256799   5.069   2.329  14.682 -0.3196  1.0063  1.1465
11770TIP3   OH256800   0.859   6.727   2.580 -0.6037 -0.0222 -0.2225
11770TIP3    H156801   0.910   6.652   2.551 -0.3108  0.6420 -1.4839
11770TIP3    H256802   0.914   6.803   2.562 -2.2256  0.7788 -2.2760
11771TIP3   OH256803   3.917   0.357  15.828  0.8809 -0.1501 -0.0865
11771TIP3    H156804   3.882   0.440  15.860  1.7748  0.0830  0.3141
11771TIP3    H256805   3.839   0.304  15.809  0.3092  0.0963  1.4334
11772TIP3   OH256806   2.397   5.690   1.453 -0.0762  0.3860  0.1931
11772TIP3    H156807   2.394   5.716   1.360 -0.0234  1.1180  0.3851
11772TIP3    H256808   2.336   5.750   1.496  0.1131  0.2351  0.6745
11773TIP3   OH256809   3.544   5.979  16.957  0.4513  0.4307  0.4471
11773TIP3    H156810   3.532   5.899  17.009 -1.2330  1.0280  1.0407
11773TIP3    H256811   3.538   5.949  16.866  1.8684 -0.4000  0.6067
11774TIP3   OH256812   3.350   1.635   2.562  0.2268  0.3355 -0.0165
11774TIP3    H156813   3.383   1.549   2.538 -1.4797 -0.4775  0.4186
11774TIP3    H256814   3.267   1.618   2.608 -1.4935  2.3009 -2.1444
11775TIP3   OH256815   5.240   2.672  13.273  0.0106  0.0834  0.1537
11775TIP3    H156816   5.155   2.707  13.247  0.1776  1.0050  0.8284
11775TIP3    H256817   5.262   2.718  13.354  2.5030  2.0984 -1.4995
11776TIP3   OH256818   5.512   4.871  11.131  0.2050 -0.4141  0.3958
11776TIP3    H156819   5.485   4.814  11.203 -0.8640  0.2039  0.4990
11776TIP3    H256820   5.432   4.915  11.103  0.9601  0.8651  0.1613
11777TIP3   OH256821   0.592   1.310   0.361 -0.0544 -0.1284 -0.3282
11777TIP3    H156822   0.508   1.340   0.396 -0.8721 -2.8077  0.2485
11777TIP3    H256823   0.569   1.242   0.299  1.6877 -1.7319  0.6759
11778TIP3   OH256824   2.981   6.179   3.399 -0.0928  0.6803 -0.2430
11778TIP3    H156825   2.948   6.192   3.310 -0.8195 -0.1756 -0.1110
11778TIP3    H256826   3.064   6.133   3.388  0.0573  1.0014 -0.4851
11779TIP3   OH256827   5.033   1.634   1.478 -0.5892  0.0564 -0.4518
11779TIP3    H156828   5.126   1.629   1.455 -0.3834  0.9020  0.1553
11779TIP3    H256829   4.987   1.628   1.395  0.0300  0.1982 -0.8114
11780TIP3   OH256830   1.957   6.445   1.273  0.3749 -0.2245 -0.3848
11780TIP3    H156831   1.904   6.439   1.193 -0.3962 -2.8418  0.2158
11780TIP3    H256832   1.899   6.414   1.342  1.6924 -0.0085  0.8494
11781TIP3   OH256833   3.375   2.133  15.020  0.1077  0.2031  0.1897
11781TIP3    H156834   3.346   2.167  15.105  0.9420  0.4988  0.3667
11781TIP3    H256835   3.304   2.156  14.960 -1.0669 -1.1114  1.0264
11782TIP3   OH256836   0.424   0.064   2.432 -0.2312 -0.4058 -0.3865
11782TIP3    H156837   0.361   0.023   2.373  0.0789  0.9970 -1.7474
11782TIP3    H256838   0.488  -0.004   2.451  0.7762 -0.4076 -3.3182
11783TIP3   OH256839   5.558   1.395  16.200  0.4855 -0.2404 -0.1533
11783TIP3    H156840   5.618   1.327  16.229 -1.1365 -1.2138  1.1634
11783TIP3    H256841   5.489   1.396  16.267 -0.0766  2.0121 -0.6594
11784TIP3   OH256842   5.234   4.702  13.343 -0.0016 -0.4731  0.3683
11784TIP3    H156843   5.282   4.625  13.314 -0.1535 -0.4263 -0.0079
11784TIP3    H256844   5.148   4.668  13.369 -0.0981 -0.4203  0.1213
11785TIP3   OH256845   5.759   1.337   1.075  0.0644 -0.1364 -0.6854
11785TIP3    H156846   5.672   1.335   1.116  0.1041 -0.4224 -0.6126
11785TIP3    H256847   5.750   1.281   0.999 -0.3887  1.4326 -1.8453
11786TIP3   OH256848   3.559   4.138  12.647 -0.2791  0.1016  0.0542
11786TIP3    H156849   3.648   4.111  12.669 -0.1773 -0.5890 -1.1497
11786TIP3    H256850   3.507   4.058  12.652 -0.5386  0.2111 -0.6971
11787TIP3   OH256851   0.737   5.308  12.762 -0.1735 -0.4362 -0.0829
11787TIP3    H156852   0.768   5.347  12.843  1.8142  0.7014 -1.3162
11787TIP3    H256853   0.666   5.250  12.789 -0.6064  1.0473  2.2757
11788TIP3   OH256854   6.045   1.727  16.882 -0.1411 -0.2088  0.5071
11788TIP3    H156855   6.022   1.782  16.956 -1.5226  0.1240 -0.1429
11788TIP3    H256856   6.047   1.638  16.918 -0.5118 -0.0210  1.0019
11789TIP3   OH256857   0.179   3.851  14.578 -0.3627 -0.2867  0.2953
11789TIP3    H156858   0.237   3.775  14.587  0.6910  0.2423 -1.6412
11789TIP3    H256859   0.223   3.908  14.516 -2.5202  0.5906 -0.5112
11790TIP3   OH256860   5.454   5.320   1.616  0.1509 -0.0217  0.3322
11790TIP3    H156861   5.370   5.282   1.591 -0.2586  1.7245 -1.1600
11790TIP3    H256862   5.469   5.390   1.552  3.9935 -1.8430 -1.0641
11791TIP3   OH256863   0.812   1.917  15.405  0.0549 -0.3132  0.3713
11791TIP3    H156864   0.841   1.869  15.327  1.8856 -0.7219  1.2492
11791TIP3    H256865   0.726   1.952  15.381  0.6014 -0.3330 -1.8675
11792TIP3   OH256866   6.124   4.080  13.356  0.4341  0.4441 -0.1892
11792TIP3    H156867   6.185   4.065  13.429 -1.6874 -1.1159  1.3747
11792TIP3    H256868   6.066   4.149  13.387 -1.0598 -0.8686  0.0380
11793TIP3   OH256869   1.814   6.199   1.664  0.6043 -0.1570 -0.2408
11793TIP3    H156870   1.757   6.146   1.720  0.2267 -0.7920 -1.1853
11793TIP3    H256871   1.833   6.142   1.589 -0.3114  1.2387 -1.6007
11794TIP3   OH256872   1.142   6.426  10.503  0.8381 -0.0222  0.2210
11794TIP3    H156873   1.051   6.430  10.475  0.8832  1.9064  0.1998
11794TIP3    H256874   1.190   6.399  10.424  0.7678  3.7188 -1.3233
11795TIP3   OH256875   6.126   1.795  15.893  0.1031 -0.2916 -0.1086
11795TIP3    H156876   6.106   1.703  15.907 -0.3541 -0.2499 -0.4601
11795TIP3    H256877   6.167   1.823  15.975  0.8295 -0.9542 -0.2314
11796TIP3   OH256878   0.663   5.303  15.867 -0.1282  0.3939 -0.1118
11796TIP3    H156879   0.708   5.348  15.938 -0.4371 -0.6355  0.7604
11796TIP3    H256880   0.593   5.363  15.841  0.4092  1.0711 -0.0249
11797TIP3   OH256881   6.524   3.046  13.596 -0.5841 -0.0107 -0.1200
11797TIP3    H156882   6.568   2.978  13.545 -0.1083 -0.4386  0.8306
11797TIP3    H256883   6.551   3.028  13.686 -1.7842  0.4403  0.3351
11798TIP3   OH256884   4.877   1.553  13.711  0.3102 -0.2962 -0.4485
11798TIP3    H156885   4.875   1.640  13.751 -1.5929  0.0319 -1.1644
11798TIP3    H256886   4.862   1.492  13.783  0.5197  0.0345 -0.1221
11799TIP3   OH256887   1.942   3.338   1.380 -0.2386  0.0988 -0.0194
11799TIP3    H156888   1.894   3.262   1.348 -0.2024 -0.0056  0.1701
11799TIP3    H256889   1.881   3.380   1.440 -0.3076  0.2944 -0.2260
11800TIP3   OH256890   2.812   1.287   1.826 -0.3115 -0.0578 -0.1708
11800TIP3    H156891   2.896   1.273   1.870  0.3893  0.2292 -1.3473
11800TIP3    H256892   2.821   1.374   1.786 -1.5368  0.3744  0.4593
11801TIP3   OH256893   4.641   0.036   1.563  0.0797 -0.0768 -0.1555
11801TIP3    H156894   4.683   0.105   1.512 -0.4530  0.6158  0.3138
11801TIP3    H256895   4.551   0.034   1.531 -0.2074  0.2297  0.6127
11802TIP3   OH256896   0.036   1.229  11.460  0.3769  0.5895 -0.0080
11802TIP3    H156897  -0.022   1.305  11.451  0.7924  1.1044  1.4410
11802TIP3    H256898  -0.019   1.154  11.437 -0.6568  1.1294  0.6341
11803TIP3   OH256899   4.286   0.725   4.676 -0.5182 -0.3731  0.2858
11803TIP3    H156900   4.308   0.816   4.656  0.1889 -0.7488 -0.7272
11803TIP3    H256901   4.327   0.709   4.761 -0.0319  0.0401  0.1343
11804TIP3   OH256902   0.187   5.783   3.624 -0.1494  0.0495  0.2392
11804TIP3    H156903   0.132   5.705   3.630 -1.1740  0.7434  0.0009
11804TIP3    H256904   0.202   5.809   3.714 -0.3845 -0.0202  0.2991
11805TIP3   OH256905   3.133   0.124  12.560  0.0225 -0.3572 -0.2752
11805TIP3    H156906   3.169   0.184  12.495  0.3891  0.4441  0.6527
11805TIP3    H256907   3.038   0.125  12.543  0.2906 -1.9393 -2.2599
11806TIP3   OH256908   0.220   6.418  11.611 -0.3410  0.4968  0.3714
11806TIP3    H156909   0.129   6.389  11.607 -1.0866  2.3252  2.2493
11806TIP3    H256910   0.221   6.500  11.563  0.2451  0.6691  0.6678
11807TIP3   OH256911   5.649   5.989  10.481 -0.2749 -0.0250 -0.0961
11807TIP3    H156912   5.581   6.049  10.450 -1.6510 -1.3560  0.2240
11807TIP3    H256913   5.602   5.923  10.531  1.4657 -0.0803  1.5721
11808TIP3   OH256914   2.554   2.856  12.996  0.2078 -0.6321 -0.4354
11808TIP3    H156915   2.532   2.932  13.050  2.4865  0.5727 -1.0591
11808TIP3    H256916   2.476   2.839  12.944 -0.7412  0.5332  0.5622
11809TIP3   OH256917   5.111   6.618  15.616 -0.5202 -0.4881 -0.0274
11809TIP3    H156918   5.197   6.602  15.577 -0.1423  0.6010  0.3293
11809TIP3    H256919   5.105   6.713  15.622 -1.5019 -0.5755  0.5175
11810TIP3   OH256920   5.386   2.389   2.868 -0.7180  0.0678 -0.8452
11810TIP3    H156921   5.296   2.406   2.840 -1.7919 -1.9992  0.9898
11810TIP3    H256922   5.420   2.475   2.892 -2.5684  0.7961 -0.6545
11811TIP3   OH256923   5.496   3.833  17.004  0.0623  0.0146 -0.0813
11811TIP3    H156924   5.531   3.764  17.061  0.1842 -0.8344 -1.1332
11811TIP3    H256925   5.536   3.914  17.035  0.6195 -0.5251  0.6254
11812TIP3   OH256926   4.605   6.134  11.338  0.7649 -0.5239  0.5074
11812TIP3    H156927   4.509   6.133  11.340  0.6803  0.3455 -1.5023
11812TIP3    H256928   4.629   6.050  11.298  0.7783 -0.0872 -0.4051
11813TIP3   OH256929   0.512   6.157   2.933 -0.5662 -0.3134 -0.6763
11813TIP3    H156930   0.547   6.236   2.891 -1.9302  0.1965 -0.8900
11813TIP3    H256931   0.532   6.168   3.026 -0.0634 -0.0990 -0.8038
11814TIP3   OH256932   0.784   2.251   1.920  0.5798  0.3595 -0.1721
11814TIP3    H156933   0.870   2.258   1.962  0.2263  1.5588  0.3782
11814TIP3    H256934   0.796   2.288   1.833  0.8769 -0.5104 -0.5181
11815TIP3   OH256935   1.638   3.901  10.147 -0.1327  0.3011 -0.6983
11815TIP3    H156936   1.613   3.870  10.234 -1.4671  1.2811 -0.7024
11815TIP3    H256937   1.716   3.953  10.161  0.4053 -0.5936 -0.2824
11816TIP3   OH256938   0.708   2.881  16.087 -0.2338 -0.1062  0.1400
11816TIP3    H156939   0.669   2.800  16.053  1.0567 -0.4892 -0.4910
11816TIP3    H256940   0.670   2.891  16.174  0.1387 -1.8194  0.5523
11817TIP3   OH256941   2.538   4.606  16.058 -0.6390 -0.0348  0.2031
11817TIP3    H156942   2.518   4.692  16.021 -1.7516 -0.2762  0.2044
11817TIP3    H256943   2.633   4.598  16.051 -0.6112  0.8400 -0.5717
11818TIP3   OH256944   6.665   5.192   5.306 -0.0058  0.0711 -0.1868
11818TIP3    H156945   6.583   5.145   5.286  0.6905 -0.7734 -1.2176
11818TIP3    H256946   6.637   5.278   5.336 -1.2988 -0.5217  0.3922
11819TIP3   OH256947   0.298   3.782   4.744 -0.0243  0.8106 -0.6874
11819TIP3    H156948   0.258   3.773   4.658  1.0374 -0.6426 -1.0660
11819TIP3    H256949   0.392   3.769   4.728  0.1152 -0.1554  0.7746
11820TIP3   OH256950   3.521   3.946   5.677 -0.4507  0.0286 -0.2570
11820TIP3    H156951   3.447   3.989   5.634 -0.6961 -1.0173 -0.9100
11820TIP3    H256952   3.520   3.980   5.767 -1.9759 -0.2555 -0.1390
11821TIP3   OH256953   2.558   5.307  12.852 -0.2354 -0.1527 -0.2195
11821TIP3    H156954   2.626   5.248  12.884  0.3986 -0.0444 -1.3142
11821TIP3    H256955   2.499   5.251  12.802 -0.4111 -0.0902 -0.0819
11822TIP3   OH256956   5.150   1.222  14.748  0.3711 -0.1712  0.4893
11822TIP3    H156957   5.160   1.286  14.677 -1.1597  0.0465  0.4339
11822TIP3    H256958   5.184   1.140  14.712 -1.4286 -0.3421 -0.9524
11823TIP3   OH256959   5.406   0.811  10.743  0.0078 -0.3219 -0.3633
11823TIP3    H156960   5.400   0.906  10.754 -1.5495 -0.6906  4.0086
11823TIP3    H256961   5.494   0.797  10.708  0.7604  2.6688 -0.0159
11824TIP3   OH256962   4.301   5.336   0.437 -0.3484  0.4835  0.4281
11824TIP3    H156963   4.384   5.377   0.463  0.4160 -0.0623 -1.0429
11824TIP3    H256964   4.327   5.259   0.387 -1.7598  0.1305  0.1932
11825TIP3   OH256965   2.369   1.701   6.021  0.5550  0.5858 -0.2514
11825TIP3    H156966   2.325   1.665   6.098 -1.3719  1.9558 -0.6342
11825TIP3    H256967   2.348   1.639   5.950  0.3039  0.5690 -0.1635
11826TIP3   OH256968   3.514   0.218   2.068 -0.2877  0.7029 -0.1601
11826TIP3    H156969   3.576   0.149   2.090 -1.0799  0.0440  0.0841
11826TIP3    H256970   3.428   0.179   2.085 -0.7278  2.3465  1.8275
11827TIP3   OH256971   2.479   5.381  15.297 -0.0249 -0.3276  0.6189
11827TIP3    H156972   2.496   5.316  15.229 -0.4078  0.9539 -0.7214
11827TIP3    H256973   2.537   5.355  15.369 -0.5870 -2.5012  0.3830
11828TIP3   OH256974   0.463   2.593   5.415 -0.0345  0.2740 -0.4474
11828TIP3    H156975   0.491   2.684   5.423 -0.6672  0.3608  1.3409
11828TIP3    H256976   0.371   2.594   5.443 -0.3637 -0.7517 -1.4326
11829TIP3   OH256977   1.485   0.219  13.154 -0.1345  0.6663 -0.1429
11829TIP3    H156978   1.412   0.183  13.204 -0.4265  0.8426 -0.4482
11829TIP3    H256979   1.558   0.220  13.217 -0.4998  0.8943  0.2798
11830TIP3   OH256980   5.351   1.049   2.435 -0.0834 -0.5245  0.6591
11830TIP3    H156981   5.374   0.957   2.445 -0.2405 -0.6171  0.1964
11830TIP3    H256982   5.352   1.084   2.524  1.3766 -0.6275  0.7040
11831TIP3   OH256983   1.026   2.719  10.899  0.0410 -0.2312  0.3890
11831TIP3    H156984   1.082   2.753  10.828 -1.1025 -0.9872 -0.9139
11831TIP3    H256985   0.957   2.784  10.908  0.0007 -0.3024  0.5978
11832TIP3   OH256986   3.988   0.860   2.635  0.5128  0.5422  0.0178
11832TIP3    H156987   3.921   0.859   2.566  0.4132 -1.6744  0.0758
11832TIP3    H256988   4.067   0.829   2.591  1.3880  2.4479  0.1310
11833TIP3   OH256989   0.846   2.094  14.727 -0.6738 -0.1271 -0.3910
11833TIP3    H156990   0.903   2.018  14.728 -1.6911 -0.9163  0.1094
11833TIP3    H256991   0.830   2.113  14.819 -0.9075  0.3140 -0.5212
11834TIP3   OH256992   6.057   3.143  11.482 -0.3775 -0.4751  0.3069
11834TIP3    H156993   5.993   3.133  11.553 -1.3735  2.1150 -0.1133
11834TIP3    H256994   6.009   3.189  11.413  0.5752 -2.8171 -2.0893
11835TIP3   OH256995   6.695   3.517   2.456  0.5009 -0.2293 -0.1493
11835TIP3    H156996   6.695   3.489   2.547  1.8147 -0.6555 -0.2606
11835TIP3    H256997   6.766   3.467   2.415  0.7919  0.8954 -1.0951
11836TIP3   OH256998   6.368   0.579   4.689 -0.3105  0.0450 -0.0527
11836TIP3    H156999   6.304   0.543   4.629 -0.9558  0.8905  0.1115
11836TIP3    H257000   6.342   0.546   4.775  0.7929 -1.4204 -0.2321
11837TIP3   OH257001   2.971   4.360  16.907  0.2218  0.2280  0.2391
11837TIP3    H157002   3.060   4.349  16.873  0.0673  0.6033 -0.3026
11837TIP3    H257003   2.956   4.283  16.961  1.7297  1.2278  2.2260
11838TIP3   OH257004   2.976   0.648   0.996  0.4917  0.2036  0.3932
11838TIP3    H157005   2.955   0.663   0.904  1.1750 -1.2074 -0.0281
11838TIP3    H257006   2.899   0.678   1.044 -0.1220  0.3906 -0.6779
11839TIP3   OH257007   0.806   0.853  14.793 -0.1544  0.1268 -0.8160
11839TIP3    H157008   0.776   0.912  14.863  1.2265 -4.3042  4.1771
11839TIP3    H257009   0.726   0.810  14.764 -0.4308 -1.2289  1.6568
11840TIP3   OH257010   2.320   0.729   1.282 -0.5698 -0.0032 -0.7297
11840TIP3    H157011   2.241   0.757   1.236 -0.2513 -0.3975 -1.5434
11840TIP3    H257012   2.308   0.760   1.372 -2.1497 -1.0176 -0.5542
11841TIP3   OH257013   2.304   4.555   4.231  0.0582 -0.9552 -0.2038
11841TIP3    H157014   2.273   4.495   4.163  0.8849  0.5285 -1.9619
11841TIP3    H257015   2.226   4.573   4.284 -0.9034 -1.2285 -1.4711
11842TIP3   OH257016   2.869   2.964  14.642  0.6486  0.3272 -0.1771
11842TIP3    H157017   2.869   3.058  14.626  1.0955  0.2553 -0.6316
11842TIP3    H257018   2.830   2.954  14.728  1.2366  0.9801  0.1747
11843TIP3   OH257019   4.831   5.624  12.029 -0.0803  0.1556 -0.0440
11843TIP3    H157020   4.911   5.594  11.985 -0.9981 -1.8535 -0.4678
11843TIP3    H257021   4.769   5.637  11.957 -0.2035  1.5943  0.2933
11844TIP3   OH257022   2.568   5.027  14.589 -0.3479  0.0029  0.2569
11844TIP3    H157023   2.597   4.939  14.615 -0.9350 -1.1074 -2.5181
11844TIP3    H257024   2.643   5.083  14.608  0.8823 -1.4998  0.0713
11845TIP3   OH257025   5.941   0.387   5.162 -0.3598 -0.1986  0.0680
11845TIP3    H157026   6.034   0.400   5.182 -0.0901 -1.5299 -0.2111
11845TIP3    H257027   5.939   0.366   5.068 -0.8087 -1.2564  0.2997
11846TIP3   OH257028   5.346   6.710   0.318  0.4678  0.2303 -0.0877
11846TIP3    H157029   5.404   6.786   0.312 -1.5433  1.9572  1.1224
11846TIP3    H257030   5.381   6.659   0.392  0.5679  1.1680  0.5319
11847TIP3   OH257031   5.855   0.318   2.675  0.0537  0.4499  0.0811
11847TIP3    H157032   5.778   0.312   2.618  0.8276 -1.3838 -0.8881
11847TIP3    H257033   5.842   0.249   2.740  0.7619  0.2510  0.0240
11848TIP3   OH257034   1.815   2.988   2.202 -0.6080 -0.2362  0.1841
11848TIP3    H157035   1.882   2.936   2.247 -1.0384 -0.3523  0.7009
11848TIP3    H257036   1.763   2.923   2.154 -0.8741 -0.2384  0.4740
11849TIP3   OH257037   3.756   4.303   2.594  0.1579  0.3318 -0.2156
11849TIP3    H157038   3.796   4.382   2.560 -0.2074  0.5365 -0.1802
11849TIP3    H257039   3.692   4.277   2.527  0.1024  0.2080 -0.1162
11850TIP3   OH257040   5.481   4.631   0.262 -0.3822  0.4785  0.1093
11850TIP3    H157041   5.414   4.664   0.202  0.1951  2.2943  0.4024
11850TIP3    H257042   5.560   4.682   0.241 -0.2903  1.5821  2.7036
11851TIP3   OH257043   1.130   4.015  11.623  0.6367  0.2660  0.0702
11851TIP3    H157044   1.073   3.949  11.663  1.4730 -0.9505 -0.6543
11851TIP3    H257045   1.106   4.015  11.530  1.4432  0.1021 -0.1479
11852TIP3   OH257046   0.649   0.418  11.253 -0.7260  0.0725  0.5197
11852TIP3    H157047   0.721   0.357  11.268 -0.4477  0.3069  0.1529
11852TIP3    H257048   0.651   0.435  11.159 -1.4067 -0.0957  0.4705
11853TIP3   OH257049   6.478   4.824  16.448  0.2481  0.3737 -0.1753
11853TIP3    H157050   6.456   4.743  16.493  1.6712  0.1099  0.1099
11853TIP3    H257051   6.409   4.885  16.472  0.0413 -0.2800  0.9449
11854TIP3   OH257052   6.536   5.924   1.508 -0.3070  0.0510 -0.4088
11854TIP3    H157053   6.458   5.938   1.454 -0.1503 -1.0358 -0.9329
11854TIP3    H257054   6.565   6.013   1.530 -1.8646  0.4720  0.0753
11855TIP3   OH257055   3.859   6.101  11.448 -0.3209  0.0040 -0.2669
11855TIP3    H157056   3.862   6.183  11.497 -1.1809 -0.9067  1.4242
11855TIP3    H257057   3.796   6.117  11.378  0.8810  1.3281 -1.0808
11856TIP3   OH257058   2.609   1.036   5.291 -0.1441 -0.0874 -0.2511
11856TIP3    H157059   2.525   0.996   5.267  0.7115 -1.6442 -0.8554
11856TIP3    H257060   2.674   0.968   5.270  1.1105  0.3243  1.9982
11857TIP3   OH257061   6.611   1.602  11.951 -0.6741  0.3912 -0.2211
11857TIP3    H157062   6.561   1.524  11.975 -2.2342  1.6646  0.8915
11857TIP3    H257063   6.546   1.661  11.913 -0.3048  2.4974  2.1804
11858TIP3   OH257064   4.725   4.789   3.292  0.4331 -0.3387 -0.4248
11858TIP3    H157065   4.759   4.868   3.335  0.9082 -0.6469 -0.2276
11858TIP3    H257066   4.686   4.738   3.363 -1.6078  0.5781 -0.8168
11859TIP3   OH257067   4.034   0.672   4.264 -0.0074 -0.3831  0.1012
11859TIP3    H157068   4.041   0.577   4.272 -0.3992 -0.3517  0.9913
11859TIP3    H257069   3.946   0.688   4.231  0.2246 -0.3428 -0.5098
11860TIP3   OH257070   5.795   3.448   0.630  0.4095 -0.1199 -0.0820
11860TIP3    H157071   5.880   3.445   0.586  0.5931  1.4428  0.0987
11860TIP3    H257072   5.806   3.393   0.707  0.8099 -1.0422 -0.7759
11861TIP3   OH257073   0.045   2.820   5.903  1.0333 -0.0725  0.4712
11861TIP3    H157074   0.020   2.911   5.887  0.3397 -0.4161 -0.5668
11861TIP3    H257075  -0.016   2.791   5.971  1.8099  0.4692  1.4095
11862TIP3   OH257076   3.189   2.823   2.702 -0.6100  0.3295 -0.1376
11862TIP3    H157077   3.118   2.854   2.646 -1.5201 -2.2220 -0.5530
11862TIP3    H257078   3.263   2.812   2.643 -1.2073 -1.1609 -0.6716
11863TIP3   OH257079   0.284   3.797  11.530 -0.2871 -0.2292  0.4951
11863TIP3    H157080   0.191   3.775  11.539  0.0852 -2.2959 -0.3511
11863TIP3    H257081   0.326   3.715  11.507  1.4583  1.0990 -1.3437
11864TIP3   OH257082   2.102   6.653  11.998  0.8796 -0.1615  0.1496
11864TIP3    H157083   2.018   6.696  11.980  1.2795  0.3586 -0.5093
11864TIP3    H257084   2.087   6.604  12.079  0.2439  0.7682  0.6090
11865TIP3   OH257085   1.487   5.182   3.478  0.1485 -0.3302 -0.2507
11865TIP3    H157086   1.475   5.248   3.547  1.4131 -1.2469  0.8986
11865TIP3    H257087   1.411   5.124   3.487 -1.0107  0.9430 -1.3149
11866TIP3   OH257088   6.420   5.096  13.725  0.1577 -0.1478 -0.4771
11866TIP3    H157089   6.396   5.028  13.788 -3.0070  2.2138  1.1938
11866TIP3    H257090   6.342   5.108  13.671  0.5797  2.0809 -0.7213
11867TIP3   OH257091   0.529   6.562  15.480 -0.1627 -0.8635 -0.1130
11867TIP3    H157092   0.554   6.542  15.571  0.1667 -0.2312 -0.0588
11867TIP3    H257093   0.612   6.564  15.432 -0.4789 -3.7262 -0.9941
11868TIP3   OH257094   4.388   4.846  17.051 -0.3278 -0.3828  0.3973
11868TIP3    H157095   4.400   4.752  17.065 -0.2280 -0.1810  1.8203
11868TIP3    H257096   4.311   4.852  16.995  0.4856 -1.3491 -0.8715
11869TIP3   OH257097   0.146   6.083   6.053 -0.0232  0.1088 -0.6558
11869TIP3    H157098   0.051   6.090   6.060 -0.0091 -0.5293  0.4938
11869TIP3    H257099   0.179   6.114   6.138  0.5849 -2.6750  0.2238
11870TIP3   OH257100   4.349   6.170  15.703 -0.1701  0.2897 -0.5810
11870TIP3    H157101   4.373   6.109  15.633  1.9803  2.1796 -1.6396
11870TIP3    H257102   4.254   6.162  15.710 -0.3070 -0.9823 -2.7482
11871TIP3   OH257103   1.327   4.953   4.348 -0.2602 -0.2529  0.3027
11871TIP3    H157104   1.293   4.864   4.335  0.2693 -0.7607  1.9856
11871TIP3    H257105   1.409   4.955   4.298 -0.4074 -0.6244  0.0424
11872TIP3   OH257106   3.165   4.340  11.628 -0.1974 -0.8397  0.2975
11872TIP3    H157107   3.132   4.251  11.635 -0.8919 -0.6334 -0.3147
11872TIP3    H257108   3.248   4.331  11.580 -0.4924 -1.1027 -0.1651
11873TIP3   OH257109   1.272   0.553  12.166  0.3299 -0.6576  0.2362
11873TIP3    H157110   1.338   0.489  12.197 -1.4643 -2.5312  0.4159
11873TIP3    H257111   1.202   0.547  12.230 -0.0901  1.2405 -0.0018
11874TIP3   OH257112   2.424   0.220   2.853 -0.1939 -0.4329 -0.1426
11874TIP3    H157113   2.375   0.234   2.934 -1.5402 -1.8587 -0.6757
11874TIP3    H257114   2.458   0.307   2.831  0.6116 -0.0873  2.1688
11875TIP3   OH257115   0.944   0.440  11.475 -0.0690  0.4742 -0.4354
11875TIP3    H157116   0.890   0.374  11.518 -2.0307  0.2556 -2.9806
11875TIP3    H257117   0.935   0.421  11.381  2.4315  2.0350 -1.0978
11876TIP3   OH257118   3.483   6.357  12.297  0.3141 -0.0295  0.8248
11876TIP3    H157119   3.538   6.397  12.229 -0.5287 -0.6033 -0.2157
11876TIP3    H257120   3.534   6.283  12.329  0.0164 -0.7963 -0.4146
11877TIP3   OH257121   0.197   5.867   2.381 -0.4569  0.3514  0.7691
11877TIP3    H157122   0.231   5.932   2.442  0.7414  0.5535 -0.0795
11877TIP3    H257123   0.209   5.783   2.425  1.3369  0.4056  0.4345
11878TIP3   OH257124   5.990   2.778  16.122  0.7091 -0.1541  0.0261
11878TIP3    H157125   5.969   2.870  16.104 -0.8061 -0.6047 -0.6852
11878TIP3    H257126   6.057   2.782  16.190  0.1656  1.4795  0.5308
11879TIP3   OH257127   1.594   4.983   2.279  0.0847 -0.7052  0.0809
11879TIP3    H157128   1.682   4.948   2.266  0.1083 -1.4464  1.9078
11879TIP3    H257129   1.578   5.038   2.203  1.5130 -1.7886 -1.0540
11880TIP3   OH257130   3.548   2.171  15.378 -0.6219  0.3358  0.9394
11880TIP3    H157131   3.544   2.224  15.298 -1.3277  0.9119  1.3470
11880TIP3    H257132   3.556   2.235  15.449  0.5441 -0.1870  1.3076
11881TIP3   OH257133   3.196   4.253  16.480 -0.0250 -0.1933 -0.3667
11881TIP3    H157134   3.290   4.267  16.473  0.1503 -0.6945  0.8138
11881TIP3    H257135   3.157   4.330  16.438  0.9138  0.7433  0.4360
11882TIP3   OH257136   6.694   3.673  10.925  0.2344  0.1841 -0.3021
11882TIP3    H157137   6.684   3.602  10.861  1.9071  0.1681 -0.5884
11882TIP3    H257138   6.608   3.713  10.931 -0.5377 -1.3538 -0.7588
11883TIP3   OH257139   6.698   6.405   3.458  0.7013 -0.1609  0.2600
11883TIP3    H157140   6.783   6.446   3.470  0.0254  0.5573  3.6135
11883TIP3    H257141   6.635   6.470   3.491 -1.2026 -0.6951 -2.0416
11884TIP3   OH257142   5.244   5.453  12.715  0.5124 -0.4996 -0.2432
11884TIP3    H157143   5.292   5.473  12.796  0.8939 -1.3511 -0.2458
11884TIP3    H257144   5.152   5.458  12.740  0.4207  3.3757 -0.7471
11885TIP3   OH257145   0.051   0.057  14.147 -0.4797 -0.2253 -0.0248
11885TIP3    H157146   0.043   0.031  14.238 -3.0495  0.2264 -0.0510
11885TIP3    H257147   0.008  -0.012  14.097 -1.0369  0.5775 -0.6940
11886TIP3   OH257148   1.975   4.644   1.109 -0.1281 -0.2808  0.1595
11886TIP3    H157149   2.006   4.623   1.021  0.1144  1.1867 -0.1192
11886TIP3    H257150   1.910   4.576   1.128 -0.9903  0.0114 -1.5944
11887TIP3   OH257151   5.844   2.215  16.627 -0.5920  0.5555  0.3161
11887TIP3    H157152   5.781   2.157  16.669 -1.4806  1.2046 -0.0970
11887TIP3    H257153   5.929   2.173  16.643 -0.9681  0.3625  2.0504
11888TIP3   OH257154   5.787   4.685   2.970  0.6538  0.1273 -0.7798
11888TIP3    H157155   5.842   4.641   3.035 -0.8064 -1.0638 -0.2867
11888TIP3    H257156   5.704   4.700   3.016  0.4881  1.7084 -1.5512
11889TIP3   OH257157   1.485   2.998  14.461  0.3344  0.7985 -0.3029
11889TIP3    H157158   1.570   2.994  14.504  0.4540  2.2657 -0.3547
11889TIP3    H257159   1.421   2.988  14.531  0.5467  0.5702 -0.1438
11890TIP3   OH257160   3.964   1.611   2.878  0.3385  0.7148 -0.6742
11890TIP3    H157161   3.983   1.542   2.941 -1.1441  0.8014 -0.0751
11890TIP3    H257162   3.870   1.627   2.888 -0.2079 -0.0186 -3.6860
11891TIP3   OH257163   3.271   0.103  14.374  0.3103  0.0053  0.2159
11891TIP3    H157164   3.288   0.088  14.281  1.6337 -1.5444  0.6619
11891TIP3    H257165   3.322   0.181  14.396 -0.9515  1.0978 -0.5800
11892TIP3   OH257166   0.321   0.651   3.464  0.2262 -0.4781 -0.0018
11892TIP3    H157167   0.410   0.638   3.498  1.1337  1.1975 -1.5370
11892TIP3    H257168   0.285   0.720   3.519  0.7822  0.4999 -0.8314
11893TIP3   OH257169   5.132   0.945  17.044 -0.7414  0.1736  0.4723
11893TIP3    H157170   5.049   0.987  17.066 -0.3203  0.0446  2.6068
11893TIP3    H257171   5.194   0.983  17.107  0.2911 -1.4357  0.4743
11894TIP3   OH257172   5.486   3.522   2.851  0.0516 -0.7050  0.2821
11894TIP3    H157173   5.544   3.550   2.922 -0.7230 -0.5921  0.8836
11894TIP3    H257174   5.525   3.440   2.820  1.2770  0.0415 -0.2331
11895TIP3   OH257175   0.218   5.733   4.607 -0.0155  0.5428 -0.0249
11895TIP3    H157176   0.166   5.669   4.655 -0.2660  0.6408 -0.1637
11895TIP3    H257177   0.307   5.720   4.639 -0.0884  0.2279  0.0595
11896TIP3   OH257178   6.242   4.245  13.913 -0.5376 -0.0616 -0.0031
11896TIP3    H157179   6.190   4.231  13.834 -2.9878 -0.0326  1.4806
11896TIP3    H257180   6.267   4.157  13.942 -0.1983 -0.1159 -0.4647
11897TIP3   OH257181   2.362   6.395  10.925 -0.0995 -0.6875  0.1044
11897TIP3    H157182   2.351   6.390  10.830 -1.3773  0.8449  0.1239
11897TIP3    H257183   2.390   6.485  10.941  0.8031 -1.1309  1.1417
11898TIP3   OH257184   5.072   2.103  11.101 -0.0487 -0.1680 -0.3787
11898TIP3    H157185   5.038   2.142  11.020 -1.2418  0.9695  0.6213
11898TIP3    H257186   5.049   2.010  11.095 -0.4583 -0.0183 -1.1767
11899TIP3   OH257187   1.902   0.717  12.957 -0.2951  1.0085 -0.6112
11899TIP3    H157188   1.920   0.679  12.871 -0.5458 -2.0218  0.5874
11899TIP3    H257189   1.964   0.674  13.016 -2.0340  0.8563  1.2074
11900TIP3   OH257190   4.621   0.041   2.501  0.7289 -0.0920  0.3967
11900TIP3    H157191   4.679   0.105   2.542  1.0822 -1.0144  1.3866
11900TIP3    H257192   4.608  -0.026   2.568 -0.6252 -0.4431 -0.1875
11901TIP3   OH257193   2.228   1.153  14.008 -0.8274 -0.4639 -0.1462
11901TIP3    H157194   2.275   1.212  13.949 -0.8609  0.7142  0.9268
11901TIP3    H257195   2.166   1.106  13.953 -1.2405  0.9920 -0.9887
11902TIP3   OH257196   5.284   0.895   6.784  0.3671  0.0000  0.7136
11902TIP3    H157197   5.325   0.958   6.843 -0.4490 -0.2143  1.5218
11902TIP3    H257198   5.336   0.815   6.795  1.4565  0.5323 -0.3783
11903TIP3   OH257199   6.804   0.468   0.032 -0.3006  0.0789 -0.3504
11903TIP3    H157200   6.737   0.524  -0.005 -0.8245 -1.1056 -1.2820
11903TIP3    H257201   6.771   0.379   0.018 -0.0857 -0.4724  2.1607
11904TIP3   OH257202   4.451   4.083  13.499 -0.5182  0.4579 -0.0103
11904TIP3    H157203   4.416   4.064  13.412  0.2857  2.2727 -0.7731
11904TIP3    H257204   4.528   4.026  13.506  1.2211  2.3957 -1.8066
11905TIP3   OH257205   5.397   3.969  12.856 -0.2521  0.4527  0.8961
11905TIP3    H157206   5.479   3.950  12.902  0.2055  2.6997  1.1335
11905TIP3    H257207   5.396   3.908  12.782  1.4416  0.1100  1.1119
11906TIP3   OH257208   3.330   5.930   4.845  0.2760  0.4243 -0.0165
11906TIP3    H157209   3.236   5.914   4.852  0.0313  2.1191  1.3199
11906TIP3    H257210   3.345   5.943   4.751 -0.2894 -2.4257 -0.5970
11907TIP3   OH257211   5.512   1.127  14.255  0.6417 -0.1712 -0.4842
11907TIP3    H157212   5.604   1.099  14.256  0.4419 -0.8595 -0.7734
11907TIP3    H257213   5.480   1.099  14.170  0.0177 -0.4204 -0.1724
11908TIP3   OH257214   5.142   4.244  15.330 -0.2715 -0.2396  1.1306
11908TIP3    H157215   5.112   4.245  15.421 -0.8280  0.1969  0.9526
11908TIP3    H257216   5.085   4.181  15.286 -0.8419  0.4681  0.8255
11909TIP3   OH257217   4.645   3.701  11.919  0.2073 -0.6902 -0.4511
11909TIP3    H157218   4.708   3.772  11.932 -0.7073 -0.1382  1.2351
11909TIP3    H257219   4.588   3.732  11.848  0.3887 -0.1635 -0.3723
11910TIP3   OH257220   3.775   2.847   4.267 -0.0250 -0.4313  0.7074
11910TIP3    H157221   3.742   2.906   4.199  0.4603 -3.7492 -2.7681
11910TIP3    H257222   3.697   2.812   4.309 -0.8996 -2.7394 -2.4389
11911TIP3   OH257223   6.448   3.347  15.919 -0.1215  0.0732 -0.1073
11911TIP3    H157224   6.454   3.443  15.919 -1.0889  0.1674  1.6215
11911TIP3    H257225   6.356   3.329  15.900  0.0689 -0.5193 -0.4705
11912TIP3   OH257226   1.541   4.831  16.439  0.4460  0.3045 -0.3337
11912TIP3    H157227   1.599   4.781  16.497  1.8554  0.8424 -1.2407
11912TIP3    H257228   1.484   4.765  16.401 -0.5653 -0.0599  1.6702
11913TIP3   OH257229   1.672   6.040   3.552 -0.0912  0.0557 -0.0631
11913TIP3    H157230   1.723   6.113   3.519 -1.4227  1.3175  0.5573
11913TIP3    H257231   1.700   5.965   3.499  2.4044  0.6417  0.2875
11914TIP3   OH257232   3.454   0.877   2.991  0.4395 -0.8425 -0.0964
11914TIP3    H157233   3.538   0.839   3.014  1.2989  1.0777  0.1185
11914TIP3    H257234   3.459   0.891   2.896  1.1187  0.9308  0.1731
11915TIP3   OH257235   1.152   3.884   2.078  0.2166  0.6268 -0.1564
11915TIP3    H157236   1.142   3.844   2.164 -0.3367  1.5449  0.2203
11915TIP3    H257237   1.208   3.824   2.030  0.8894  0.3170  0.9857
11916TIP3   OH257238   1.477   1.452   4.698 -0.0278 -0.3144  0.0608
11916TIP3    H157239   1.382   1.451   4.690 -0.0511 -0.6069  0.3605
11916TIP3    H257240   1.509   1.464   4.609 -0.3496 -0.0005 -0.0141
11917TIP3   OH257241   6.505   2.695  13.235  0.1729 -0.5590 -0.0528
11917TIP3    H157242   6.560   2.700  13.156 -0.2323 -1.7194 -0.4323
11917TIP3    H257243   6.479   2.786  13.252  0.3484 -0.2763 -1.2025
11918TIP3   OH257244   0.086   1.083  14.178 -0.7447 -0.5659  0.4150
11918TIP3    H157245   0.031   1.151  14.216 -0.5213  0.7259 -1.4359
11918TIP3    H257246   0.086   1.102  14.084  0.1124 -2.5685 -0.0363
11919TIP3   OH257247   3.700   5.948  12.158 -0.1594  0.1095 -0.0040
11919TIP3    H157248   3.781   5.896  12.158  0.6259  1.0893  3.5460
11919TIP3    H257249   3.630   5.884  12.163  0.6521 -0.7181  1.4190
11920TIP3   OH257250   3.896   1.194  12.548  0.2225 -0.4369 -0.5335
11920TIP3    H157251   3.988   1.217  12.565  0.2477  0.0939 -1.3468
11920TIP3    H257252   3.883   1.215  12.456 -0.0664 -2.7527 -1.0720
11921TIP3   OH257253   0.683   6.772  11.059  0.2596 -0.0934 -0.2086
11921TIP3    H157254   0.675   6.682  11.028  2.8497 -0.8967  1.1591
11921TIP3    H257255   0.735   6.816  10.992  0.6665 -0.1815  0.0419
11922TIP3   OH257256   2.227   2.916   0.453 -0.1300  0.4210 -0.0161
11922TIP3    H157257   2.187   2.887   0.370 -1.1381 -0.0413  0.6129
11922TIP3    H257258   2.220   2.840   0.511  1.2624  0.4918  0.2687
11923TIP3   OH257259   5.000   6.025   4.028 -1.0647 -0.1489 -0.0245
11923TIP3    H157260   5.089   5.996   4.007 -0.7857  0.0528  0.8438
11923TIP3    H257261   4.949   5.944   4.032 -0.9891 -0.2435 -0.8080
11924TIP3   OH257262   5.339   3.838  10.161 -0.8163 -0.4882  0.2468
11924TIP3    H157263   5.382   3.761  10.125 -2.6160 -0.9459 -1.1388
11924TIP3    H257264   5.248   3.810  10.173 -1.3090  1.1557  0.5498
11925TIP3   OH257265   4.350   3.917  13.818  0.1188  0.2015  0.6484
11925TIP3    H157266   4.303   3.970  13.883 -0.6816 -0.5749  0.7171
11925TIP3    H257267   4.282   3.885  13.759  0.9415  1.8571 -1.3248
11926TIP3   OH257268   0.096   0.898   4.243 -0.3561  0.0897 -0.2712
11926TIP3    H157269   0.062   0.850   4.167 -1.1428  0.4644 -0.1679
11926TIP3    H257270   0.064   0.848   4.318 -1.0070  0.6455 -0.1659
11927TIP3   OH257271   6.381   2.377   0.790 -0.3781 -0.2128 -0.5164
11927TIP3    H157272   6.303   2.412   0.834 -1.0990 -0.5616 -1.4949
11927TIP3    H257273   6.354   2.365   0.699  0.0768 -2.5710 -0.3937
11928TIP3   OH257274   4.502   1.365   3.107 -0.3417 -0.6257 -0.3006
11928TIP3    H157275   4.436   1.335   3.044 -1.9382  0.9357  0.5370
11928TIP3    H257276   4.502   1.298   3.176 -2.2731  0.1125  0.4765
11929TIP3   OH257277   6.498   0.361  12.897  0.1025  0.1497  0.0410
11929TIP3    H157278   6.443   0.297  12.852  1.7140 -1.3886  0.1481
11929TIP3    H257279   6.546   0.310  12.963  0.9686  1.5833  0.5775
11930TIP3   OH257280   4.590   2.209  15.847  0.0752 -0.3020 -0.7240
11930TIP3    H157281   4.639   2.261  15.783 -1.4545  1.8607 -0.2296
11930TIP3    H257282   4.656   2.152  15.886  1.8730  1.3019 -1.2540
11931TIP3   OH257283   5.233   4.681   3.371 -0.0647 -0.5480  0.0435
11931TIP3    H157284   5.146   4.654   3.343 -0.1689  0.4879 -0.6834
11931TIP3    H257285   5.272   4.602   3.408 -0.7020 -1.4366 -1.1235
11932TIP3   OH257286   1.458   1.020  15.166 -0.1593 -0.4178 -0.4975
11932TIP3    H157287   1.473   0.998  15.074 -0.4481 -0.9794 -0.4141
11932TIP3    H257288   1.393   1.091  15.163  2.6963  2.4247 -0.8816
11933TIP3   OH257289   5.684   6.826  12.738 -0.1831  0.0508  0.1605
11933TIP3    H157290   5.620   6.875  12.790  0.8706  0.6671  0.9151
11933TIP3    H257291   5.671   6.735  12.763  0.8252  0.3995  2.1704
11934TIP3   OH257292   0.404   4.483  12.773 -0.2479 -0.0191  0.5740
11934TIP3    H157293   0.457   4.405  12.757 -0.2036  0.1538 -0.1273
11934TIP3    H257294   0.448   4.526  12.847 -0.6336 -0.9753  1.3869
11935TIP3   OH257295   3.840   0.746   3.229 -0.5122  0.6165  0.4297
11935TIP3    H157296   3.796   0.830   3.239  0.9137  1.1811  2.6192
11935TIP3    H257297   3.912   0.749   3.292  1.2801 -1.1427 -1.3730
11936TIP3   OH257298   4.399   4.613   3.402 -0.2326  0.8329 -0.4247
11936TIP3    H157299   4.381   4.683   3.465 -0.3954  0.8353 -0.4745
11936TIP3    H257300   4.451   4.549   3.452 -1.1890  0.3631 -0.0047
11937TIP3   OH257301   0.655   1.020  11.691  0.3347  0.2973  0.0708
11937TIP3    H157302   0.620   0.944  11.643  1.8636  0.0992 -0.8079
11937TIP3    H257303   0.578   1.071  11.715 -0.5822 -0.2949 -1.4652
11938TIP3   OH257304   5.035   3.191   4.579 -0.5564 -0.0855 -0.5336
11938TIP3    H157305   4.958   3.180   4.524 -1.3417  0.7611  0.3483
11938TIP3    H257306   5.000   3.191   4.669  0.6393 -1.0505 -0.0480
11939TIP3   OH257307   5.397   0.986   2.979 -0.0098  0.5922  0.1776
11939TIP3    H157308   5.464   0.973   3.046 -1.8512 -0.0983  1.9862
11939TIP3    H257309   5.440   1.041   2.913  1.6364  2.1126  2.3453
11940TIP3   OH257310   5.289   3.655  13.896 -0.1308 -0.0221 -0.0334
11940TIP3    H157311   5.375   3.685  13.866 -0.1047  0.6205  0.6681
11940TIP3    H257312   5.282   3.565  13.863  0.6850  0.0228 -0.3410
11941TIP3   OH257313   1.169   2.186  13.534  0.3849 -0.2225  0.2016
11941TIP3    H157314   1.216   2.211  13.455  2.2290 -0.9952  0.9758
11941TIP3    H257315   1.232   2.132  13.583  0.0241  1.7134  3.0440
11942TIP3   OH257316   6.233   6.437  16.076  0.9827 -0.5905 -0.4261
11942TIP3    H157317   6.167   6.400  16.134 -0.3696  2.6499  0.3555
11942TIP3    H257318   6.200   6.419  15.988  0.0916 -0.7932 -0.0640
11943TIP3   OH257319   6.138   4.428  14.089  0.1231  0.0880  0.7080
11943TIP3    H157320   6.175   4.400  14.005  3.4926  1.3857  1.5881
11943TIP3    H257321   6.099   4.349  14.125 -0.0973 -0.8440 -1.4163
11944TIP3   OH257322   2.272   1.428  11.705 -0.3320  0.0954  0.1259
11944TIP3    H157323   2.266   1.407  11.612 -2.7049  0.2281  0.2049
11944TIP3    H257324   2.217   1.362  11.748  2.1087 -1.0784  1.6710
11945TIP3   OH257325   1.259   1.147  10.618 -0.0833  0.2437 -0.1161
11945TIP3    H157326   1.312   1.114  10.545  0.4817 -1.4736  1.0131
11945TIP3    H257327   1.201   1.211  10.578  0.9732  0.1715 -1.8768
11946TIP3   OH257328   2.551   5.881   0.747  0.6222  0.5308 -0.0369
11946TIP3    H157329   2.520   5.955   0.695  3.2246  0.5942 -1.7013
11946TIP3    H257330   2.543   5.805   0.688 -0.4834 -0.2317  1.0666
11947TIP3   OH257331   2.926   3.584   4.832 -0.0334  0.1555 -0.2658
11947TIP3    H157332   2.978   3.577   4.912 -1.9285 -0.1275  1.0069
11947TIP3    H257333   2.946   3.504   4.784 -0.9098 -1.0411  1.2619
11948TIP3   OH257334   2.866   5.750   0.554  0.8766  0.0197  0.4694
11948TIP3    H157335   2.818   5.833   0.555  2.0227  0.7544  2.6287
11948TIP3    H257336   2.958   5.775   0.562  1.3953 -1.4409 -0.4790
11949TIP3   OH257337   4.843   0.319  16.021  0.6535  0.1043  0.0475
11949TIP3    H157338   4.802   0.390  15.971  0.1654  0.5408  1.0390
11949TIP3    H257339   4.771   0.262  16.046  0.7689  0.3326  0.9427
11950TIP3   OH257340   0.976   4.370   2.256 -0.9508 -0.4188  0.7943
11950TIP3    H157341   0.899   4.401   2.209 -1.6561 -0.6243  1.7793
11950TIP3    H257342   0.985   4.279   2.229 -0.6736 -0.2158  0.1964
11951TIP3   OH257343   2.993   0.279  12.244 -0.1510  0.1912  0.1933
11951TIP3    H157344   2.964   0.204  12.296  0.2617  0.2783  0.5536
11951TIP3    H257345   2.997   0.351  12.307 -0.4595  0.5014 -0.1309
11952TIP3   OH257346   4.612   6.310  14.117 -0.1887 -0.6909 -0.0364
11952TIP3    H157347   4.684   6.330  14.056  0.9495  1.3654  1.8534
11952TIP3    H257348   4.654   6.307  14.203 -2.2657 -0.2368  1.0463
11953TIP3   OH257349   6.203   4.554  10.519 -0.0054 -0.2916 -0.2637
11953TIP3    H157350   6.180   4.558  10.426  1.0366 -2.0986 -0.6511
11953TIP3    H257351   6.221   4.461  10.535 -2.7912 -0.5352  2.4145
11954TIP3   OH257352   3.688   1.846  11.078 -0.1909  0.6270 -0.0747
11954TIP3    H157353   3.604   1.860  11.035 -0.3629  0.0220  0.0529
11954TIP3    H257354   3.733   1.930  11.070 -0.1762  0.5058 -1.5208
11955TIP3   OH257355   6.527   6.502  13.964 -0.9507 -0.6456 -0.0733
11955TIP3    H157356   6.507   6.416  13.927 -1.7597 -0.7145  0.4964
11955TIP3    H257357   6.479   6.563  13.907 -0.6789 -0.5931 -0.2514
11956TIP3   OH257358   0.152   1.742  16.093  0.1670 -0.3455 -0.2049
11956TIP3    H157359   0.242   1.739  16.126 -0.8865  0.6864  3.0919
11956TIP3    H257360   0.128   1.834  16.098 -0.4860 -0.2382 -3.1683
11957TIP3   OH257361   1.036   2.123  15.460  0.5392 -0.9406  0.3819
11957TIP3    H157362   0.996   2.038  15.443 -1.6343  0.0050  0.4938
11957TIP3    H257363   1.058   2.121  15.554 -0.5517 -0.9717  0.6437
11958TIP3   OH257364   1.991   2.134  17.024 -0.4231  0.7375  0.1138
11958TIP3    H157365   1.989   2.186  16.944 -1.5254  2.0108  0.9168
11958TIP3    H257366   1.898   2.116  17.043 -0.0889 -2.6995 -0.8181
11959TIP3   OH257367   4.818   4.855  11.227 -0.8115  0.4175 -0.3726
11959TIP3    H157368   4.761   4.897  11.291 -1.3758 -1.6240  0.5170
11959TIP3    H257369   4.904   4.854  11.270 -1.1778 -0.9030  0.3807
11960TIP3   OH257370   2.490   0.967   5.815  0.0064  0.0402 -0.3682
11960TIP3    H157371   2.503   0.872   5.810  0.5861  0.1337 -0.7601
11960TIP3    H257372   2.399   0.980   5.790 -0.9508 -0.6340  2.4191
11961TIP3   OH257373   1.655   3.584  13.307 -0.4456  0.0087  0.2065
11961TIP3    H157374   1.617   3.671  13.319 -0.8336 -0.2194  0.6325
11961TIP3    H257375   1.620   3.554  13.223 -1.8786 -0.5367  0.9720
11962TIP3   OH257376   0.181   3.995   4.909 -0.5175  0.1448  0.4763
11962TIP3    H157377   0.230   4.076   4.920  0.5080 -0.5521  1.1492
11962TIP3    H257378   0.243   3.934   4.871 -0.9802 -0.6363  0.9491
11963TIP3   OH257379   1.311   6.495  16.895 -0.1457  0.3315 -0.2744
11963TIP3    H157380   1.384   6.550  16.924 -0.3380  0.7078 -0.4871
11963TIP3    H257381   1.258   6.553  16.841 -2.4464  1.1063  2.5460
11964TIP3   OH257382   6.743   0.023  12.425  0.0418 -0.2570 -0.3919
11964TIP3    H157383   6.757  -0.071  12.419 -1.4180 -0.4116 -2.0683
11964TIP3    H257384   6.828   0.062  12.407  0.5917 -1.2357  0.0418
11965TIP3   OH257385   1.393   5.327   3.708 -0.3994 -0.4511  0.1213
11965TIP3    H157386   1.385   5.379   3.788  1.5001  1.0383 -0.5883
11965TIP3    H257387   1.305   5.290   3.695 -1.6821  2.0304  1.0648
11966TIP3   OH257388   2.038   3.683  16.620  0.0848  0.0504  0.4922
11966TIP3    H157389   2.023   3.768  16.662 -0.2212  1.5493 -2.3760
11966TIP3    H257390   1.971   3.626  16.658  0.6149  0.8878  2.8602
11967TIP3   OH257391   3.194   3.878   4.301 -0.3447 -0.1465  0.2717
11967TIP3    H157392   3.200   3.958   4.249 -0.4247 -0.6211 -0.4906
11967TIP3    H257393   3.131   3.824   4.253  0.6474 -1.1655  0.0869
11968TIP3   OH257394   6.189   0.437   3.953 -0.0329 -0.1877  0.1716
11968TIP3    H157395   6.161   0.360   4.003  1.2527  0.6453  2.2947
11968TIP3    H257396   6.195   0.406   3.863 -3.6324 -1.4658  0.1801
11969TIP3   OH257397   4.880   0.757   1.784  0.4655 -0.1640  0.2007
11969TIP3    H157398   4.855   0.665   1.773  2.4978 -0.8912  1.1573
11969TIP3    H257399   4.951   0.770   1.722  1.2406  0.3005  1.1686
11970TIP3   OH257400   0.849   1.523  10.640 -0.3796  0.3896  0.1846
11970TIP3    H157401   0.802   1.585  10.584 -0.7717  0.1566  0.2464
11970TIP3    H257402   0.780   1.471  10.680 -0.0657  0.0695  0.3149
11971TIP3   OH257403   2.305   0.533   2.376 -0.0613 -0.2195 -0.0464
11971TIP3    H157404   2.215   0.563   2.360 -0.0504 -0.2814 -0.2206
11971TIP3    H257405   2.295   0.449   2.420 -0.0926  0.0032  0.3822
11972TIP3   OH257406   2.058   6.778  13.893 -0.2219 -0.7057 -0.5640
11972TIP3    H157407   1.997   6.851  13.882  0.9911  0.6306  0.9320
11972TIP3    H257408   2.101   6.769  13.807 -1.4357 -0.6775 -1.1891
11973TIP3   OH257409   1.682   1.204  14.536  0.0181 -0.3346 -0.3115
11973TIP3    H157410   1.734   1.246  14.468 -0.0898  1.7285  0.8158
11973TIP3    H257411   1.746   1.165  14.596  0.2768  1.0898  0.3782
11974TIP3   OH257412   1.013   1.361  15.700 -0.1309 -0.4672 -0.2193
11974TIP3    H157413   0.987   1.445  15.660  2.4771  0.2842 -0.5303
11974TIP3    H257414   0.931   1.313  15.710 -1.6074  1.7518 -0.8915
11975TIP3   OH257415   6.526   4.864   0.663 -0.5924  0.2859  0.2272
11975TIP3    H157416   6.570   4.866   0.748  0.5712  1.5037 -0.3698
11975TIP3    H257417   6.433   4.874   0.684 -0.2654  1.2368  1.3317
11976TIP3   OH257418   2.405   3.383   1.713  0.4413  0.3294 -0.4194
11976TIP3    H157419   2.353   3.348   1.641  0.5670 -0.5191 -0.1064
11976TIP3    H257420   2.366   3.346   1.792  0.8481  0.5497 -0.1105
11977TIP3   OH257421   6.432   3.039  15.801 -0.0589  0.2803  0.0279
11977TIP3    H157422   6.451   3.133  15.809 -1.0053  0.8756 -3.3303
11977TIP3    H257423   6.392   3.030  15.715  0.4104 -3.3079  0.0502
11978TIP3   OH257424   4.232   5.057   2.069 -0.1649  0.1218 -0.6149
11978TIP3    H157425   4.182   5.000   2.010  2.4651  1.3659 -4.3433
11978TIP3    H257426   4.201   5.145   2.049  0.3662  0.5496  0.3697
11979TIP3   OH257427   3.162   0.916   3.385  0.6011 -0.1394  0.0559
11979TIP3    H157428   3.238   0.967   3.357  0.6358 -0.3976 -0.3211
11979TIP3    H257429   3.109   0.906   3.306  0.6355 -0.7572  0.1020
11980TIP3   OH257430   0.854   0.146  14.048 -0.1067 -0.3560  0.2367
11980TIP3    H157431   0.937   0.188  14.026 -0.4487  0.5698  0.6893
11980TIP3    H257432   0.876   0.053  14.054  0.9467 -0.1041  0.5574
11981TIP3   OH257433   0.397   1.900  13.308  0.5041 -0.6768  0.2474
11981TIP3    H157434   0.330   1.859  13.254 -0.3160 -0.3900  1.0138
11981TIP3    H257435   0.439   1.827  13.354 -1.0541 -0.7032  1.7295
11982TIP3   OH257436   5.975   0.619  14.759  0.4432  0.6079 -0.8026
11982TIP3    H157437   5.881   0.625  14.778  0.3462  0.8583 -1.3172
11982TIP3    H257438   5.992   0.525  14.753  0.5068  0.5102  0.5763
11983TIP3   OH257439   6.391   1.078  12.722 -0.4573  0.4269  0.6333
11983TIP3    H157440   6.302   1.046  12.708 -1.2318  2.3919  0.8062
11983TIP3    H257441   6.438   1.055  12.642 -1.0021 -0.9128  0.6710
11984TIP3   OH257442   1.945   4.945  15.439 -0.3738  0.0195  0.0227
11984TIP3    H157443   1.880   4.874  15.434 -2.2060  1.6390 -0.3372
11984TIP3    H257444   2.000   4.921  15.513 -0.9761 -1.7357 -0.0381
11985TIP3   OH257445   1.208   4.739   3.442 -0.1013 -0.2833 -0.5044
11985TIP3    H157446   1.125   4.731   3.395 -0.1704 -1.4911 -0.2022
11985TIP3    H257447   1.202   4.675   3.513  0.3859  0.8519  0.5933
11986TIP3   OH257448   0.856   5.322   0.224  0.1385  0.1803  0.1253
11986TIP3    H157449   0.941   5.366   0.213 -0.2084  0.4495 -2.0552
11986TIP3    H257450   0.799   5.388   0.260  0.2355  0.8238 -0.8557
11987TIP3   OH257451   3.835   4.539   2.887 -0.2984  0.0406 -0.2124
11987TIP3    H157452   3.834   4.542   2.982 -0.4773  3.3304 -0.2065
11987TIP3    H257453   3.742   4.538   2.862 -0.3427 -3.8759 -0.4856
11988TIP3   OH257454   6.695   0.636  16.535  0.1207  0.0411 -0.2720
11988TIP3    H157455   6.655   0.559  16.576  1.7865  0.0287  1.5015
11988TIP3    H257456   6.786   0.633  16.563  0.2879  2.5572 -0.2839
11989TIP3   OH257457   4.143   0.538   2.576  0.3661 -0.2389  0.4971
11989TIP3    H157458   4.154   0.618   2.525 -0.7934 -0.8412 -0.7748
11989TIP3    H257459   4.162   0.563   2.666 -0.1311  1.5047  0.1474
11990TIP3   OH257460   0.342   3.055   0.791 -0.4816 -0.1695  0.6256
11990TIP3    H157461   0.291   3.035   0.713  1.2787  0.9698 -0.9221
11990TIP3    H257462   0.376   2.971   0.821  0.0820 -0.4698 -0.7951
11991TIP3   OH257463   4.544   4.520  15.118  0.0864  0.0266 -0.1514
11991TIP3    H157464   4.584   4.433  15.129 -0.7074 -0.3692 -0.2976
11991TIP3    H257465   4.573   4.549  15.032  2.7568  1.2243  1.0291
11992TIP3   OH257466   4.959   2.111  15.467  0.5237  0.4250  0.0540
11992TIP3    H157467   4.893   2.175  15.441 -1.2783 -0.7394  1.4462
11992TIP3    H257468   4.998   2.147  15.546  1.6919  1.1569 -0.8202
11993TIP3   OH257469   1.702   2.803   2.767  0.1952  0.1031  0.1073
11993TIP3    H157470   1.747   2.830   2.687 -3.2172  2.6431 -1.2250
11993TIP3    H257471   1.615   2.777   2.737 -0.5659 -0.8228  2.8636
11994TIP3   OH257472   2.195   2.054   3.623  0.5302 -0.0288  0.3015
11994TIP3    H157473   2.143   1.983   3.586  1.0297 -0.3332  0.1629
11994TIP3    H257474   2.163   2.064   3.712 -1.1996  1.2112 -0.4114
11995TIP3   OH257475   2.768   1.318  15.720 -0.1744 -0.7285 -0.2540
11995TIP3    H157476   2.854   1.279  15.700 -0.1345  0.1695 -1.9587
11995TIP3    H257477   2.789   1.396  15.771 -0.1887 -2.1446  2.0485
11996TIP3   OH257478   4.964   3.118   4.069 -0.4123  0.3259 -0.7811
11996TIP3    H157479   5.041   3.097   4.016  0.2562 -1.8404  0.9087
11996TIP3    H257480   4.969   3.213   4.082  1.8878  0.2775 -0.8811
11997TIP3   OH257481   3.130   6.289  14.073 -0.3951  0.3587 -0.0418
11997TIP3    H157482   3.180   6.292  14.155 -1.1427  1.5586  0.3978
11997TIP3    H257483   3.100   6.379  14.060 -0.9685  0.0175 -1.2172
11998TIP3   OH257484   3.423   3.482  16.828 -0.0425 -0.3050 -0.2862
11998TIP3    H157485   3.353   3.469  16.891 -0.9826 -0.7902 -1.3928
11998TIP3    H257486   3.413   3.410  16.766  0.1339  0.7843 -1.6266
11999TIP3   OH257487   1.532   0.781   5.995 -0.0635 -0.6058 -0.5862
11999TIP3    H157488   1.444   0.745   6.004 -0.7055  1.2355  0.9598
11999TIP3    H257489   1.583   0.736   6.062 -0.4781  0.1820  0.2739
12000TIP3   OH257490   5.674   0.528  13.335 -0.0918 -0.1879  0.0628
12000TIP3    H157491   5.593   0.486  13.308 -1.5449  2.3695  0.0817
12000TIP3    H257492   5.712   0.560  13.253  0.8920 -1.2905  0.0634
12001TIP3   OH257493   1.459   3.714  14.926  0.4059 -0.0848  0.5504
12001TIP3    H157494   1.503   3.661  14.993 -0.3321 -1.1173  0.2439
12001TIP3    H257495   1.464   3.661  14.847 -1.7427 -0.4471  0.6093
12002TIP3   OH257496   4.961   5.106  11.995  0.1225 -0.4316  0.5733
12002TIP3    H157497   5.053   5.083  11.994  0.1602 -0.2726  0.4013
12002TIP3    H257498   4.942   5.125  12.088  0.0499 -1.3076  0.7397
12003TIP3   OH257499   5.526   3.583   4.489  0.4294  0.4948 -0.3581
12003TIP3    H157500   5.514   3.501   4.538  0.1987  1.2161  0.8333
12003TIP3    H257501   5.450   3.636   4.514  1.4416  1.7058  0.2279
12004TIP3   OH257502   4.895   2.462   3.499 -0.2179  0.3367  0.1519
12004TIP3    H157503   4.893   2.507   3.415  0.6213  0.4526  0.1855
12004TIP3    H257504   4.988   2.447   3.516 -0.3959  0.0710  0.9317
12005TIP3   OH257505   0.341   3.428  12.572  0.1541  0.5422 -0.4548
12005TIP3    H157506   0.259   3.382  12.590 -0.1599  1.6058  1.0860
12005TIP3    H257507   0.403   3.393  12.635  0.3319  1.1268 -0.2970
12006TIP3   OH257508   2.653   0.450   2.759 -0.1300  0.3157  0.0830
12006TIP3    H157509   2.660   0.503   2.838 -0.7452  0.1190  0.2709
12006TIP3    H257510   2.574   0.483   2.715 -1.0484 -1.0557  0.6646
12007TIP3   OH257511   5.611   5.811   3.992 -0.1239 -0.3309 -0.5210
12007TIP3    H157512   5.671   5.762   3.937 -0.1025  0.2845 -1.0631
12007TIP3    H257513   5.616   5.769   4.077  0.1920 -1.0098 -0.8656
12008TIP3   OH257514   1.635   0.732   0.948 -0.1758  0.4786  0.3638
12008TIP3    H157515   1.581   0.671   0.897  0.1034 -0.6941  1.4350
12008TIP3    H257516   1.591   0.816   0.938 -1.3739 -0.1613 -0.0002
12009TIP3   OH257517   4.722   1.092  13.740  0.3949  0.3541  0.0416
12009TIP3    H157518   4.766   1.015  13.702 -0.0123  0.5123 -0.7552
12009TIP3    H257519   4.640   1.057  13.775  1.0372  0.0936  1.3660
12010TIP3   OH257520   1.663   3.251   4.339  0.1483 -0.6176  1.0339
12010TIP3    H157521   1.630   3.253   4.428 -0.8112  1.9367  0.6823
12010TIP3    H257522   1.754   3.280   4.347 -0.0050 -0.1691  1.1533
12011TIP3   OH257523   0.720   6.294   4.283  0.0110  0.3896  0.4189
12011TIP3    H157524   0.636   6.292   4.330 -0.6580 -1.6801 -0.7367
12011TIP3    H257525   0.744   6.386   4.281 -1.6282  0.9009  1.8347
12012TIP3   OH257526   3.739   5.545   1.086 -0.5473 -0.3556 -0.0815
12012TIP3    H157527   3.817   5.547   1.141 -0.4793 -2.3259 -0.0249
12012TIP3    H257528   3.689   5.622   1.111  2.6967  2.7356 -2.1790
12013TIP3   OH257529   0.885   3.636  12.181  0.2920 -0.0179  0.0229
12013TIP3    H157530   0.863   3.669  12.268  1.4338  1.2052 -0.1199
12013TIP3    H257531   0.834   3.690  12.121 -1.4666 -1.6776 -0.0735
12014TIP3   OH257532   4.882   2.255   0.317 -0.3177  0.3142 -0.3516
12014TIP3    H157533   4.926   2.180   0.356 -1.2852 -0.7318 -1.1691
12014TIP3    H257534   4.953   2.313   0.290  0.5486 -0.9634 -0.9624
12015TIP3   OH257535   3.930   1.947  13.091 -0.6985  0.3290 -0.4229
12015TIP3    H157536   3.976   2.002  13.027  2.6967 -0.8071  0.8330
12015TIP3    H257537   3.923   1.862  13.049  0.6404 -0.1557  0.3072
12016TIP3   OH257538   0.007   2.277   5.827  0.5314 -0.5361  0.0161
12016TIP3    H157539  -0.011   2.222   5.903 -0.9397 -1.6336 -1.0641
12016TIP3    H257540  -0.061   2.345   5.830  1.7032  0.6609  0.7592
12017TIP3   OH257541   0.705   5.379   5.132  0.0448 -0.1233 -0.1681
12017TIP3    H157542   0.616   5.349   5.152  0.5915 -0.3984  2.1371
12017TIP3    H257543   0.698   5.474   5.125 -0.7629 -0.2817 -2.2000
12018TIP3   OH257544   5.799   2.228   3.674  0.4281 -0.2453 -0.2602
12018TIP3    H157545   5.883   2.266   3.698  0.5259  0.1979 -1.2479
12018TIP3    H257546   5.808   2.207   3.581 -0.7260  0.3216 -0.5193
12019TIP3   OH257547   6.394   3.915  15.173 -0.4306  0.0428 -0.3087
12019TIP3    H157548   6.314   3.966  15.183 -1.1741 -0.7700 -1.6555
12019TIP3    H257549   6.399   3.899  15.078  1.3948  0.1715 -0.2530
12020TIP3   OH257550   1.672   5.951  15.739  0.3039  0.5053 -0.3483
12020TIP3    H157551   1.620   6.028  15.716 -1.0638 -0.6819 -1.4238
12020TIP3    H257552   1.693   5.962  15.831 -0.2171  1.9445 -0.3799
12021TIP3   OH257553   6.347   2.599  11.876  0.4786 -0.4448  0.5135
12021TIP3    H157554   6.387   2.679  11.911  1.3587 -0.6639  0.0272
12021TIP3    H257555   6.319   2.623  11.788  1.5206 -0.8869  0.0369
12022TIP3   OH257556   4.659   2.438   4.582  0.4779 -0.1281 -0.2153
12022TIP3    H157557   4.741   2.452   4.536  0.7948  0.9891  0.6543
12022TIP3    H257558   4.653   2.342   4.592  0.6233 -0.3706 -2.1160
12023TIP3   OH257559   3.533   2.067   3.849  0.0661 -0.7240  0.3983
12023TIP3    H157560   3.574   2.022   3.775  1.2994 -0.0174  0.6338
12023TIP3    H257561   3.463   2.007   3.877  0.0640 -1.3440 -0.8482
12024TIP3   OH257562   4.205   1.469  16.223  0.2809 -0.1591 -0.0558
12024TIP3    H157563   4.211   1.391  16.168 -0.5123 -0.9594  0.9511
12024TIP3    H257564   4.114   1.470  16.253  0.7459  0.0929  1.4436
12025TIP3   OH257565   2.883   6.727   5.469  0.0159  0.4142 -0.7136
12025TIP3    H157566   2.796   6.719   5.430  0.1989 -0.1196 -1.0307
12025TIP3    H257567   2.888   6.818   5.499 -1.7956 -0.2593  2.0390
12026TIP3   OH257568   3.194   4.296   5.881  0.2022 -0.0289 -0.1903
12026TIP3    H157569   3.256   4.367   5.896  0.8321 -0.7562  0.6941
12026TIP3    H257570   3.172   4.303   5.788  0.5010  1.1160 -0.1887
12027TIP3   OH257571   5.157   5.978   1.985 -0.0177  0.8819 -0.0992
12027TIP3    H157572   5.216   5.967   1.910  1.2531 -0.9884  1.0908
12027TIP3    H257573   5.202   6.042   2.041 -0.6125  1.7258 -0.5670
12028TIP3   OH257574   2.511   3.528  13.144 -0.6241 -0.3849 -0.3717
12028TIP3    H157575   2.579   3.463  13.160 -1.8274 -1.6976 -0.2788
12028TIP3    H257576   2.534   3.567  13.060  0.0657 -1.0396 -0.4964
12029TIP3   OH257577   1.507   3.971  15.921  0.4933  0.8457  0.2392
12029TIP3    H157578   1.485   3.906  15.854 -1.0562 -0.1415  1.6103
12029TIP3    H257579   1.547   3.919  15.991  0.5676  1.5910  0.7578
12030TIP3   OH257580   1.373   4.827   4.872  0.1818  0.2255  0.5053
12030TIP3    H157581   1.291   4.870   4.899 -0.3552 -0.8606  0.6648
12030TIP3    H257582   1.419   4.809   4.954 -0.1660 -0.5901  0.5292
12031TIP3   OH257583   6.692   3.321   4.613 -0.4591  0.8232  0.3665
12031TIP3    H157584   6.777   3.365   4.606 -0.4904  0.9050  0.4890
12031TIP3    H257585   6.680   3.278   4.528 -0.1326  0.5131  0.4795
12032TIP3   OH257586   1.310   6.559   5.897  0.0355  0.1624 -0.0573
12032TIP3    H157587   1.270   6.482   5.856  0.5361 -1.1325  1.7401
12032TIP3    H257588   1.236   6.617   5.916 -0.4973 -0.4141 -0.3317
12033TIP3   OH257589   3.925   4.358  10.459  0.8294  0.0743 -0.0243
12033TIP3    H157590   3.957   4.335  10.372 -1.3133 -0.0958 -0.8237
12033TIP3    H257591   3.881   4.442  10.448  0.0166 -0.2324  0.7525
12034TIP3   OH257592   1.735   0.292  11.942  0.2514 -0.0178 -0.3381
12034TIP3    H157593   1.701   0.203  11.943 -1.7900  0.7125 -0.0958
12034TIP3    H257594   1.736   0.316  11.850  2.7957 -0.9238 -0.6436
12035TIP3   OH257595   5.375   2.585   1.844  0.1762  0.1280 -0.3597
12035TIP3    H157596   5.299   2.617   1.892  0.6364  1.3302 -0.4154
12035TIP3    H257597   5.338   2.528   1.777 -0.4945 -1.4244  1.2360
12036TIP3   OH257598   5.065   0.226  13.384  0.2947  0.1326 -0.7912
12036TIP3    H157599   4.973   0.215  13.357 -0.0904 -2.4711  1.1000
12036TIP3    H257600   5.106   0.142  13.361  1.4965  0.2629  0.7501
12037TIP3   OH257601   0.886   6.413  10.400  0.8105 -0.4725  0.3977
12037TIP3    H157602   0.794   6.435  10.389  0.9392  0.0723  0.3780
12037TIP3    H257603   0.898   6.332  10.350  0.4555 -0.2744 -0.0148
12038TIP3   OH257604   6.761   1.917  14.476  0.3693 -0.2861  0.0826
12038TIP3    H157605   6.670   1.923  14.503  0.5986  2.7439  0.5775
12038TIP3    H257606   6.764   1.960  14.390  1.4522  0.5665  0.5164
12039TIP3   OH257607   1.347   6.773  10.953  0.6129 -0.2453 -0.0457
12039TIP3    H157608   1.284   6.821  11.006  0.0072 -0.6750 -0.3604
12039TIP3    H257609   1.428   6.775  11.004  0.4079  0.4940  0.2651
12040TIP3   OH257610   0.028   6.514  16.992  0.1813 -0.8179 -0.4259
12040TIP3    H157611  -0.035   6.450  16.958  0.1258 -0.4468 -1.0303
12040TIP3    H257612  -0.025   6.587  17.021  0.2879 -0.7844 -0.3150
12041TIP3   OH257613   2.099   5.213   4.202 -0.2123  0.3855 -0.5949
12041TIP3    H157614   2.112   5.241   4.292  3.4491 -0.4375 -0.7148
12041TIP3    H257615   2.159   5.268   4.151  0.4134 -1.4815 -1.9943
12042TIP3   OH257616   4.954   5.547   1.714  0.6352 -0.4319 -0.2586
12042TIP3    H157617   4.919   5.636   1.723 -0.0522 -0.7303  0.0836
12042TIP3    H257618   4.961   5.515   1.803 -0.6252 -1.2801 -0.4242
12043TIP3   OH257619   6.679   3.069   2.181 -0.3393 -0.0047 -0.1145
12043TIP3    H157620   6.622   3.103   2.113 -0.1086  0.5382 -0.0376
12043TIP3    H257621   6.656   2.976   2.187 -0.5131 -0.0066 -0.7748
12044TIP3   OH257622   5.802   2.296  15.707  0.2627 -0.6418 -0.0274
12044TIP3    H157623   5.715   2.330  15.728  0.1742 -0.1321 -1.1667
12044TIP3    H257624   5.813   2.220  15.765 -1.2632 -1.1956 -0.4273
12045TIP3   OH257625   1.402   1.805   5.615 -0.7139  0.1630 -0.0144
12045TIP3    H157626   1.317   1.764   5.601 -1.3209  1.4396 -0.2010
12045TIP3    H257627   1.382   1.891   5.652  0.3292  1.5129 -2.3421
12046TIP3   OH257628   1.383   5.233   4.735  0.2687  0.1224  0.4805
12046TIP3    H157629   1.455   5.171   4.719 -0.4477 -0.8046  0.7823
12046TIP3    H257630   1.382   5.245   4.830  0.1707  0.3142  0.4551
12047TIP3   OH257631   2.072   3.525  16.044 -0.1574 -0.5103  0.2858
12047TIP3    H157632   2.135   3.595  16.064 -2.4549  1.3625  1.4941
12047TIP3    H257633   2.053   3.537  15.951 -1.0076  1.0071  0.6066
12048TIP3   OH257634   0.314   2.845  13.310  0.0484 -0.0586 -0.1206
12048TIP3    H157635   0.310   2.879  13.220 -0.3253  1.4372  0.4350
12048TIP3    H257636   0.373   2.770  13.305  0.1157  0.0685 -1.5935
12049TIP3   OH257637   6.057   2.427   1.431 -0.3542  0.5802 -0.2180
12049TIP3    H157638   6.094   2.368   1.366 -0.0555 -1.0577  1.3508
12049TIP3    H257639   6.120   2.426   1.503 -1.4720  0.9702  0.8037
12050TIP3   OH257640   5.190   1.507   1.099  0.0491  0.2737  0.0712
12050TIP3    H157641   5.271   1.555   1.114  1.4398 -1.6106 -0.9857
12050TIP3    H257642   5.202   1.464   1.014 -1.5250 -1.0965  0.4766
12051TIP3   OH257643   3.634   4.451  14.096  0.0937 -0.5967 -0.1353
12051TIP3    H157644   3.727   4.448  14.075  0.2359 -1.8102  0.5777
12051TIP3    H257645   3.591   4.464  14.011  0.9535  1.6210 -0.2959
12052TIP3   OH257646   5.502   2.415   6.093  0.4063 -0.6528  0.5273
12052TIP3    H157647   5.581   2.381   6.052 -0.2349  0.2058 -1.5189
12052TIP3    H257648   5.534   2.479   6.157  1.4039 -1.2216  0.6149
12053TIP3   OH257649   1.389   0.906   0.889  0.3165 -0.1463 -0.4843
12053TIP3    H157650   1.356   0.904   0.978 -0.9185  1.6142 -0.8536
12053TIP3    H257651   1.357   0.989   0.853  0.2331 -1.0922 -2.7662
12054TIP3   OH257652   0.101   4.816   5.376  0.3773  0.3537 -0.7445
12054TIP3    H157653   0.127   4.901   5.340  2.3739 -0.5882 -1.7327
12054TIP3    H257654   0.147   4.810   5.460  2.1023 -0.5880 -1.6870
12055TIP3   OH257655   3.276   5.488  16.577 -0.3779 -0.2102  0.5005
12055TIP3    H157656   3.220   5.555  16.617 -2.2651 -0.7311 -1.1301
12055TIP3    H257657   3.312   5.531  16.499 -1.3334 -0.9606 -0.3706
12056TIP3   OH257658   3.063   3.434   3.342 -0.0351 -0.9739  0.0564
12056TIP3    H157659   3.008   3.418   3.266 -0.7020  0.9678  0.0644
12056TIP3    H257660   3.003   3.429   3.416 -0.2147  0.9178  0.0879
12057TIP3   OH257661   0.019   3.447   4.986  0.0440 -0.6439 -0.5652
12057TIP3    H157662   0.056   3.465   5.072 -0.0933 -0.9990 -0.4300
12057TIP3    H257663   0.093   3.417   4.933  0.2977  0.3847 -0.8231
12058TIP3   OH257664   0.889   0.805  16.493  0.2313  0.1755  0.0248
12058TIP3    H157665   0.838   0.822  16.413  1.2945 -0.3949 -0.8140
12058TIP3    H257666   0.961   0.867  16.489 -1.4034  2.3985  2.2605
12059TIP3   OH257667   2.520   1.713   2.518  0.0694 -0.1403 -0.3763
12059TIP3    H157668   2.509   1.632   2.568 -0.9070  0.0193 -0.3101
12059TIP3    H257669   2.446   1.713   2.457  1.2603 -0.3549 -1.8842
12060TIP3   OH257670   4.763   2.825  16.483 -0.0847  0.2810  0.1929
12060TIP3    H157671   4.831   2.762  16.461 -0.4573 -0.0740  0.0571
12060TIP3    H257672   4.742   2.808  16.575  0.3467  0.7151  0.3808
12061TIP3   OH257673   4.269   6.558   0.617 -0.2572  0.6262  0.0221
12061TIP3    H157674   4.354   6.532   0.652 -0.6662  0.6061  1.0408
12061TIP3    H257675   4.218   6.477   0.617 -0.5859  0.8307  0.3647
12062TIP3   OH257676   3.289   0.809  11.513 -0.5725  0.2682 -0.1519
12062TIP3    H157677   3.236   0.843  11.586  1.4961  3.9382 -0.1296
12062TIP3    H257678   3.264   0.862  11.438 -0.2627 -1.1951 -1.3392
12063TIP3   OH257679   6.191   4.021  11.987 -0.8472  0.3188  0.3408
12063TIP3    H157680   6.268   4.068  12.018 -0.5467  0.7575 -1.0144
12063TIP3    H257681   6.225   3.962  11.919 -1.2680 -1.6099  1.7057
12064TIP3   OH257682   6.122   5.107  14.776  0.4554  0.1721 -0.0468
12064TIP3    H157683   6.103   5.176  14.839  0.0005  0.8347 -0.9001
12064TIP3    H257684   6.194   5.058  14.816  1.4437  1.7095  0.1394
12065TIP3   OH257685   3.359   0.836   6.002  0.3205 -0.1299  0.6622
12065TIP3    H157686   3.290   0.783   5.963  1.2966 -1.1533  0.2791
12065TIP3    H257687   3.377   0.794   6.086  0.6651 -0.0285  0.6404
12066TIP3   OH257688   3.478   2.164   3.456  0.5635  0.1765 -0.3502
12066TIP3    H157689   3.397   2.212   3.475  0.4554 -0.7164  1.6875
12066TIP3    H257690   3.548   2.225   3.479  0.4487  0.1909 -0.0361
12067TIP3   OH257691   5.687   5.365  15.931  0.4114  0.1177  0.4886
12067TIP3    H157692   5.690   5.415  16.013  1.4560  2.2731 -0.7870
12067TIP3    H257693   5.763   5.307  15.936  0.7985  0.6477  0.7888
12068TIP3   OH257694   5.708   5.518  16.181  0.2489  0.2352 -0.0817
12068TIP3    H157695   5.781   5.573  16.208 -1.2044  0.9561  2.8698
12068TIP3    H257696   5.708   5.446  16.244 -1.4858  0.2383 -0.0228
12069TIP3   OH257697   0.935   3.429   1.212  0.6884  0.0859  0.1612
12069TIP3    H157698   0.898   3.470   1.133  0.3311  2.5814  1.5198
12069TIP3    H257699   0.897   3.341   1.213 -1.1389  0.7903 -1.2374
12070TIP3   OH257700   2.358   5.477   2.979 -0.3122 -0.0932  0.2337
12070TIP3    H157701   2.304   5.450   2.904 -1.3408  0.8166  0.6207
12070TIP3    H257702   2.304   5.458   3.055  0.7394 -1.0293  0.7635
12071TIP3   OH257703   0.999   0.540   1.424  0.3625  0.0486  0.2088
12071TIP3    H157704   1.068   0.605   1.436  2.4250 -1.7632 -1.0407
12071TIP3    H257705   0.959   0.531   1.510  0.9960  1.8508  0.7453
12072TIP3   OH257706   0.736   2.327  10.813  0.1490  0.1396 -0.6251
12072TIP3    H157707   0.774   2.415  10.804  1.1038 -0.2126 -0.1595
12072TIP3    H257708   0.811   2.268  10.817 -0.4330 -0.5633  0.4750
12073TIP3   OH257709   1.630   0.473   2.028  0.2779 -0.0452  0.2382
12073TIP3    H157710   1.677   0.432   2.100 -0.7466  0.2418  1.0952
12073TIP3    H257711   1.699   0.502   1.968  1.0652 -2.1277  0.0588
12074TIP3   OH257712   2.910   1.244   0.935  0.1512  0.1203  0.4190
12074TIP3    H157713   2.917   1.165   0.988 -0.3206  1.2711  2.2548
12074TIP3    H257714   2.827   1.234   0.888 -0.8115  0.2777  2.0032
12075TIP3   OH257715   6.801   2.600  14.723  0.2671 -0.7274 -0.2434
12075TIP3    H157716   6.810   2.544  14.646 -1.0558 -0.7000 -0.4330
12075TIP3    H257717   6.735   2.556  14.777 -0.8154  0.6508 -0.4080
12076TIP3   OH257718   5.435   5.830   2.427  0.0754 -0.6814 -0.4958
12076TIP3    H157719   5.363   5.855   2.369 -0.5111 -0.8525  0.1410
12076TIP3    H257720   5.493   5.777   2.373  0.3607  0.4735 -1.3496
12077TIP3   OH257721   0.018   1.980  10.604 -0.0134 -0.4709  1.3374
12077TIP3    H157722   0.074   2.046  10.645  0.1163  0.2002  0.1329
12077TIP3    H257723  -0.063   2.026  10.583  0.9249  0.0460 -1.6769
12078TIP3   OH257724   1.869   3.157   0.378 -0.3165  0.6343 -0.0826
12078TIP3    H157725   1.831   3.091   0.436  0.7716  0.2235  0.1939
12078TIP3    H257726   1.816   3.236   0.393 -0.8522  0.1748  0.5013
12079TIP3   OH257727   4.693   3.317   0.654 -0.5442  0.2551 -0.4371
12079TIP3    H157728   4.694   3.345   0.746  0.6614 -0.8825 -0.0780
12079TIP3    H257729   4.649   3.232   0.656 -1.9632  0.9366 -1.1691
12080TIP3   OH257730   5.525   1.873  17.067  0.1523  0.3930  0.2104
12080TIP3    H157731   5.545   1.788  17.105 -0.0971  0.1998 -0.0853
12080TIP3    H257732   5.438   1.895  17.100 -1.2622 -1.0012 -2.2864
12081TIP3   OH257733   2.326   0.475   6.479  0.2147 -0.1141 -0.1742
12081TIP3    H157734   2.302   0.501   6.390 -1.8969 -0.1304  0.3342
12081TIP3    H257735   2.274   0.532   6.535  0.8607 -0.6988  1.0556
12082TIP3   OH257736   5.050   6.474  14.429 -0.0696  0.1741 -0.2955
12082TIP3    H157737   5.084   6.409  14.491  0.9240  0.1473 -0.8395
12082TIP3    H257738   5.121   6.538  14.422 -1.2810  1.6891  0.7301
12083TIP3   OH257739   1.635   2.564  11.205 -0.1071 -0.3349  0.3702
12083TIP3    H157740   1.547   2.584  11.173 -0.2854 -1.7822 -0.1030
12083TIP3    H257741   1.635   2.593  11.296  0.0070  2.7096 -0.4908
12084TIP3   OH257742   1.330   0.313   5.693  0.8021  0.5370 -0.3302
12084TIP3    H157743   1.352   0.395   5.737 -2.0822  1.7095 -0.8220
12084TIP3    H257744   1.276   0.265   5.757  1.1239 -0.2612 -0.6350
12085TIP3   OH257745   4.790   2.763  15.052 -0.0116  0.4128  0.1068
12085TIP3    H157746   4.730   2.748  14.980  1.6799 -0.0449 -1.2745
12085TIP3    H257747   4.755   2.840  15.097 -1.3832  0.3964 -0.8803
12086TIP3   OH257748   2.993   5.654  16.165  0.2239 -0.1395 -0.9953
12086TIP3    H157749   3.024   5.742  16.146  0.3431 -0.4403 -2.3137
12086TIP3    H257750   3.003   5.607  16.082 -1.5224 -0.8990 -0.8295
12087TIP3   OH257751   5.396   5.079  11.785 -0.1060 -0.3262  0.4481
12087TIP3    H157752   5.436   5.165  11.782 -0.3305 -0.1886  1.2034
12087TIP3    H257753   5.363   5.065  11.697  1.5574 -0.4361 -0.1952
12088TIP3   OH257754   6.783   0.565  11.138 -0.2044 -0.8408  0.1074
12088TIP3    H157755   6.842   0.584  11.210  0.5085 -1.1304 -0.3884
12088TIP3    H257756   6.784   0.644  11.084 -0.3785 -0.7944  0.1715
12089TIP3   OH257757   2.363   3.661   2.983 -0.2492  0.4312 -0.4801
12089TIP3    H157758   2.313   3.719   2.926  1.2886  1.9845 -0.3171
12089TIP3    H257759   2.439   3.713   3.009  1.0289 -1.5526 -0.0633
12090TIP3   OH257760   0.068   6.064  16.138 -0.7309 -0.0840 -0.1897
12090TIP3    H157761   0.061   6.149  16.095 -0.6151  0.6534  1.1739
12090TIP3    H257762   0.140   6.075  16.201  0.7907 -1.8999 -1.5155
12091TIP3   OH257763   3.498   3.875   0.353 -0.0551 -0.2964  0.0475
12091TIP3    H157764   3.564   3.825   0.305  1.6065  0.4362  1.4593
12091TIP3    H257765   3.502   3.841   0.442 -1.9877 -0.5826  0.0766
12092TIP3   OH257766   0.604   4.708   1.725  0.3983  0.2956 -0.3274
12092TIP3    H157767   0.509   4.714   1.713  0.4195 -0.0538 -0.7108
12092TIP3    H257768   0.640   4.739   1.641  0.6553  1.4242  0.1748
12093TIP3   OH257769   6.676   2.579  15.407 -0.1047  0.3122  0.5796
12093TIP3    H157770   6.651   2.563  15.316 -0.4650  0.2851  0.6818
12093TIP3    H257771   6.604   2.543  15.459  0.3718 -0.1957  0.8953
12094TIP3   OH257772   3.576   2.100   6.611  0.1735 -0.2739  0.7038
12094TIP3    H157773   3.508   2.079   6.547  1.2454 -0.0326 -0.5750
12094TIP3    H257774   3.609   2.186   6.585  0.9135 -0.3505  1.3251
12095TIP3   OH257775   4.976   3.657   5.107 -0.2905 -0.6485 -0.1877
12095TIP3    H157776   4.975   3.752   5.123  0.9215 -0.6478 -0.0036
12095TIP3    H257777   4.895   3.625   5.146  0.8811 -0.1523  2.8994
12096TIP3   OH257778   2.288   4.236   1.109 -0.1494  0.0561 -0.5742
12096TIP3    H157779   2.365   4.291   1.127  0.5257 -0.7760 -0.8146
12096TIP3    H257780   2.237   4.239   1.190  0.5998 -0.0880 -0.0774
12097TIP3   OH257781   2.123   3.917  12.015  0.6608  0.1614  0.2435
12097TIP3    H157782   2.048   3.938  11.958  0.3065 -2.9117 -0.6122
12097TIP3    H257783   2.197   3.961  11.974 -0.0543  0.1522 -1.1460
12098TIP3   OH257784   0.388   1.136   1.045  0.2349  0.1216  0.1619
12098TIP3    H157785   0.417   1.144   1.136 -2.7732 -1.7290  1.4073
12098TIP3    H257786   0.412   1.047   1.020 -3.2475 -1.1895  0.9678
12099TIP3   OH257787   1.362   1.230   5.491 -0.2807 -0.1218  0.0554
12099TIP3    H157788   1.326   1.300   5.545  0.8257  0.3983  0.1615
12099TIP3    H257789   1.424   1.274   5.433  0.4338 -1.0059  0.1218
12100TIP3   OH257790   3.758   4.586   0.013  0.4887 -0.4840 -0.0792
12100TIP3    H157791   3.766   4.502  -0.031 -0.0031 -0.3695 -0.3902
12100TIP3    H257792   3.809   4.576   0.094  3.0734 -0.0596 -1.5280
12101TIP3   OH257793   0.043   5.026   1.638  0.1323 -0.3195  1.0604
12101TIP3    H157794  -0.003   4.985   1.712 -0.7439 -0.1316  0.6390
12101TIP3    H257795   0.039   4.960   1.568 -0.1320 -0.0213  0.7927
12102TIP3   OH257796   1.764   3.179  14.661  0.0003  0.1036 -0.6042
12102TIP3    H157797   1.859   3.191  14.653 -0.2463  2.0442 -1.1948
12102TIP3    H257798   1.743   3.206  14.750  0.0487 -0.9633 -0.2473
12103TIP3   OH257799   1.700   3.562   2.648 -0.2963  0.2924 -0.0746
12103TIP3    H157800   1.696   3.467   2.638  0.6341  0.1773  0.5850
12103TIP3    H257801   1.637   3.595   2.584  1.1396 -0.6576 -2.0929
12104TIP3   OH257802   4.772   3.049   5.292  0.5522  0.6061 -0.3518
12104TIP3    H157803   4.842   3.057   5.228  2.5141  1.1977  1.7301
12104TIP3    H257804   4.786   2.963   5.332  2.2326  1.9946  2.3011
12105TIP3   OH257805   1.032   2.591   5.164  0.0568 -0.0686 -0.4808
12105TIP3    H157806   1.032   2.560   5.074  1.1690 -0.7951 -0.2579
12105TIP3    H257807   1.029   2.511   5.217 -0.5603  0.3441  0.1365
12106TIP3   OH257808   5.748   5.045   4.198 -0.7170 -0.1390 -0.7729
12106TIP3    H157809   5.824   5.017   4.147 -0.0541 -1.3097  0.7570
12106TIP3    H257810   5.727   5.132   4.164  2.1017  0.7669 -0.4484
12107TIP3   OH257811   0.481   5.852  15.197  0.0326  0.2298 -0.2729
12107TIP3    H157812   0.516   5.777  15.245  0.2376  0.6847  0.2957
12107TIP3    H257813   0.474   5.821  15.107  0.5620 -0.3185 -0.1321
12108TIP3   OH257814   2.990   4.752  12.819 -0.6651 -0.0614  0.0286
12108TIP3    H157815   2.900   4.781  12.836 -0.8873  0.0009 -1.1984
12108TIP3    H257816   2.982   4.684  12.753  0.1538 -0.4535  0.3194
12109TIP3   OH257817   1.826   0.773  16.475 -0.2152  0.5814 -0.2768
12109TIP3    H157818   1.867   0.759  16.560 -0.1365  0.9811 -0.2435
12109TIP3    H257819   1.857   0.701  16.421 -0.5441  0.1251  0.1307
12110TIP3   OH257820   5.780   1.217   0.816 -0.5898 -0.1893  0.0529
12110TIP3    H157821   5.686   1.198   0.813 -0.0048 -3.7621 -0.2871
12110TIP3    H257822   5.815   1.178   0.736  1.3802 -0.3761  0.9482
12111TIP3   OH257823   6.109   4.037   1.581 -0.1756  0.1846 -0.4356
12111TIP3    H157824   6.028   4.064   1.624  0.3363  0.5272  0.3559
12111TIP3    H257825   6.125   4.105   1.516 -0.9419 -0.3176 -1.1633
12112TIP3   OH257826   4.612   6.361   6.348  0.4644 -0.4438  0.2581
12112TIP3    H157827   4.597   6.452   6.322  1.1918  0.6964  3.3777
12112TIP3    H257828   4.524   6.323   6.351 -0.0645  0.7371  0.7343
12113TIP3   OH257829   0.213   1.272   3.196  0.2203 -0.6293 -0.4251
12113TIP3    H157830   0.257   1.230   3.270 -1.7741  0.3367  1.4065
12113TIP3    H257831   0.141   1.213   3.175  0.2311 -0.4426 -0.9969
12114TIP3   OH257832   3.877   6.774  15.736  0.4301  0.2121  0.2956
12114TIP3    H157833   3.813   6.842  15.754  1.8421  1.9821 -1.0055
12114TIP3    H257834   3.956   6.821  15.709  1.4108 -1.9299 -0.8984
12115TIP3   OH257835   4.900   6.278  13.086  0.3093  0.0129 -0.0238
12115TIP3    H157836   4.867   6.312  13.003  0.8537 -0.7432 -0.5658
12115TIP3    H257837   4.972   6.336  13.109 -0.4154  0.7686  0.4001
12116TIP3   OH257838   5.747   6.842  13.793 -0.8100  0.1915 -0.6254
12116TIP3    H157839   5.833   6.883  13.799 -1.0108  0.6232 -0.6773
12116TIP3    H257840   5.735   6.825  13.700 -0.3586 -0.7874 -0.5178
12117TIP3   OH257841   1.073   3.214   3.355 -0.5848 -0.0253  0.0549
12117TIP3    H157842   0.985   3.242   3.383 -0.1050 -0.1279  1.7651
12117TIP3    H257843   1.129   3.233   3.430  0.7880 -0.3657 -0.8583
12118TIP3   OH257844   0.805   4.450   0.562 -0.0042  0.4526 -0.6543
12118TIP3    H157845   0.814   4.453   0.467  0.6935  1.6811 -0.5553
12118TIP3    H257846   0.804   4.356   0.582  1.3346  0.1781 -1.7325
12119TIP3   OH257847   5.144   3.471   4.651  0.1411 -0.3261 -0.1440
12119TIP3    H157848   5.075   3.513   4.702 -0.3899 -0.8935 -0.3688
12119TIP3    H257849   5.129   3.377   4.663  2.1289 -0.5026  1.4785
12120TIP3   OH257850   2.109   5.412  15.139  0.5866 -0.1150 -0.4707
12120TIP3    H157851   2.125   5.453  15.054  2.0066  0.3696 -0.0008
12120TIP3    H257852   2.187   5.433  15.191 -0.6649  0.4171  1.2753
12121TIP3   OH257853   1.579   5.029  14.396 -0.0241  0.2028 -0.0651
12121TIP3    H157854   1.597   4.972  14.471 -0.8214  0.4810  0.3536
12121TIP3    H257855   1.607   4.979  14.320 -0.7265 -0.7755  0.2913
12122TIP3   OH257856   3.825   2.400  15.305  0.5856 -0.2999  0.1410
12122TIP3    H157857   3.846   2.489  15.277 -0.1609  0.0459  0.6442
12122TIP3    H257858   3.765   2.367  15.238  0.6648 -0.3351  0.0873
12123TIP3   OH257859   5.794   4.849  14.020  0.5913 -0.1613 -0.0183
12123TIP3    H157860   5.737   4.821  14.091  0.2231  0.4559 -0.0630
12123TIP3    H257861   5.809   4.770  13.968 -1.3329 -0.0604 -0.7808
12124TIP3   OH257862   0.903   1.273  13.384  0.2705  0.5348 -0.0722
12124TIP3    H157863   0.828   1.240  13.335 -0.5320  0.4556  1.1506
12124TIP3    H257864   0.873   1.355  13.423  1.3130  1.2621 -0.7432
12125TIP3   OH257865   5.036   0.619  15.431  0.4436 -0.1596  0.1591
12125TIP3    H157866   5.061   0.531  15.458  0.2679  0.1815  1.4788
12125TIP3    H257867   5.119   0.662  15.411  0.6057 -0.3095  0.4960
12126TIP3   OH257868   1.026   1.765   3.006  0.9697 -0.2580  0.3562
12126TIP3    H157869   1.059   1.676   2.991 -2.5258 -1.6306 -0.0812
12126TIP3    H257870   1.055   1.787   3.095  3.0977 -1.1842 -0.0444
12127TIP3   OH257871   2.223   4.943   3.214  0.0329  0.3771  0.1035
12127TIP3    H157872   2.168   4.981   3.283 -0.4377 -3.0925  1.8815
12127TIP3    H257873   2.165   4.881   3.170  0.9463  0.9874 -2.0745
12128TIP3   OH257874   1.189   4.996  12.522 -0.7402  0.0256 -0.0789
12128TIP3    H157875   1.158   4.971  12.435 -1.8927 -0.2297  0.3892
12128TIP3    H257876   1.110   5.000  12.575 -0.0991  0.6347  0.8548
12129TIP3   OH257877   6.682   0.279  15.785 -0.1424  0.0882  0.0736
12129TIP3    H157878   6.775   0.300  15.776  0.0395 -1.0403 -0.9655
12129TIP3    H257879   6.649   0.279  15.695 -1.1880  0.6093  0.4418
12130TIP3   OH257880   6.409   4.678  13.788 -0.5396 -0.4389 -0.1540
12130TIP3    H157881   6.393   4.768  13.817  1.6480  0.6423 -2.0027
12130TIP3    H257882   6.324   4.649  13.752 -1.3479  0.7444  0.7308
12131TIP3   OH257883   0.075   5.280  16.383 -0.4911 -0.1100 -0.0073
12131TIP3    H157884   0.131   5.207  16.355 -0.9382 -0.3158 -0.3847
12131TIP3    H257885   0.088   5.285  16.478 -2.7336 -2.6832  0.5557
12132TIP3   OH257886   0.326   3.321  16.717  0.0032  0.0249 -0.7033
12132TIP3    H157887   0.255   3.345  16.657 -0.8140 -0.7090 -0.0403
12132TIP3    H257888   0.315   3.228  16.732  0.2347  0.1866  0.5577
12133TIP3   OH257889   5.802   0.519  10.114 -0.3742 -0.5095 -0.8455
12133TIP3    H157890   5.752   0.597  10.137 -0.4245 -1.0777  1.1334
12133TIP3    H257891   5.738   0.448  10.118  0.3699 -1.1312  0.9167
12134TIP3   OH257892   4.418   6.054   5.305 -0.1591  0.0554 -0.1294
12134TIP3    H157893   4.437   6.135   5.352  0.2070  1.1808 -2.1189
12134TIP3    H257894   4.451   5.985   5.363 -0.4423  1.2920  1.5950
12135TIP3   OH257895   2.925   5.990  13.896  0.3480 -0.1822  0.1063
12135TIP3    H157896   2.905   5.906  13.855  1.3454 -0.6333  0.4981
12135TIP3    H257897   2.859   6.050  13.862  0.2052 -0.9018 -0.9374
12136TIP3   OH257898   1.727   5.234  12.320 -0.0560  0.1559  0.3693
12136TIP3    H157899   1.706   5.324  12.295  0.0207  0.0959  0.0865
12136TIP3    H257900   1.753   5.192  12.238  0.5655  0.0610  0.6126
12137TIP3   OH257901   1.042   4.950   5.262 -0.5587  0.2786 -0.2716
12137TIP3    H157902   1.090   4.868   5.272  0.2848  0.9588  1.5258
12137TIP3    H257903   1.098   5.004   5.206 -0.7258 -0.0485 -0.7636
12138TIP3   OH257904   4.574   4.545   3.198  0.2196  0.3513  0.2113
12138TIP3    H157905   4.629   4.623   3.193 -0.0744  0.6839  1.6651
12138TIP3    H257906   4.489   4.578   3.226 -0.0828 -0.4231  0.2355
12139TIP3   OH257907   3.504   2.426   3.297 -0.0201  0.1295 -0.4502
12139TIP3    H157908   3.437   2.373   3.339  0.1696  0.4884  0.3193
12139TIP3    H257909   3.464   2.513   3.289 -1.7561 -0.8099 -4.9839
12140TIP3   OH257910   6.093   5.863  12.709  0.3227 -0.1215 -0.3351
12140TIP3    H157911   6.146   5.785  12.693 -1.9386 -2.5238  2.8026
12140TIP3    H257912   6.098   5.878  12.803 -1.1763  2.1838 -0.5228
12141TIP3   OH257913   1.210   1.704   3.770  0.4320 -0.4227  0.1204
12141TIP3    H157914   1.278   1.718   3.704 -0.0451 -0.2975 -0.3506
12141TIP3    H257915   1.247   1.640   3.830  1.3612  0.3675  0.4268
12142TIP3   OH257916   3.554   2.652  11.434 -0.3348  0.0805 -0.0453
12142TIP3    H157917   3.621   2.661  11.366 -0.0811 -1.1326  0.0224
12142TIP3    H257918   3.536   2.742  11.461  0.8902  0.4695 -0.4281
12143TIP3   OH257919   4.941   2.723   6.276 -0.3419  0.4317 -0.0389
12143TIP3    H157920   4.889   2.658   6.228  1.2834  0.7888 -2.4954
12143TIP3    H257921   4.885   2.801   6.276 -0.6869  0.2042 -0.7518
12144TIP3   OH257922   5.552   3.010   3.213 -0.2404  0.2362  0.0549
12144TIP3    H157923   5.633   2.978   3.253  0.5189  0.7434 -1.0338
12144TIP3    H257924   5.528   3.086   3.266  2.0350  2.3568 -1.6892
12145TIP3   OH257925   0.528   3.259  11.716 -0.0995  0.0581 -0.8544
12145TIP3    H157926   0.496   3.178  11.677 -1.5975  0.2164 -0.0306
12145TIP3    H257927   0.454   3.319  11.712 -0.0567  0.3509  1.3998
12146TIP3   OH257928   5.368   3.515  11.573  0.1126  0.4552 -0.1393
12146TIP3    H157929   5.378   3.453  11.501 -0.9183  2.0940 -1.8128
12146TIP3    H257930   5.293   3.483  11.622  0.9782 -0.8220  0.4038
12147TIP3   OH257931   3.124   4.888  10.711  0.5594  0.3141 -0.2387
12147TIP3    H157932   3.135   4.807  10.760  0.2927 -0.3923 -1.2970
12147TIP3    H257933   3.052   4.870  10.651  1.2978  0.9027 -1.3443
12148TIP3   OH257934   1.870   0.931   1.045  0.5858 -0.4515 -0.0769
12148TIP3    H157935   1.817   0.943   0.966 -0.3467 -1.0264  0.4410
12148TIP3    H257936   1.809   0.947   1.117  1.0811 -1.2500  0.5375
12149TIP3   OH257937   2.800   1.933   1.691  0.2564  0.1541 -0.0395
12149TIP3    H157938   2.873   1.883   1.654 -0.6228  0.7558 -2.8561
12149TIP3    H257939   2.732   1.868   1.708 -0.3987  0.1029 -2.4461
12150TIP3   OH257940   1.679   6.564  13.372 -0.3133 -0.0204 -0.2293
12150TIP3    H157941   1.771   6.562  13.346  0.1350  0.9570  1.1297
12150TIP3    H257942   1.647   6.475  13.358  0.9431 -0.4658 -0.3625
12151TIP3   OH257943   1.246   3.332   3.172  0.0534  0.1248 -0.0684
12151TIP3    H157944   1.290   3.402   3.219  2.0586 -0.7923 -0.4713
12151TIP3    H257945   1.179   3.301   3.233  1.0712  0.4754  1.2809
12152TIP3   OH257946   0.306   2.292  12.462  0.4943  0.3771 -0.2847
12152TIP3    H157947   0.329   2.315  12.372  2.0223  0.5246  0.1134
12152TIP3    H257948   0.390   2.283  12.507 -0.2384  0.9122  1.2901
12153TIP3   OH257949   1.091   4.108   5.774  0.0352 -0.2072  0.5107
12153TIP3    H157950   1.083   4.081   5.866  0.7375 -0.5293  0.4815
12153TIP3    H257951   1.025   4.176   5.763  0.2478  0.1463  1.3737
12154TIP3   OH257952   4.541   0.400   4.958 -0.0104 -0.0294 -0.5462
12154TIP3    H157953   4.604   0.330   4.943  0.9065  0.0803  2.2012
12154TIP3    H257954   4.474   0.388   4.890  1.5532 -1.8083 -1.8602
12155TIP3   OH257955   0.298   6.598   1.130 -0.3243  0.0424  0.3979
12155TIP3    H157956   0.287   6.521   1.186  0.5760 -0.3216  0.0940
12155TIP3    H257957   0.218   6.648   1.143 -0.9342 -0.9438  0.5975
12156TIP3   OH257958   0.574   4.444  12.157 -0.5002  0.2070 -0.0893
12156TIP3    H157959   0.633   4.378  12.122 -0.5631 -0.6367  1.2995
12156TIP3    H257960   0.632   4.517  12.181  0.1723 -0.9328  2.0277
12157TIP3   OH257961   1.138   5.450  10.417 -0.6074 -1.1868 -0.1617
12157TIP3    H157962   1.061   5.494  10.381 -1.2246 -2.4024 -0.3817
12157TIP3    H257963   1.102   5.389  10.482  0.3562 -0.1916  1.3746
12158TIP3   OH257964   6.826   2.274  16.570 -0.0669 -0.1117 -0.6840
12158TIP3    H157965   6.863   2.344  16.624 -0.1669 -0.9411  0.5002
12158TIP3    H257966   6.892   2.205  16.570  0.0862  0.0072 -1.9506
12159TIP3   OH257967   3.117   1.971  12.817 -0.3737  0.2415  0.5177
12159TIP3    H157968   3.146   1.991  12.906  0.1829  0.1630  0.3591
12159TIP3    H257969   3.084   1.881  12.822  0.1419  0.0516  0.5359
12160TIP3   OH257970   4.347   1.783   2.459  0.2055  0.0125  0.0580
12160TIP3    H157971   4.307   1.754   2.377 -0.8115  0.1785  0.4755
12160TIP3    H257972   4.316   1.873   2.471 -2.4607 -1.0564  2.2680
12161TIP3   OH257973   4.983   1.031  12.714 -0.4069 -0.5797 -0.0024
12161TIP3    H157974   5.079   1.026  12.709 -0.1895  2.1275  0.3302
12161TIP3    H257975   4.961   0.974  12.788  1.0006 -0.8485  0.2466
12162TIP3   OH257976   3.512   3.772  11.139 -0.1326 -0.2699  0.0865
12162TIP3    H157977   3.545   3.839  11.079 -3.9296  1.3891 -0.4418
12162TIP3    H257978   3.522   3.811  11.226 -0.8178  0.2920 -0.0814
12163TIP3   OH257979   1.044   6.460   3.219 -0.0426  0.0040 -0.0598
12163TIP3    H157980   1.110   6.394   3.242 -0.1973 -0.0119  0.3482
12163TIP3    H257981   1.085   6.544   3.241 -0.1873 -0.0110  0.2835
12164TIP3   OH257982   1.926   6.655   1.844  0.4048  0.4077  0.0347
12164TIP3    H157983   2.000   6.674   1.786  0.9906  1.8593  1.1928
12164TIP3    H257984   1.965   6.652   1.931 -0.8285  0.7306  0.6127
12165TIP3   OH257985   3.363   5.308   4.707  0.0151 -0.0175  0.3905
12165TIP3    H157986   3.267   5.312   4.716 -0.0437 -2.0902  1.0925
12165TIP3    H257987   3.384   5.215   4.714  2.0197  0.3112 -0.6989
12166TIP3   OH257988   3.719   3.080   2.765  0.3056 -0.6792  0.1989
12166TIP3    H157989   3.719   3.067   2.860  0.0003 -1.2041  0.1290
12166TIP3    H257990   3.627   3.097   2.743  0.1865 -1.6902 -0.1492
12167TIP3   OH257991   4.294   5.758   3.452 -0.3116 -0.3518 -0.0455
12167TIP3    H157992   4.350   5.732   3.378 -0.2647 -2.7294  0.7303
12167TIP3    H257993   4.226   5.812   3.412  1.4440  1.0304 -1.3057
12168TIP3   OH257994   0.262   6.577   0.015 -0.3579 -0.8937  0.8170
12168TIP3    H157995   0.183   6.552  -0.032  0.2812 -0.1037 -0.7754
12168TIP3    H257996   0.333   6.532  -0.032  0.1439 -1.7969  2.3705
12169TIP3   OH257997   2.789   1.457   4.700  0.1053  0.0255  0.1142
12169TIP3    H157998   2.777   1.393   4.630  1.0512 -0.4506  0.3800
12169TIP3    H257999   2.782   1.542   4.656  2.6104 -0.2392 -0.9563
12170TIP3   OH258000   3.953   5.127  14.915 -0.0499  0.0045 -0.0509
12170TIP3    H158001   3.934   5.038  14.886  0.7256  0.3682 -1.7768
12170TIP3    H258002   3.894   5.182  14.864  1.2876  0.6541 -0.9628
12171TIP3   OH258003   3.159   3.215   1.573  0.2759 -0.0327  0.7756
12171TIP3    H158004   3.212   3.150   1.619  0.6421 -0.3499 -0.0594
12171TIP3    H258005   3.092   3.164   1.527 -1.2775  0.4212  2.4366
12172TIP3   OH258006   4.100   4.677   4.503  0.7327  0.3155  0.1194
12172TIP3    H158007   4.022   4.697   4.556 -1.5679 -1.5372 -2.2723
12172TIP3    H258008   4.106   4.750   4.441 -1.2635 -1.0028 -1.8073
12173TIP3   OH258009   1.401   3.276   4.074 -0.1925 -0.0746  0.0028
12173TIP3    H158010   1.438   3.203   4.024 -2.7409 -0.4843 -1.4692
12173TIP3    H258011   1.377   3.341   4.008 -1.4874  0.4077  0.9097
12174TIP3   OH258012   5.742   4.945   2.004 -0.3135  0.5701  0.0490
12174TIP3    H158013   5.771   4.998   1.929 -0.3244 -0.1083 -0.4456
12174TIP3    H258014   5.786   4.984   2.079  1.0658  0.2119 -0.5408
12175TIP3   OH258015   1.505   1.078   0.267  0.0263 -0.1530  0.9680
12175TIP3    H158016   1.600   1.074   0.257  0.1041  0.5822  1.3395
12175TIP3    H258017   1.477   0.987   0.268  0.7035 -0.3698  0.6317
12176TIP3   OH258018   4.002   5.780   2.692 -0.0551 -0.0049  0.5197
12176TIP3    H158019   4.018   5.686   2.691  0.2457  0.0057  1.9130
12176TIP3    H258020   4.072   5.816   2.747  0.3855  1.1598 -0.7364
12177TIP3   OH258021   3.130   1.887  11.444  0.1471 -0.1506 -0.2986
12177TIP3    H158022   3.048   1.900  11.397  1.0997 -1.1387 -2.3356
12177TIP3    H258023   3.165   1.975  11.456 -1.2934  0.3179  0.8789
12178TIP3   OH258024   5.871   4.568   4.091  0.4545 -0.3055  0.0914
12178TIP3    H158025   5.810   4.505   4.129  0.4658 -0.8067 -0.6931
12178TIP3    H258026   5.890   4.629   4.162 -0.6683 -0.3599  0.4565
12179TIP3   OH258027   4.690   5.370   2.903  0.3842  0.0755 -0.1027
12179TIP3    H158028   4.645   5.297   2.861 -0.6273  0.5787  0.0543
12179TIP3    H258029   4.625   5.405   2.964  1.4149  0.0816  1.0267
12180TIP3   OH258030   4.797   0.950  16.691  0.0180 -0.3477 -0.1715
12180TIP3    H158031   4.716   1.002  16.691 -0.3246 -0.8727 -0.4844
12180TIP3    H258032   4.860   1.005  16.645  0.2605  0.6798  1.3228
12181TIP3   OH258033   1.506   3.151   2.433 -0.2698 -0.0071 -0.5073
12181TIP3    H158034   1.509   3.060   2.404  1.2406  0.1574 -0.9813
12181TIP3    H258035   1.596   3.183   2.420  0.0922  0.6371  2.6159
12182TIP3   OH258036   4.908   4.160   1.167 -0.2501 -0.7515 -0.3663
12182TIP3    H158037   4.947   4.231   1.217 -0.2974 -0.3711 -0.8631
12182TIP3    H258038   4.818   4.154   1.199 -0.5719  0.1245 -1.0572
12183TIP3   OH258039   0.666   4.762  14.969  0.1836  0.0631 -0.0478
12183TIP3    H158040   0.674   4.771  15.064 -2.9039  3.1451  0.1204
12183TIP3    H258041   0.627   4.675  14.957 -1.1051  0.3260  1.7409
12184TIP3   OH258042   4.417   0.879   2.804 -0.1178  0.0501  0.3007
12184TIP3    H158043   4.484   0.845   2.863  0.4079 -0.0005 -0.3240
12184TIP3    H258044   4.462   0.942   2.748 -0.2575 -1.0015 -1.0591
12185TIP3   OH258045   6.191   5.705  11.703  0.3297 -0.0653  0.3808
12185TIP3    H158046   6.231   5.619  11.696 -0.7923 -0.6096  0.4167
12185TIP3    H258047   6.255   5.758  11.751  0.6232 -1.1449  1.2163
12186TIP3   OH258048   2.232   3.000   5.668 -0.1880 -0.0442  0.2180
12186TIP3    H158049   2.161   3.052   5.629  0.1757 -0.4155 -0.9942
12186TIP3    H258050   2.221   3.010   5.762  0.1147  2.5756  0.0379
12187TIP3   OH258051   6.123   5.879   3.879 -0.4813  0.4754 -0.1779
12187TIP3    H158052   6.093   5.819   3.947 -0.0781  1.3433  0.7989
12187TIP3    H258053   6.063   5.953   3.884 -0.6692  0.3903 -1.0258
12188TIP3   OH258054   2.328   2.325   6.021 -0.2191 -0.1710  0.3520
12188TIP3    H158055   2.235   2.304   6.013  0.0534 -2.0761  1.5451
12188TIP3    H258056   2.369   2.242   6.044  1.5010  1.0319  1.8343
12189TIP3   OH258057   6.199   5.024   4.605  0.0782 -0.0286 -0.7159
12189TIP3    H158058   6.275   4.977   4.640 -0.5339 -0.7313 -0.2757
12189TIP3    H258059   6.198   5.108   4.651 -0.2921 -0.6475  0.4589
12190TIP3   OH258060   1.340   0.286  15.482 -0.0407 -0.0580 -0.2637
12190TIP3    H158061   1.315   0.341  15.408 -3.9357 -0.8565  0.2518
12190TIP3    H258062   1.291   0.205  15.470  0.0616 -0.6559  2.5536
12191TIP3   OH258063   3.129   5.782   7.329  0.1557  0.2264 -0.1058
12191TIP3    H158064   3.218   5.813   7.347  0.0929 -0.3643  1.2745
12191TIP3    H258065   3.142   5.701   7.280  0.3361  0.8507 -1.1475
12192TIP3   OH258066   2.424   3.163  16.170  0.1345  0.3222 -0.6454
12192TIP3    H158067   2.455   3.167  16.080  0.7211  1.6787 -0.4106
12192TIP3    H258068   2.386   3.249  16.186  1.1314  0.5472  0.7577
12193TIP3   OH258069   4.815   4.432  14.208  0.1384  0.0019  0.0908
12193TIP3    H158070   4.798   4.502  14.145 -1.3202  0.3804  0.8527
12193TIP3    H258071   4.753   4.448  14.279  0.9699 -1.0654  1.1045
12194TIP3   OH258072   2.751   4.652   3.586  0.3956  0.5022 -0.6526
12194TIP3    H158073   2.717   4.610   3.507 -1.8085  0.3125  0.3161
12194TIP3    H258074   2.749   4.583   3.653  1.2835  0.9199 -0.1707
12195TIP3   OH258075   3.388   5.818   0.250  0.4174  0.6169  0.2984
12195TIP3    H158076   3.415   5.905   0.278  0.0433  0.4365  1.2464
12195TIP3    H258077   3.457   5.760   0.282  0.4966  0.5185 -0.0404
12196TIP3   OH258078   6.172   1.338  11.575 -0.2955 -0.3226 -0.0457
12196TIP3    H158079   6.112   1.301  11.510 -0.2831  2.2712 -1.6738
12196TIP3    H258080   6.131   1.319  11.659 -0.3023 -3.8256 -0.6848
12197TIP3   OH258081   6.507   6.027   1.827 -0.4401 -0.4642  0.5167
12197TIP3    H158082   6.584   6.023   1.770 -0.2384 -4.3203  0.7746
12197TIP3    H258083   6.449   6.091   1.785  0.6365 -1.4567 -2.8058
12198TIP3   OH258084   2.448   1.996  11.122 -0.2455 -0.1877 -0.0669
12198TIP3    H158085   2.414   2.001  11.212  0.3964  1.9083  0.1273
12198TIP3    H258086   2.391   1.933  11.078 -1.8226  0.1976  1.3105
12199TIP3   OH258087   0.392   4.008  16.041  0.3883 -0.2106  0.4146
12199TIP3    H158088   0.349   4.075  16.095 -1.3225 -0.3429 -0.7042
12199TIP3    H258089   0.353   4.019  15.954  2.4740 -0.5446 -0.6220
12200TIP3   OH258090   1.709   3.847   5.649 -0.2688  0.2948  0.8687
12200TIP3    H158091   1.649   3.905   5.695 -0.6211  1.2711 -0.7251
12200TIP3    H258092   1.734   3.896   5.571  0.6272 -1.1098  0.2297
12201TIP3   OH258093   1.362   3.378   2.626 -0.1120 -0.2522  0.3483
12201TIP3    H158094   1.366   3.370   2.721 -1.0834 -3.2816  0.2354
12201TIP3    H258095   1.429   3.318   2.593  1.1040  1.6936 -0.9518
12202TIP3   OH258096   3.199   1.820  14.501  0.1497 -0.4437  0.7468
12202TIP3    H158097   3.138   1.764  14.549 -0.5211 -0.1698  0.2202
12202TIP3    H258098   3.182   1.908  14.534  0.1776 -0.3506  0.5153
12203TIP3   OH258099   0.549   5.608   0.995  0.1078  0.3459 -0.3103
12203TIP3    H158100   0.634   5.563   0.990 -0.0501  0.1224 -1.1609
12203TIP3    H258101   0.485   5.540   0.974 -0.2464  0.6331 -0.1690
12204TIP3   OH258102   4.626   5.272   1.103  0.5203 -0.3532  0.1524
12204TIP3    H158103   4.597   5.268   1.012  0.4693  0.7433  0.1059
12204TIP3    H258104   4.570   5.338   1.144 -0.0350 -1.4397  1.2173
12205TIP3   OH258105   0.124   3.697  13.694 -0.1730  0.2141 -0.0222
12205TIP3    H158106   0.103   3.685  13.787  0.9959  1.1045  0.3746
12205TIP3    H258107   0.103   3.612  13.654 -2.8815  0.5044  0.5949
12206TIP3   OH258108   0.188   2.304  15.129 -0.0884  0.1634 -0.3463
12206TIP3    H158109   0.220   2.394  15.132  1.2596 -0.3025  0.4380
12206TIP3    H258110   0.268   2.251  15.129 -0.8064 -1.0221 -2.6195
12207TIP3   OH258111   4.051   4.057  11.526  0.3982 -0.6100 -0.5521
12207TIP3    H158112   4.135   4.094  11.501  0.2820 -0.3764 -0.6004
12207TIP3    H258113   3.989   4.131  11.519  0.4299 -0.4381  0.8027
12208TIP3   OH258114   4.322   4.290  15.437 -0.2781 -0.0764 -0.1398
12208TIP3    H158115   4.382   4.237  15.384 -1.0986 -1.1066 -0.0861
12208TIP3    H258116   4.283   4.227  15.498 -0.8477  0.7169  0.3292
12209TIP3   OH258117   3.132   2.834   5.658 -0.2006 -0.0837  0.5996
12209TIP3    H158118   3.104   2.834   5.566 -0.6826  0.7107  0.7326
12209TIP3    H258119   3.217   2.790   5.657  0.7658  1.6774 -0.5405
12210TIP3   OH258120   1.296   2.056   3.691  0.0979  0.2043  0.2454
12210TIP3    H158121   1.279   2.130   3.749  2.2307  0.8019  0.1871
12210TIP3    H258122   1.212   2.041   3.646 -0.4901  2.3438  0.5170
12211TIP3   OH258123   1.188   1.127   2.118 -0.4455 -0.0424  0.2877
12211TIP3    H158124   1.277   1.156   2.096 -1.4339  1.5808 -1.9569
12211TIP3    H258125   1.170   1.169   2.202  1.6356 -2.2670  2.0046
12212TIP3   OH258126   6.355   2.659  14.835 -0.4792 -0.3622 -0.4436
12212TIP3    H158127   6.292   2.606  14.788 -0.7202 -1.2463  0.8161
12212TIP3    H258128   6.422   2.597  14.865 -1.5677 -0.3447  2.3951
12213TIP3   OH258129   0.933   5.338  13.355 -0.2565  0.4490  0.0459
12213TIP3    H158130   0.975   5.390  13.286  2.8392 -3.3372 -1.2859
12213TIP3    H258131   0.990   5.349  13.432 -0.6985  0.5108  0.3707
12214TIP3   OH258132   4.499   4.360  16.838  0.2290  0.2682  0.0487
12214TIP3    H158133   4.502   4.265  16.825 -0.4326  0.3115 -0.4745
12214TIP3    H258134   4.407   4.383  16.823  0.0609  0.7875  1.6887
12215TIP3   OH258135   2.139   3.247  13.517 -0.1379 -0.3457 -0.0091
12215TIP3    H158136   2.073   3.231  13.585 -0.2007 -1.0702 -0.2226
12215TIP3    H258137   2.180   3.330  13.542 -1.4515  0.3645 -0.1364
12216TIP3   OH258138   1.520   0.822  12.174  0.1766  0.1208 -0.1371
12216TIP3    H158139   1.575   0.760  12.222  0.0069 -0.9501 -1.2598
12216TIP3    H258140   1.434   0.815  12.215  0.1724 -0.3678 -0.2214
12217TIP3   OH258141   4.596   1.097   4.848  0.2850  0.2473  0.4513
12217TIP3    H158142   4.532   1.026   4.854  1.1540 -0.5351  0.6221
12217TIP3    H258143   4.598   1.120   4.755  0.2954 -0.2303  0.3342
12218TIP3   OH258144   3.058   2.062   3.797 -0.2145 -0.1039  0.1632
12218TIP3    H158145   2.978   2.025   3.760  0.4459 -2.3233  0.8242
12218TIP3    H258146   3.046   2.057   3.891  0.3412  0.4104  0.2693
12219TIP3   OH258147   2.840   0.979   2.534  0.4426 -0.1542 -0.1509
12219TIP3    H158148   2.890   0.969   2.453  0.9058  0.7660  0.0103
12219TIP3    H258149   2.810   1.069   2.533 -1.2997 -0.7050 -0.2698
12220TIP3   OH258150   6.777   3.198  13.132  0.3666  0.2961 -0.3808
12220TIP3    H158151   6.801   3.136  13.063 -2.1306 -0.3989 -0.7281
12220TIP3    H258152   6.724   3.147  13.193  1.1548  1.3027  1.2231
12221TIP3   OH258153   3.142   1.982   4.549  0.7358  0.3323 -0.5108
12221TIP3    H158154   3.214   2.001   4.609  0.8199  0.2077 -0.5711
12221TIP3    H258155   3.063   1.984   4.604  1.0514 -2.4696  0.1869
12222TIP3   OH258156   2.315   1.329  16.038 -0.0411  0.0505 -0.3921
12222TIP3    H158157   2.288   1.255  15.983 -0.4022  0.4542 -0.7571
12222TIP3    H258158   2.274   1.312  16.123  0.0868 -0.2990 -0.3965
12223TIP3   OH258159   4.084   6.194  15.769  0.4616  0.8709 -0.0640
12223TIP3    H158160   4.093   6.233  15.856  0.4631 -1.7718  1.2143
12223TIP3    H258161   3.996   6.218  15.740  0.3242  1.4546  0.8207
12224TIP3   OH258162   4.392   0.819  10.295 -0.5697  0.3562  0.3435
12224TIP3    H158163   4.370   0.912  10.301  0.5463  0.7027 -0.4868
12224TIP3    H258164   4.488   0.818  10.292 -0.5753 -0.5666 -2.5815
12225TIP3   OH258165   1.404   4.497  15.150  0.2247 -0.0823 -0.0702
12225TIP3    H158166   1.469   4.437  15.187 -3.4992 -2.5824  3.2419
12225TIP3    H258167   1.393   4.564  15.218 -1.6825 -0.6375  0.2141
12226TIP3   OH258168   1.982   5.634   1.893  0.1035 -0.1126 -0.4882
12226TIP3    H158169   1.967   5.560   1.953  0.4049  0.3541  0.1659
12226TIP3    H258170   1.900   5.640   1.844 -0.2827 -0.2829  0.1175
12227TIP3   OH258171   0.168   1.792   1.895 -0.4149 -0.1431 -0.3467
12227TIP3    H158172   0.162   1.776   1.990 -1.2072 -0.8502 -0.5099
12227TIP3    H258173   0.250   1.841   1.885 -1.0854  1.2963  0.8734
12228TIP3   OH258174   0.215   3.424   3.352 -0.4403 -0.0567  0.3308
12228TIP3    H158175   0.121   3.419   3.336 -0.3892 -0.8097  0.2293
12228TIP3    H258176   0.247   3.488   3.288 -0.7652 -0.4148 -0.1925
12229TIP3   OH258177   0.762   3.982  14.318  0.0895  0.0424 -0.4370
12229TIP3    H158178   0.696   4.003  14.252 -1.5966  0.0790  1.1686
12229TIP3    H258179   0.845   3.984  14.271 -1.0857 -0.6107 -2.6904
12230TIP3   OH258180   4.898   5.758  17.108 -0.0543 -0.5544  0.0454
12230TIP3    H158181   4.915   5.821  17.179  0.7582  2.5427 -2.6223
12230TIP3    H258182   4.812   5.721  17.128  0.0193  0.3960  2.4570
12231TIP3   OH258183   3.119   0.784   4.931 -0.0950 -0.0065 -0.0637
12231TIP3    H158184   3.044   0.733   4.963 -2.8524  3.1575 -0.9150
12231TIP3    H258185   3.103   0.791   4.836  1.0330  1.1630 -0.1833
12232TIP3   OH258186   4.668   0.761  15.785 -0.6350 -0.0173 -0.3287
12232TIP3    H158187   4.614   0.837  15.764 -0.5217  0.1953  0.1481
12232TIP3    H258188   4.754   0.782  15.748 -0.7080 -0.0849 -0.5391
12233TIP3   OH258189   4.379   2.669  14.635  0.6279 -0.3628  0.0231
12233TIP3    H158190   4.458   2.661  14.581  0.5114 -0.3932 -0.1407
12233TIP3    H258191   4.379   2.760  14.664 -0.4252  0.2448 -1.7296
12234TIP3   OH258192   2.671   5.370  16.711  0.2473 -0.2637  0.9638
12234TIP3    H158193   2.580   5.398  16.706  0.6928  1.1319 -1.9775
12234TIP3    H258194   2.680   5.306  16.640  1.7202  0.3169  0.5856
12235TIP3   OH258195   0.325   3.037   2.138  0.1399  0.1038 -0.1171
12235TIP3    H158196   0.378   3.017   2.215 -2.9964  0.0692  2.2370
12235TIP3    H258197   0.271   2.958   2.125  0.2840  0.2691 -2.1715
12236TIP3   OH258198   2.355   2.448  15.340  0.5143  0.7717 -0.0537
12236TIP3    H158199   2.422   2.447  15.409  0.6675 -2.0251 -0.1380
12236TIP3    H258200   2.283   2.500  15.377  1.2073  0.6246  1.5748
12237TIP3   OH258201   1.327   2.385   4.187 -1.0386 -0.3058 -0.4056
12237TIP3    H158202   1.282   2.351   4.110 -1.5921  0.4601 -0.4396
12237TIP3    H258203   1.382   2.455   4.153  0.0507 -1.1146 -0.3350
12238TIP3   OH258204   0.946   5.568  13.571 -0.3595  0.0093  0.5198
12238TIP3    H158205   0.904   5.597  13.490  0.3917 -1.4783 -0.4329
12238TIP3    H258206   1.039   5.562  13.550  0.2217  1.9624  2.2263
12239TIP3   OH258207   4.226   3.226  15.929 -0.3101  0.4721 -0.0595
12239TIP3    H158208   4.240   3.144  15.977 -0.7748 -1.2810 -2.6940
12239TIP3    H258209   4.171   3.278  15.987  3.1345  0.7427  3.4629
12240TIP3   OH258210   1.956   5.419   0.588 -0.0996  0.1415  0.4839
12240TIP3    H158211   1.990   5.361   0.520  1.0712  1.8482 -0.4573
12240TIP3    H258212   1.861   5.408   0.584 -0.0366  0.0478 -1.2901
12241TIP3   OH258213   0.816   2.670  15.185  0.2167 -0.0744  0.1836
12241TIP3    H158214   0.772   2.652  15.102 -1.8784  0.5213  1.1090
12241TIP3    H258215   0.759   2.632  15.252  2.3816 -1.4565  1.3378
12242TIP3   OH258216   4.279   2.240  13.194 -0.4018 -0.7835  0.5854
12242TIP3    H158217   4.342   2.174  13.223  0.2765 -1.3087 -1.9069
12242TIP3    H258218   4.194   2.209  13.227  0.3617 -0.8632  2.6568
12243TIP3   OH258219   5.933   3.909   0.980 -0.0285 -0.6062  0.4656
12243TIP3    H158220   5.890   3.901   1.066 -0.8591  1.3261  0.2747
12243TIP3    H258221   5.960   4.000   0.975  1.6347 -1.1183 -0.6258
12244TIP3   OH258222   0.719   1.914  12.424 -0.6041  0.0414 -0.5449
12244TIP3    H158223   0.680   1.846  12.479  0.7779 -0.5773 -0.2782
12244TIP3    H258224   0.805   1.931  12.463 -0.6357  1.4496 -1.0253
12245TIP3   OH258225   4.906   0.166   0.697 -0.5291 -0.4924 -0.5606
12245TIP3    H158226   4.869   0.254   0.684  1.2483  0.0687 -2.3380
12245TIP3    H258227   4.885   0.145   0.788  0.0008  2.2824  0.3081
12246TIP3   OH258228   1.449   5.094  15.235 -0.7001  0.3600  0.3095
12246TIP3    H158229   1.529   5.059  15.274 -1.2974 -1.7516 -0.2349
12246TIP3    H258230   1.397   5.124  15.309 -0.8274 -1.4513  1.0043
12247TIP3   OH258231   2.654   4.767   2.708 -0.0463  0.0957 -0.0267
12247TIP3    H158232   2.573   4.817   2.697 -1.6322 -2.3563 -0.3878
12247TIP3    H258233   2.626   4.676   2.704  2.8526 -0.8639 -0.6948
12248TIP3   OH258234   5.932   1.474   2.557  0.0117  0.4026 -0.0959
12248TIP3    H158235   5.925   1.421   2.478 -0.0471  1.8024 -1.0633
12248TIP3    H258236   5.930   1.411   2.629 -2.3523 -0.7441 -1.0840
12249TIP3   OH258237   4.770   2.806  12.611 -0.3826 -0.5229  0.1493
12249TIP3    H158238   4.810   2.807  12.698 -0.1272 -0.6176  0.0334
12249TIP3    H258239   4.839   2.838  12.552 -0.5878 -0.3573 -0.0056
12250TIP3   OH258240   0.268   4.816   4.874 -0.5205 -0.3573  0.0361
12250TIP3    H158241   0.186   4.863   4.863  1.0642  2.6478  0.1067
12250TIP3    H258242   0.275   4.801   4.968 -1.7623 -2.2884 -0.1272
12251TIP3   OH258243   4.671   6.344  14.427 -0.1346  0.2008 -0.0470
12251TIP3    H158244   4.713   6.425  14.396 -0.0319  0.0816 -0.2248
12251TIP3    H258245   4.707   6.331  14.514 -1.0537  0.9894  0.4646
12252TIP3   OH258246   4.530   0.093  15.789 -0.3918 -0.0325  0.2386
12252TIP3    H158247   4.449   0.111  15.742 -0.0759  0.2524 -0.2119
12252TIP3    H258248   4.533  -0.002  15.798  0.0749 -0.1876 -1.3078
12253TIP3   OH258249   2.375   1.796  13.221 -0.1825 -0.5444  0.1717
12253TIP3    H158250   2.323   1.750  13.287 -1.8103  1.5055  0.4271
12253TIP3    H258251   2.338   1.885  13.219  0.5224 -0.2159 -2.7196
12254TIP3   OH258252   6.409   1.849  11.516 -0.4031  0.0748 -0.0181
12254TIP3    H158253   6.452   1.932  11.538 -0.9980  0.6416 -0.9263
12254TIP3    H258254   6.406   1.848  11.421  1.2406 -1.8547 -0.1266
12255TIP3   OH258255   4.612   5.391  16.538 -0.7462  0.2160  0.0425
12255TIP3    H158256   4.542   5.360  16.595 -0.3809  0.6875  0.7655
12255TIP3    H258257   4.676   5.430  16.598  0.3202 -0.5520 -0.5516
12256TIP3   OH258258   3.841   4.422   6.270  0.0325  0.2375  0.2741
12256TIP3    H158259   3.825   4.328   6.269  1.9715 -0.1302 -0.7981
12256TIP3    H258260   3.811   4.453   6.184 -0.8412  0.6811  0.7171
12257TIP3   OH258261   6.377   0.684   0.971 -0.4369 -0.3535 -0.2308
12257TIP3    H158262   6.305   0.719   0.918  0.1383 -1.8902 -2.1418
12257TIP3    H258263   6.442   0.755   0.973 -0.5946 -0.1509 -1.3731
12258TIP3   OH258264   5.220   3.425   4.263 -0.0458 -0.1863  0.0813
12258TIP3    H158265   5.169   3.478   4.201 -0.9013  0.5217  1.3328
12258TIP3    H258266   5.308   3.422   4.226 -0.9144 -1.2265 -2.0190
12259TIP3   OH258267   0.516   0.398  10.221  0.1902  0.1774 -0.1899
12259TIP3    H158268   0.428   0.398  10.257  0.2221  0.3752 -0.1151
12259TIP3    H258269   0.566   0.459  10.275  0.3996 -0.0077 -0.1699
12260TIP3   OH258270   3.549   3.304   5.314  0.6552  0.3693 -0.3553
12260TIP3    H158271   3.563   3.398   5.319 -1.0395  0.5684  1.7284
12260TIP3    H258272   3.591   3.268   5.392  0.9818 -0.5960 -0.9407
12261TIP3   OH258273   6.288   0.849  16.878  0.2152  0.3488 -0.3594
12261TIP3    H158274   6.277   0.833  16.784  0.4350 -0.5267 -0.2532
12261TIP3    H258275   6.332   0.934  16.883 -0.0212  0.5192 -1.0362
12262TIP3   OH258276   5.418   0.245   5.820  0.4262 -0.4204 -0.9015
12262TIP3    H158277   5.429   0.248   5.915  0.6303  1.9009 -0.9386
12262TIP3    H258278   5.488   0.187   5.790  1.1032 -0.2438  0.2745
12263TIP3   OH258279   2.558   0.764   0.675  0.2238 -0.1522 -0.5090
12263TIP3    H158280   2.490   0.830   0.670  0.6865  0.2580 -2.1338
12263TIP3    H258281   2.521   0.687   0.631  0.5667 -0.1278 -0.8561
12264TIP3   OH258282   2.059   5.114   1.506  0.1236  0.1361  0.4457
12264TIP3    H158283   2.055   5.159   1.591  1.8631 -0.5321  0.9195
12264TIP3    H258284   2.040   5.182   1.442 -1.4172  0.6183  1.3507
12265TIP3   OH258285   3.086   4.837   3.165 -0.1811 -0.1957 -0.6204
12265TIP3    H158286   3.163   4.786   3.193  0.6584  1.1494 -0.3995
12265TIP3    H258287   3.090   4.835   3.069  1.5939  1.9122 -0.6578
12266TIP3   OH258288   4.369   3.692   0.745 -0.4432 -0.0089  0.0282
12266TIP3    H158289   4.375   3.773   0.694  1.9354 -1.5890 -2.4546
12266TIP3    H258290   4.283   3.655   0.722  0.3275 -0.3941 -2.5636
12267TIP3   OH258291   3.424   4.969  16.190 -0.0167  0.3734 -0.0524
12267TIP3    H158292   3.481   5.044  16.208 -1.9307  2.3489 -1.6723
12267TIP3    H258293   3.351   4.980  16.250  0.0032 -0.6190  0.1669
12268TIP3   OH258294   6.394   4.730   4.140  0.7010 -0.3901 -0.4213
12268TIP3    H158295   6.367   4.681   4.062 -0.3879 -1.0019  0.3122
12268TIP3    H258296   6.424   4.663   4.201  0.3115 -0.0400  0.1639
12269TIP3   OH258297   3.763   6.659  15.054  0.0569  0.2233  0.7891
12269TIP3    H158298   3.754   6.733  15.114  2.2759  2.1737 -1.0708
12269TIP3    H258299   3.674   6.642  15.023 -0.5589  1.9444  1.4863
12270TIP3   OH258300   1.918   2.594  10.217  0.0826 -0.0967  0.0413
12270TIP3    H158301   1.918   2.687  10.194 -0.6963  0.2715  1.4165
12270TIP3    H258302   1.825   2.571  10.222  0.2099 -0.3450  1.8892
12271TIP3   OH258303   6.630   5.778  11.080 -0.4603  0.4861  0.1245
12271TIP3    H158304   6.695   5.722  11.122  0.7539  1.8509  0.1613
12271TIP3    H258305   6.626   5.747  10.990 -0.6467 -0.3522  0.4102
12272TIP3   OH258306   5.036   3.235   3.394  0.5153  0.1456  0.0505
12272TIP3    H158307   4.981   3.218   3.317 -0.2697 -1.4053  0.9114
12272TIP3    H258308   4.994   3.309   3.437 -1.6703 -1.7186  1.3133
12273TIP3   OH258309   6.786   1.404  12.170 -0.4207  0.2512 -0.4363
12273TIP3    H158310   6.786   1.493  12.205 -0.5997 -0.4393  1.4166
12273TIP3    H258311   6.857   1.404  12.105 -0.2010  1.6416 -0.2268
12274TIP3   OH258312   5.760   2.383  15.996 -0.0271 -0.3491 -0.2193
12274TIP3    H158313   5.833   2.421  15.947 -0.4539  0.8652  0.0549
12274TIP3    H258314   5.745   2.298  15.955  2.7383 -1.4996  0.8977
12275TIP3   OH258315   1.740   5.847  12.115  0.3473 -0.5275  0.1596
12275TIP3    H158316   1.674   5.798  12.066  1.7489  0.1450 -2.6414
12275TIP3    H258317   1.821   5.800  12.100  1.3927  1.4838 -1.0046
12276TIP3   OH258318   3.892   0.884   3.806 -0.2030  0.9834  0.1898
12276TIP3    H158319   3.983   0.890   3.778 -0.9049  0.3578 -2.5055
12276TIP3    H258320   3.882   0.955   3.870  1.5640  2.6596 -1.2653
12277TIP3   OH258321   5.595   1.666  11.235  0.1231 -0.1854 -0.4517
12277TIP3    H158322   5.655   1.595  11.257  0.7823  0.8876  1.4077
12277TIP3    H258323   5.639   1.715  11.167  1.5485  0.7459  1.0762
12278TIP3   OH258324   1.571   3.294   4.612  0.0717 -0.1124 -0.3244
12278TIP3    H158325   1.595   3.275   4.703  1.1694 -1.7387 -0.9004
12278TIP3    H258326   1.476   3.292   4.611  0.0548 -0.9145  0.6442
12279TIP3   OH258327   6.579   2.627  15.871  0.2689  0.7298  0.0083
12279TIP3    H158328   6.635   2.562  15.913  0.3677  1.8577  1.7173
12279TIP3    H258329   6.495   2.581  15.859  0.2615  0.3246  1.4021
12280TIP3   OH258330   2.185   3.233  15.801 -0.8465  0.3305  0.1026
12280TIP3    H158331   2.258   3.269  15.851 -1.7761  1.7447  0.4877
12280TIP3    H258332   2.226   3.177  15.735  0.4409 -1.1578  2.0577
12281TIP3   OH258333   1.586   3.573  13.594  0.1717  0.0005 -0.4014
12281TIP3    H158334   1.647   3.502  13.613  0.1173  0.0713  0.0599
12281TIP3    H258335   1.554   3.555  13.506  0.6307 -0.2034 -0.5290
12282TIP3   OH258336   2.786   3.463   6.769  0.0008  0.0098 -0.3013
12282TIP3    H158337   2.814   3.537   6.822 -1.4564 -0.9648  1.9676
12282TIP3    H258338   2.838   3.389   6.801  0.7120 -0.1906 -1.8298
12283TIP3   OH258339   0.219   6.768  12.058 -0.3900  0.2454 -0.0476
12283TIP3    H158340   0.197   6.861  12.051 -1.1857  0.0081 -0.9849
12283TIP3    H258341   0.146   6.729  12.106 -0.7659 -0.1247 -0.9047
12284TIP3   OH258342   4.738   2.239  12.441 -0.1468  0.2943  0.4108
12284TIP3    H158343   4.789   2.318  12.460  0.5364 -0.2126  0.7418
12284TIP3    H258344   4.805   2.172  12.423 -0.7231 -0.1147 -0.2392
12285TIP3   OH258345   0.910   0.689  15.963  0.1651  0.4378  0.3289
12285TIP3    H158346   0.904   0.715  15.872 -0.1682  0.0445  0.2324
12285TIP3    H258347   0.982   0.626  15.965 -0.4415 -0.2785  0.1536
12286TIP3   OH258348   4.036   0.150  14.991 -0.2184 -0.2172  0.1112
12286TIP3    H158349   4.128   0.178  14.992 -0.6458  1.4001 -1.3106
12286TIP3    H258350   4.040   0.056  14.975  1.1816  0.1956 -2.4838
12287TIP3   OH258351   3.662   3.090   0.064 -0.7506 -0.5458  0.5725
12287TIP3    H158352   3.600   3.143   0.015  0.7172  1.1739  0.4390
12287TIP3    H258353   3.718   3.050  -0.002  0.1569  0.3869  0.7524
12288TIP3   OH258354   5.944   5.916  13.921  0.0061 -0.4246  0.4400
12288TIP3    H158355   5.993   5.890  13.999  1.2136 -0.0045 -0.1407
12288TIP3    H258356   5.852   5.903  13.944  0.4219 -2.5732  1.0911
12289TIP3   OH258357   2.462   1.839   3.258 -0.1142 -0.1245 -0.1641
12289TIP3    H158358   2.381   1.852   3.308 -0.6232  0.6744 -1.1730
12289TIP3    H258359   2.518   1.912   3.284  0.7949 -1.3050  1.4281
12290TIP3   OH258360   2.173   6.381  17.026 -0.2043 -0.1301  0.0577
12290TIP3    H158361   2.246   6.367  16.966  0.1278 -1.9089  0.8037
12290TIP3    H258362   2.210   6.435  17.096 -0.9393  3.1020 -1.8674
12291TIP3   OH258363   3.905   3.669  14.390  0.1640  0.3465  0.0951
12291TIP3    H158364   3.821   3.626  14.375 -0.5200  2.0684 -1.3951
12291TIP3    H258365   3.883   3.761  14.401  1.8377  0.7805  0.0065
12292TIP3   OH258366   5.222   5.043   1.076 -0.3238 -0.1663  0.3375
12292TIP3    H158367   5.170   5.068   1.153 -0.8973  2.2641 -0.7284
12292TIP3    H258368   5.159   5.037   1.005  0.5956  1.4557 -0.6981
12293TIP3   OH258369   0.229   0.074   3.649  0.7088  0.0638  0.3249
12293TIP3    H158370   0.200   0.025   3.726 -0.4374 -2.6488 -1.6971
12293TIP3    H258371   0.149   0.093   3.601  1.2561  3.0137  0.4221
12294TIP3   OH258372   4.384   5.406  12.881  0.0771 -0.4667 -0.2798
12294TIP3    H158373   4.418   5.336  12.825  1.4609 -1.3977  1.6218
12294TIP3    H258374   4.291   5.386  12.891 -0.2842 -0.1000 -2.4259
12295TIP3   OH258375   0.948   1.420   3.300 -0.7481  0.0071 -0.1159
12295TIP3    H158376   0.992   1.336   3.314 -0.3669  0.2894  0.4223
12295TIP3    H258377   0.994   1.481   3.358 -0.8253  0.6562 -0.7294
12296TIP3   OH258378   5.288   1.628   5.464  0.4614  0.2013 -0.2328
12296TIP3    H158379   5.302   1.723   5.469  2.0502 -0.0413  0.9589
12296TIP3    H258380   5.195   1.618   5.445 -0.8640  2.0226  3.9763
12297TIP3   OH258381   1.004   3.431  14.507 -0.5026  0.4184 -0.3433
12297TIP3    H158382   1.046   3.517  14.512  0.0878  0.0919  0.6484
12297TIP3    H258383   0.913   3.449  14.487 -0.3034  1.2530 -0.5113
12298TIP3   OH258384   6.700   3.688   2.244 -0.0251  0.6051 -0.1206
12298TIP3    H158385   6.714   3.635   2.322 -0.6612  0.4986 -0.0802
12298TIP3    H258386   6.754   3.766   2.258  1.2046 -0.1672 -0.3363
12299TIP3   OH258387   4.640   5.687   0.033 -0.5714 -0.1863  0.3894
12299TIP3    H158388   4.553   5.724   0.049 -0.2125  0.5772  0.6171
12299TIP3    H258389   4.660   5.637   0.111 -1.6769 -2.1260 -0.5144
12300TIP3   OH258390   2.694   5.008   1.880 -0.2515  0.4017  0.5038
12300TIP3    H158391   2.704   4.913   1.878  2.5378  0.6229 -0.4073
12300TIP3    H258392   2.744   5.036   1.957  1.1716  1.2790 -0.7030
12301TIP3   OH258393   2.359   2.868   3.697  0.4071 -0.1640  0.0308
12301TIP3    H158394   2.357   2.853   3.791  2.0722  2.2760  0.5640
12301TIP3    H258395   2.277   2.914   3.679 -0.0333 -0.8640  0.2461
12302TIP3   OH258396   5.389   0.253  13.484 -0.0593  0.6066  0.7342
12302TIP3    H158397   5.367   0.160  13.470 -2.1491  0.6449  3.0337
12302TIP3    H258398   5.389   0.291  13.396  2.8315 -1.8694 -0.5226
12303TIP3   OH258399   5.309   6.845  15.934 -0.1034  0.1716 -0.1776
12303TIP3    H158400   5.264   6.900  15.999  1.2330  1.8353 -0.6029
12303TIP3    H258401   5.292   6.755  15.964 -1.8681  0.7838  0.8695
12304TIP3   OH258402   0.304   3.437  15.916 -0.0260 -0.1779  0.3002
12304TIP3    H158403   0.284   3.348  15.944 -0.8937 -0.6831 -1.6826
12304TIP3    H258404   0.223   3.468  15.876  1.1837  0.2279 -2.0173
12305TIP3   OH258405   6.655   1.285  15.297  0.3823 -0.2541  0.1832
12305TIP3    H158406   6.591   1.339  15.344  0.8872  0.7378 -0.2573
12305TIP3    H258407   6.719   1.260  15.364 -0.8845 -2.0020  0.8400
12306TIP3   OH258408   1.082   0.199  12.982 -0.2619  0.2419  0.2372
12306TIP3    H158409   1.172   0.231  12.979 -0.2723  0.2280 -0.5718
12306TIP3    H258410   1.065   0.182  13.075  0.5258  0.3618  0.4093
12307TIP3   OH258411   3.364   1.494   4.292  0.7836 -0.0981  0.4187
12307TIP3    H158412   3.450   1.478   4.329  1.2540  2.2562  0.5004
12307TIP3    H258413   3.308   1.513   4.368 -0.3491 -3.3416  0.5530
12308TIP3   OH258414   1.357   4.235   4.265  0.3164  0.0354 -0.2885
12308TIP3    H158415   1.448   4.259   4.280 -0.1638  1.5895  0.3907
12308TIP3    H258416   1.307   4.295   4.321 -1.0785 -1.5620  0.2585
12309TIP3   OH258417   5.326   6.312  13.975  0.3280  0.1028 -0.3154
12309TIP3    H158418   5.394   6.281  14.035 -1.2407  1.0033  2.0681
12309TIP3    H258419   5.244   6.284  14.016 -0.7948 -0.4209 -2.7902
12310TIP3   OH258420   2.112   5.433   2.482  0.3719  0.1153 -0.1702
12310TIP3    H158421   2.055   5.356   2.484  1.0762 -0.4286 -0.6669
12310TIP3    H258422   2.195   5.401   2.447  0.6992  1.0891 -0.3164
12311TIP3   OH258423   2.194   1.535  14.147  0.3563 -0.2542 -0.7093
12311TIP3    H158424   2.174   1.626  14.126  0.4909  0.2605  1.1830
12311TIP3    H258425   2.111   1.489  14.135  0.9166 -0.5867 -4.6230
12312TIP3   OH258426   4.039   0.958   4.058 -0.3525 -0.0693  0.0785
12312TIP3    H158427   4.016   0.865   4.063 -1.3749  0.2113  0.9819
12312TIP3    H258428   3.963   1.003   4.095  0.7623  1.0402  1.0916
12313TIP3   OH258429   2.636   0.808  16.588  0.0383  0.0252  0.5244
12313TIP3    H158430   2.667   0.718  16.583  0.5688  0.2814 -2.1264
12313TIP3    H258431   2.541   0.800  16.598 -0.1188 -0.9094 -1.2613
12314TIP3   OH258432   0.625   5.547   0.091 -0.3154 -0.2089  0.2133
12314TIP3    H158433   0.707   5.557   0.043 -0.8761  2.3007 -0.3918
12314TIP3    H258434   0.558   5.541   0.022 -0.7927 -0.3337  0.6806
12315TIP3   OH258435   1.202   1.761  17.067 -0.1241 -0.1640  0.3455
12315TIP3    H158436   1.180   1.795  16.981  0.6606  1.3373  0.7101
12315TIP3    H258437   1.272   1.818  17.099  0.1678 -1.1832  1.6424
12316TIP3   OH258438   4.977   1.086  10.406 -0.0063 -0.4129  0.0234
12316TIP3    H158439   4.963   1.138  10.485  1.0506  0.7488 -0.5095
12316TIP3    H258440   5.032   1.013  10.434  1.5664  0.7614  0.1351
12317TIP3   OH258441   2.683   6.132  12.864  0.7225  0.4139  1.2530
12317TIP3    H158442   2.650   6.196  12.802 -0.3323 -2.3832 -1.3205
12317TIP3    H258443   2.778   6.136  12.854  0.7436  2.0256  1.7436
12318TIP3   OH258444   5.793   3.879   1.225  0.0433 -0.0464 -0.1985
12318TIP3    H158445   5.723   3.828   1.184 -1.0883  0.1962  1.3204
12318TIP3    H258446   5.747   3.945   1.277  1.4553  1.3661 -0.6727
12319TIP3   OH258447   3.583   3.133  14.195  0.1789 -0.3625 -0.5924
12319TIP3    H158448   3.592   3.163  14.285  0.6104 -0.7368 -0.5099
12319TIP3    H258449   3.574   3.038  14.201 -0.0073 -0.3686 -0.9286
12320TIP3   OH258450   2.996   3.835  16.862 -0.0092  0.2389 -0.5434
12320TIP3    H158451   3.032   3.770  16.802 -0.5839  0.2225 -0.8720
12320TIP3    H258452   2.905   3.810  16.874 -0.1273  0.7400 -0.3404
12321TIP3   OH258453   4.139   2.553  16.043  0.4734  0.1469  0.2747
12321TIP3    H158454   4.213   2.573  15.986 -0.3516  1.7871 -0.2880
12321TIP3    H258455   4.063   2.586  15.995 -0.4847 -0.3494  1.4108
12322TIP3   OH258456   3.288   5.383   0.914 -0.2789 -0.0604 -0.4664
12322TIP3    H158457   3.355   5.322   0.883 -0.1909  0.2274 -0.8572
12322TIP3    H258458   3.240   5.407   0.835  0.8255  1.7563 -0.6440
12323TIP3   OH258459   6.167   2.274  14.131  0.4365  0.1358  0.4550
12323TIP3    H158460   6.124   2.269  14.217  1.5596  0.5685  1.0673
12323TIP3    H258461   6.107   2.229  14.072  0.1953 -1.2458  1.6838
12324TIP3   OH258462   0.963   0.424  11.195  0.6628 -0.3667 -0.4952
12324TIP3    H158463   1.024   0.353  11.176  0.1560 -0.9738  0.1039
12324TIP3    H258464   0.917   0.438  11.112  2.1064  0.6172 -1.1766
12325TIP3   OH258465   4.360   0.341  14.184  0.6377 -0.3534 -0.6086
12325TIP3    H158466   4.292   0.330  14.118 -1.2171 -1.9575  1.4473
12325TIP3    H258467   4.408   0.258  14.184 -0.8558 -1.3096  1.5285
12326TIP3   OH258468   3.700   1.187   2.961 -0.2741 -0.4267 -0.2053
12326TIP3    H158469   3.629   1.245   2.988 -0.7501 -1.2073  0.2522
12326TIP3    H258470   3.679   1.102   3.001  1.9174 -0.2168  1.5364
12327TIP3   OH258471   4.562   4.568   4.595  0.3441 -0.0365 -0.0135
12327TIP3    H158472   4.514   4.624   4.656  0.3630 -1.4940  1.3883
12327TIP3    H258473   4.518   4.582   4.511 -1.3144  0.1325  0.8354
12328TIP3   OH258474   1.659   4.660  12.063 -0.3518 -0.0568  0.7147
12328TIP3    H158475   1.731   4.675  12.002 -2.3727 -0.2091 -1.8602
12328TIP3    H258476   1.586   4.712  12.028 -1.8907 -0.9095  2.4700
12329TIP3   OH258477   2.108   6.318   0.382  0.4907 -0.6643 -0.2620
12329TIP3    H158478   2.082   6.410   0.381  0.9124 -0.5067  0.9417
12329TIP3    H258479   2.169   6.309   0.309 -1.3149 -0.5710 -1.8706
12330TIP3   OH258480   6.511   0.822   5.514  0.6019  0.5757  0.0806
12330TIP3    H158481   6.579   0.758   5.532  1.9005  1.8118 -0.2033
12330TIP3    H258482   6.524   0.889   5.582  0.7258  1.6076 -0.9423
12331TIP3   OH258483   2.403   0.366   5.470 -0.1826 -0.5301 -0.1465
12331TIP3    H158484   2.441   0.412   5.395  1.2582  0.5327  1.1597
12331TIP3    H258485   2.343   0.429   5.509  0.8765 -0.1577  0.9452
12332TIP3   OH258486   1.199   0.959  15.352 -0.1564  0.5534 -0.0280
12332TIP3    H158487   1.130   0.998  15.406  0.7344  0.8749  0.9084
12332TIP3    H258488   1.207   1.018  15.277 -0.8782  0.5189 -0.1448
12333TIP3   OH258489   3.708   3.513   2.469 -0.5838  0.0485  0.2118
12333TIP3    H158490   3.618   3.482   2.457 -0.0589 -1.1869 -0.6185
12333TIP3    H258491   3.714   3.590   2.411 -1.0060 -0.0446  0.0376
12334TIP3   OH258492   1.638   6.318   2.306  0.3579 -0.1976 -0.6418
12334TIP3    H158493   1.590   6.239   2.281 -0.5561  0.0810  0.1823
12334TIP3    H258494   1.647   6.367   2.224 -0.4690 -0.4182 -0.8795
12335TIP3   OH258495   0.167   3.093   3.376  0.0615 -0.2256 -0.2952
12335TIP3    H158496   0.099   3.056   3.320 -1.3586 -0.1444  1.2720
12335TIP3    H258497   0.145   3.186   3.383 -0.3912 -0.4068  1.1306
12336TIP3   OH258498   1.326   6.416  11.400  0.0035  0.2911 -0.2683
12336TIP3    H158499   1.380   6.464  11.463  0.4300  1.6982 -1.6524
12336TIP3    H258500   1.348   6.454  11.315 -0.0555 -2.0064 -1.3944
12337TIP3   OH258501   6.030   5.303   5.224 -0.6451 -0.0671  0.3888
12337TIP3    H158502   5.963   5.281   5.159 -0.5760  1.3164 -0.1963
12337TIP3    H258503   6.058   5.391   5.200  2.3821 -1.0662 -0.2618
12338TIP3   OH258504   4.320   0.821   0.252 -0.2290  0.2962 -0.8260
12338TIP3    H158505   4.247   0.857   0.302  2.6272  2.3575  2.3828
12338TIP3    H258506   4.342   0.889   0.188 -0.7853 -0.1382 -1.4969
12339TIP3   OH258507   1.172   0.471  14.673 -0.0857 -0.7886  0.3161
12339TIP3    H158508   1.234   0.542  14.687 -0.6166  0.0227 -1.2934
12339TIP3    H258509   1.226   0.396  14.649  0.5646 -1.2824  3.0120
12340TIP3   OH258510   1.836   2.589  14.076 -0.2160 -0.0232  0.0076
12340TIP3    H158511   1.838   2.498  14.105 -1.4572 -0.0274  0.1148
12340TIP3    H258512   1.909   2.630  14.122 -0.2654 -0.7343  0.7390
12341TIP3   OH258513   2.374   5.130   1.525 -0.0930 -0.1679 -0.0218
12341TIP3    H158514   2.280   5.121   1.512 -0.5498  2.9506  0.4264
12341TIP3    H258515   2.386   5.117   1.619 -0.3795  1.1304  0.2144
12342TIP3   OH258516   2.098   0.890  12.155 -0.5699  0.0505 -0.4725
12342TIP3    H158517   2.027   0.897  12.218  0.3135 -0.3013  0.5912
12342TIP3    H258518   2.129   0.800  12.163 -0.6736 -0.1145 -1.6790
12343TIP3   OH258519   1.795   4.863  12.969  0.0910 -0.2528 -0.0492
12343TIP3    H158520   1.794   4.870  12.874 -1.7667 -0.0616 -0.0616
12343TIP3    H258521   1.709   4.828  12.991  0.3378  0.0903  1.5857
12344TIP3   OH258522   5.359   0.832   5.152  0.4026 -0.0963  0.0627
12344TIP3    H158523   5.445   0.857   5.185  0.3940 -1.7431  1.4539
12344TIP3    H258524   5.300   0.849   5.226 -0.3768  0.3594 -0.6445
12345TIP3   OH258525   2.928   0.926  16.099 -0.2271 -0.3217  0.2525
12345TIP3    H158526   3.010   0.886  16.069  0.7089  1.7628 -0.1431
12345TIP3    H258527   2.869   0.852  16.111  1.4293 -1.8239 -0.3082
12346TIP3   OH258528   5.296   0.757   2.041 -0.3190  0.1062  0.1156
12346TIP3    H158529   5.272   0.679   1.991 -1.5633  0.4540  0.1336
12346TIP3    H258530   5.312   0.725   2.129 -2.1769  0.0057  0.4651
12347TIP3   OH258531   2.377   1.240  12.536 -0.3763  0.0649  0.9562
12347TIP3    H158532   2.287   1.211  12.548  0.0434 -2.2447 -0.9794
12347TIP3    H258533   2.431   1.168  12.569  0.7145 -0.0994 -1.0098
12348TIP3   OH258534   5.363   3.884  13.525  0.7410 -0.1751  0.1244
12348TIP3    H158535   5.407   3.902  13.442 -0.0235 -0.5355 -0.3606
12348TIP3    H258536   5.434   3.857  13.584  0.9350 -3.0380 -1.2889
12349TIP3   OH258537   6.466   4.112  16.531 -0.1755  0.3599  0.1669
12349TIP3    H158538   6.492   4.028  16.494  0.8921  1.1447 -0.9567
12349TIP3    H258539   6.505   4.112  16.619  0.4011 -0.0477 -0.0785
12350TIP3   OH258540   5.384   1.242  14.460  0.4945  0.0297 -0.6890
12350TIP3    H158541   5.466   1.280  14.493  1.0560 -1.0834 -0.7540
12350TIP3    H258542   5.411   1.187  14.387 -0.1342 -1.4355  0.1492
12351TIP3   OH258543   2.910   6.116   0.011 -0.1864 -0.2774 -0.4679
12351TIP3    H158544   2.873   6.187   0.065 -0.7110 -0.2208 -0.8970
12351TIP3    H258545   2.985   6.085   0.062 -0.5344 -0.0696  0.1957
12352TIP3   OH258546   2.179   1.533  16.360 -1.2418 -0.2225  0.2765
12352TIP3    H158547   2.180   1.532  16.264  0.6572 -1.4653  0.2557
12352TIP3    H258548   2.111   1.469  16.383 -1.2539 -0.4087 -0.2549
12353TIP3   OH258549   5.728   6.059   1.201  0.3732  0.2004 -0.8081
12353TIP3    H158550   5.773   6.047   1.285 -0.6677  1.7357  0.0166
12353TIP3    H258551   5.797   6.085   1.140  1.2406 -1.5188 -0.6042
12354TIP3   OH258552   6.769   4.352   5.118 -0.2980 -0.1688 -0.4517
12354TIP3    H158553   6.708   4.318   5.184  0.4064  0.0839  0.3513
12354TIP3    H258554   6.761   4.291   5.044  0.0516 -1.3919  0.4815
12355TIP3   OH258555   5.066   2.546  14.098 -0.7679  0.2577 -0.1823
12355TIP3    H158556   5.011   2.609  14.052 -0.7918  1.5141  1.4680
12355TIP3    H258557   5.111   2.497  14.029 -2.8633  0.1604 -1.5524
12356TIP3   OH258558   3.963   6.258   0.994 -0.3203  0.8625 -0.3613
12356TIP3    H158559   3.898   6.189   0.994  0.1761  0.3889  0.3266
12356TIP3    H258560   3.912   6.339   0.998 -0.8970  0.5422 -0.9988
12357TIP3   OH258561   2.805   0.139   5.393 -0.0015 -0.6178 -0.4326
12357TIP3    H158562   2.867   0.210   5.413 -0.5914 -0.3907  0.6618
12357TIP3    H258563   2.724   0.165   5.438  0.3718 -3.0068  1.8167
12358TIP3   OH258564   2.734   5.356  11.616 -0.1341  0.0817  0.1998
12358TIP3    H158565   2.829   5.354  11.623 -0.2585  0.1074  2.8297
12358TIP3    H258566   2.713   5.447  11.594  0.4486 -0.0807 -1.1068
12359TIP3   OH258567   4.837   6.659  11.695  0.3686  0.6775  0.0883
12359TIP3    H158568   4.892   6.587  11.727  0.6949 -0.2360 -2.2926
12359TIP3    H258569   4.760   6.615  11.660 -0.0826  1.6304 -0.1343
12360TIP3   OH258570   1.737   5.826  13.498  0.4201  0.1468 -0.7572
12360TIP3    H158571   1.737   5.874  13.415  0.6325  0.1117 -0.7783
12360TIP3    H258572   1.829   5.806  13.514  0.2221 -1.6284 -1.5466
12361TIP3   OH258573   5.063   2.972   1.950  0.3824  0.2969  0.4192
12361TIP3    H158574   4.976   2.980   1.912  0.7031 -0.1350 -0.4183
12361TIP3    H258575   5.123   2.989   1.878  1.0289 -2.1690  0.2813
12362TIP3   OH258576   6.132   0.040   1.681  0.0041  0.4504  0.0393
12362TIP3    H158577   6.167   0.041   1.770  0.4193  1.2357 -0.1223
12362TIP3    H258578   6.037   0.040   1.693  0.0527 -0.3631  0.4802
12363TIP3   OH258579   4.254   2.385  13.735 -0.0813 -0.4862 -0.6863
12363TIP3    H158580   4.172   2.340  13.714 -0.7446 -0.3396  1.3508
12363TIP3    H258581   4.226   2.464  13.781  1.1927 -0.3604 -0.1041
12364TIP3   OH258582   5.692   3.214  15.444  0.4715 -0.4038  0.0744
12364TIP3    H158583   5.603   3.179  15.443  0.8688 -1.6352 -2.3562
12364TIP3    H258584   5.682   3.307  15.425 -0.3069 -0.7185 -1.2154
12365TIP3   OH258585   1.704   4.522   3.180 -0.2775 -0.2898 -0.1616
12365TIP3    H158586   1.620   4.507   3.137 -0.4758 -2.6057  0.8960
12365TIP3    H258587   1.730   4.610   3.152 -2.1152 -0.2739 -2.0309
12366TIP3   OH258588   6.551   0.601   1.315  0.3073  0.0333  1.2402
12366TIP3    H158589   6.554   0.628   1.407 -0.5101  1.1398  0.9614
12366TIP3    H258590   6.464   0.562   1.304  0.3396  0.0569  0.8943
12367TIP3   OH258591   2.544   2.157  13.051 -0.2279  0.4170  0.1667
12367TIP3    H158592   2.579   2.205  13.127  3.0933 -0.9762 -0.3222
12367TIP3    H258593   2.487   2.220  13.008 -0.3281  2.0589  2.4990
12368TIP3   OH258594   4.150   0.385  11.416 -0.0704  0.3653  0.1094
12368TIP3    H158595   4.064   0.349  11.440 -1.4667  0.8679 -3.5595
12368TIP3    H258596   4.207   0.308  11.412 -1.6691 -0.8433 -2.2038
12369TIP3   OH258597   4.889   5.160  12.263  0.4727  0.6329  0.5690
12369TIP3    H158598   4.934   5.242  12.284 -0.0671  1.1270 -0.1725
12369TIP3    H258599   4.826   5.148  12.334  1.6576 -0.0001  1.5499
12370TIP3   OH258600   4.984   3.424   4.013 -0.0986  0.1390 -0.0322
12370TIP3    H158601   4.899   3.461   3.989 -0.1564 -0.4652 -0.8060
12370TIP3    H258602   5.044   3.458   3.947 -0.0154 -0.5416 -0.3149
12371TIP3   OH258603   2.480   3.566   0.142  0.3020 -0.5172 -0.2234
12371TIP3    H158604   2.428   3.578   0.063 -0.0481  1.2738  0.2398
12371TIP3    H258605   2.414   3.557   0.212  0.5951 -0.0252  0.1239
12372TIP3   OH258606   2.522   1.088   3.973  0.1231 -0.0106 -0.2429
12372TIP3    H158607   2.609   1.127   3.962  1.2580 -1.9785  1.1608
12372TIP3    H258608   2.498   1.107   4.064 -0.0052 -1.1367 -0.0212
12373TIP3   OH258609   2.129   0.282  11.643 -0.2511 -0.5166 -0.0672
12373TIP3    H158610   2.135   0.356  11.582  0.2818 -0.0161  0.5635
12373TIP3    H258611   2.165   0.208  11.595 -1.7029 -0.6005 -1.0548
12374TIP3   OH258612   0.359   3.630  14.587 -0.0565  0.2300 -0.1340
12374TIP3    H158613   0.361   3.553  14.530 -0.4573  0.8888 -1.0843
12374TIP3    H258614   0.451   3.655  14.596  0.1454 -0.8060  0.8406
12375TIP3   OH258615   5.207   3.398  15.104 -0.3094 -0.2266  0.2734
12375TIP3    H158616   5.298   3.428  15.109  0.0125 -1.3266  2.1242
12375TIP3    H258617   5.175   3.432  15.021  1.1768  1.8521  0.4771
12376TIP3   OH258618   3.347   2.692   5.920  0.4461  0.1807 -0.4627
12376TIP3    H158619   3.325   2.702   6.013  2.0294 -0.6351  0.0264
12376TIP3    H258620   3.411   2.621   5.917  0.2816  0.0519 -2.2117
12377TIP3   OH258621   4.552   1.266   3.716 -0.2032  0.5727 -0.1179
12377TIP3    H158622   4.577   1.306   3.633 -0.8818  1.9773  0.3223
12377TIP3    H258623   4.457   1.274   3.719 -0.3093 -0.6075  0.2414
12378TIP3   OH258624   6.645   4.411  13.234 -0.1957 -0.0059  0.6067
12378TIP3    H158625   6.605   4.425  13.319  0.1198  3.5747  0.3090
12378TIP3    H258626   6.739   4.420  13.249  0.0316 -1.3152  0.1485
12379TIP3   OH258627   2.223   1.277   1.477  0.0324  0.4023 -0.3287
12379TIP3    H158628   2.129   1.286   1.462 -0.3136  1.4093  2.0021
12379TIP3    H258629   2.241   1.184   1.463 -1.4780  0.0433 -0.0317
12380TIP3   OH258630   6.550   4.483   0.524 -0.1524 -0.2169 -0.0721
12380TIP3    H158631   6.521   4.557   0.471 -0.8898 -0.1390  0.4308
12380TIP3    H258632   6.593   4.522   0.600 -0.5944 -0.2903  0.2239
12381TIP3   OH258633   1.864   2.969  15.042 -0.3510 -0.7095 -0.1549
12381TIP3    H158634   1.836   3.012  15.123  0.3587  1.5495 -1.0302
12381TIP3    H258635   1.859   2.875  15.062  0.3003 -0.2384  2.6686
12382TIP3   OH258636   3.489   0.423   0.904  0.1075  0.5143 -0.2825
12382TIP3    H158637   3.410   0.438   0.956  0.6464  2.9689 -0.0296
12382TIP3    H258638   3.521   0.338   0.932 -0.1442  1.3082  2.7407
12383TIP3   OH258639   1.176   2.368  11.079 -0.3351 -1.4096  0.3657
12383TIP3    H158640   1.166   2.314  11.000 -0.5249  0.6791 -1.1266
12383TIP3    H258641   1.197   2.455  11.045  0.4502 -0.6398  2.6895
12384TIP3   OH258642   1.364   0.663  16.245 -0.6171 -0.4886 -0.4985
12384TIP3    H158643   1.353   0.705  16.330 -0.9439 -1.8607  0.1771
12384TIP3    H258644   1.355   0.733  16.181  0.4798  0.7326  0.6169
12385TIP3   OH258645   1.515   0.392  11.376  0.3729  0.1811 -0.2752
12385TIP3    H158646   1.460   0.470  11.386 -1.9243 -1.4319  0.4831
12385TIP3    H258647   1.541   0.369  11.465  0.0760 -0.5349 -0.3619
12386TIP3   OH258648   0.401   3.342   2.473  0.4552 -0.8094  0.3357
12386TIP3    H158649   0.393   3.258   2.427  0.8250 -2.1821  2.6078
12386TIP3    H258650   0.346   3.332   2.551  0.2763  1.1916  0.5018
12387TIP3   OH258651   5.483   6.656   0.627  0.2064  0.0472  0.1032
12387TIP3    H158652   5.513   6.624   0.542 -0.4461  1.1948 -0.5957
12387TIP3    H258653   5.537   6.734   0.643  0.9960 -0.7096  1.2176
12388TIP3   OH258654   0.307   4.128  13.672 -0.3441  0.1133  0.1269
12388TIP3    H158655   0.364   4.180  13.729 -1.4095  0.2856  1.0627
12388TIP3    H258656   0.304   4.176  13.590  2.9934 -1.2223 -0.9773
12389TIP3   OH258657   4.575   3.408  10.553 -0.2564 -0.3875 -0.0150
12389TIP3    H158658   4.657   3.369  10.585 -0.7589  0.8936  3.1680
12389TIP3    H258659   4.603   3.473  10.489  0.9093 -2.2360 -1.5196
12390TIP3   OH258660   3.333   6.634  13.252 -0.0651  0.5991  0.1672
12390TIP3    H158661   3.317   6.590  13.169  0.9181  1.0790 -0.2934
12390TIP3    H258662   3.341   6.727  13.229 -2.6889  1.1764  1.1878
12391TIP3   OH258663   5.618   6.572  12.828 -0.3125 -0.4226  0.3834
12391TIP3    H158664   5.547   6.536  12.777 -0.6493  0.4992  0.1798
12391TIP3    H258665   5.597   6.549  12.919  0.5641 -2.5241  0.1107
12392TIP3   OH258666   3.295   1.417  12.059  0.6193 -0.0669 -0.1557
12392TIP3    H158667   3.304   1.464  12.142  1.6691 -1.5851  0.6334
12392TIP3    H258668   3.206   1.382  12.061  0.1362  1.0997 -0.3551
12393TIP3   OH258669   3.994   1.400  15.336  0.2102  0.2415 -0.4773
12393TIP3    H158670   3.933   1.364  15.400  0.3135  0.9053  0.0032
12393TIP3    H258671   3.965   1.365  15.252  0.7504 -1.5746  0.0525
12394TIP3   OH258672   4.341   0.540   6.742 -0.9405  0.0005  0.7453
12394TIP3    H158673   4.361   0.452   6.710  1.6898  0.2625  1.3830
12394TIP3    H258674   4.279   0.576   6.679  0.2479 -1.2532 -1.2515
12395TIP3   OH258675   6.109   5.825  12.968  0.5442 -0.6937  0.1413
12395TIP3    H158676   6.055   5.876  13.028 -0.0016 -2.2372  1.0249
12395TIP3    H258677   6.145   5.754  13.022  1.6553 -0.9845 -0.9277
12396TIP3   OH258678   2.148   5.388   2.810  0.0044  0.8065  0.6182
12396TIP3    H158679   2.143   5.293   2.813 -3.3345  0.7805 -0.8762
12396TIP3    H258680   2.123   5.410   2.720 -0.1933  3.1333  1.1810
12397TIP3   OH258681   0.056   0.575  10.476 -0.8167 -0.0464 -0.5572
12397TIP3    H158682   0.003   0.608  10.548  0.9725 -2.3622  1.9951
12397TIP3    H258683  -0.002   0.515  10.428 -2.1911  1.9532 -1.5265
12398TIP3   OH258684   2.572   4.747  12.819  0.4483 -0.2020 -0.0133
12398TIP3    H158685   2.530   4.733  12.734 -1.6330 -1.8143  1.1930
12398TIP3    H258686   2.542   4.675  12.873 -0.4450  2.1223  2.8747
12399TIP3   OH258687   5.982   4.288  13.431  0.3986 -0.1405  0.3485
12399TIP3    H158688   6.041   4.351  13.473  0.4351 -1.2382  2.0028
12399TIP3    H258689   5.937   4.245  13.503  0.8227 -2.4703 -0.6864
12400TIP3   OH258690   4.065   6.664   3.424 -0.3654  0.2920 -0.3924
12400TIP3    H158691   4.078   6.578   3.386  0.1455 -0.6500  1.7555
12400TIP3    H258692   3.981   6.657   3.470 -0.2864  0.9153 -0.1451
12401TIP3   OH258693   0.456   5.543  13.632  0.2755  0.2238  0.4506
12401TIP3    H158694   0.424   5.628  13.660  0.0879 -0.3423  2.0550
12401TIP3    H258695   0.379   5.497  13.598  0.5802  1.0652 -1.4821
12402TIP3   OH258696   4.839   1.746   2.708 -0.3403  0.0558  0.2817
12402TIP3    H158697   4.851   1.728   2.801 -0.6865 -1.6642  0.0293
12402TIP3    H258698   4.745   1.740   2.694 -0.2396 -0.2595 -0.2894
12403TIP3   OH258699   2.653   2.708  13.818 -0.2340  0.0660  0.1444
12403TIP3    H158700   2.643   2.795  13.859 -1.6586  0.0357 -0.0984
12403TIP3    H258701   2.746   2.689  13.827 -0.1658  0.8975  1.6892
12404TIP3   OH258702   2.242   0.393   0.779  0.2188 -0.1628 -0.3246
12404TIP3    H158703   2.165   0.439   0.814  0.5060  0.3632 -0.3695
12404TIP3    H258704   2.221   0.380   0.686  0.5378  0.7629 -0.5412
12405TIP3   OH258705   5.079   3.703  13.064 -0.4198 -0.1612 -0.1263
12405TIP3    H158706   5.073   3.726  13.156  2.1078  0.2599  0.0042
12405TIP3    H258707   5.100   3.786  13.020 -0.8516 -0.4919 -0.9820
12406TIP3   OH258708   4.621   1.294  11.421 -0.3750 -0.3479  0.2422
12406TIP3    H158709   4.646   1.385  11.405 -4.0915  1.0776  1.3618
12406TIP3    H258710   4.635   1.281  11.514 -2.6015  0.2089  0.7177
12407TIP3   OH258711   4.625   3.954   4.867 -0.2544 -0.4190  0.1084
12407TIP3    H158712   4.690   3.885   4.883  0.4293  0.4440  1.2474
12407TIP3    H258713   4.576   3.960   4.950 -0.2516  0.5063  0.0510
12408TIP3   OH258714   5.411   2.303   5.846  0.0621 -0.1899 -0.0119
12408TIP3    H158715   5.445   2.327   5.932  0.8112 -1.1161 -0.0424
12408TIP3    H258716   5.381   2.213   5.855  2.4774 -1.2166 -1.3357
12409TIP3   OH258717   4.255   2.348  16.924  0.3100  0.3360  0.2466
12409TIP3    H158718   4.274   2.290  16.997  1.0559 -0.0349 -0.2267
12409TIP3    H258719   4.334   2.400  16.913 -0.0481  0.8651  0.1366
12410TIP3   OH258720   5.636   5.531   2.060  0.7843  0.4186  0.0425
12410TIP3    H158721   5.598   5.447   2.033  0.7899 -0.3531  2.2691
12410TIP3    H258722   5.578   5.597   2.021 -0.9537 -0.6766  0.6788
12411TIP3   OH258723   6.477   1.728   2.426 -0.5115  0.0716  0.6319
12411TIP3    H158724   6.403   1.740   2.486 -0.3674  1.8794  0.5118
12411TIP3    H258725   6.466   1.798   2.361  0.5348 -0.5103 -0.1920
12412TIP3   OH258726   1.983   1.767  13.858  0.1453  0.0818  0.0714
12412TIP3    H158727   2.012   1.826  13.928  2.4860 -0.7982 -0.0488
12412TIP3    H258728   1.964   1.684  13.902 -1.4028  0.3851  0.0161
12413TIP3   OH258729   1.188   0.526   4.244 -0.2269  0.1590 -0.3556
12413TIP3    H158730   1.132   0.601   4.223  1.1768  1.6979  1.1038
12413TIP3    H258731   1.132   0.469   4.297 -0.2079  2.2865  2.1870
12414TIP3   OH258732   3.128   6.300  14.882 -0.1230 -0.0388  0.0520
12414TIP3    H158733   3.193   6.238  14.912  1.2099  0.9960 -0.6116
12414TIP3    H258734   3.125   6.367  14.950  1.4933  1.2925 -1.0917
12415TIP3   OH258735   0.559   6.732   5.528 -0.2159 -0.1640  0.3053
12415TIP3    H158736   0.511   6.700   5.604  0.6626  2.8432  2.3179
12415TIP3    H258737   0.650   6.737   5.558 -0.1106  2.7821 -0.1798
12416TIP3   OH258738   2.537   5.831   4.260  0.1836  0.0761 -0.3625
12416TIP3    H158739   2.514   5.766   4.193  1.5808 -0.7092 -0.1090
12416TIP3    H258740   2.484   5.807   4.335 -2.8411  2.0833 -1.6615
12417TIP3   OH258741   2.021   4.421  16.224  0.2682 -0.1461 -0.0481
12417TIP3    H158742   2.049   4.434  16.133  1.0914 -0.9906  0.0668
12417TIP3    H258743   2.093   4.373  16.264  0.4183  1.1577  1.3539
12418TIP3   OH258744   5.269   6.260   5.822  0.1051 -0.0140 -0.3809
12418TIP3    H158745   5.362   6.238   5.823 -0.3524 -2.1807 -0.4040
12418TIP3    H258746   5.245   6.260   5.729  0.1009  0.6734 -0.3836
12419TIP3   OH258747   1.507   5.091  13.482  0.4519  0.1651  0.5060
12419TIP3    H158748   1.450   5.147  13.429  1.0944  0.6108  0.2717
12419TIP3    H258749   1.516   5.011  13.431  0.5664  0.3510  0.2333
12420TIP3   OH258750   6.594   0.260   3.735 -0.1674 -0.3013 -0.1983
12420TIP3    H158751   6.673   0.206   3.723  0.3774  0.3555  0.3360
12420TIP3    H258752   6.544   0.247   3.655  0.5008 -0.7131 -0.5611
12421TIP3   OH258753   1.390   0.862   5.400 -0.3319  0.0540 -0.4064
12421TIP3    H158754   1.439   0.913   5.335  1.8767  0.8633  1.7442
12421TIP3    H258755   1.456   0.808   5.443 -1.7888 -0.7491  0.9364
12422TIP3   OH258756   5.536   5.577  15.791  0.3269  0.4719  0.1660
12422TIP3    H158757   5.507   5.632  15.864  0.1171  0.4635  0.0919
12422TIP3    H258758   5.596   5.513  15.830 -0.1713  0.1516  0.4182
12423TIP3   OH258759   1.415   6.126   2.232 -0.3008  0.4308 -0.2126
12423TIP3    H158760   1.367   6.131   2.150  0.6767  0.7891 -0.7820
12423TIP3    H258761   1.348   6.127   2.300 -1.0763  1.6916 -0.9562
12424TIP3   OH258762   5.787   3.284   4.444  0.0655  0.5380  0.1295
12424TIP3    H158763   5.799   3.284   4.539  0.2332  0.4336  0.1093
12424TIP3    H258764   5.717   3.221   4.428  2.8060 -2.7750 -0.1447
12425TIP3   OH258765   2.810   5.556  16.908 -0.1703  0.0862  0.0289
12425TIP3    H158766   2.791   5.581  16.818 -1.3276  2.4124  0.8284
12425TIP3    H258767   2.789   5.634  16.960  0.0585 -1.2951  2.3773
12426TIP3   OH258768   3.857   3.177   1.780  0.1776  0.3176  0.1629
12426TIP3    H158769   3.942   3.148   1.812  0.3993  1.2543  0.4604
12426TIP3    H258770   3.851   3.139   1.692  0.5620 -0.3881  0.4335
12427TIP3   OH258771   3.792   0.947  12.875  0.3820 -0.4275 -0.2389
12427TIP3    H158772   3.776   0.862  12.917 -0.6826  0.1703  0.6077
12427TIP3    H258773   3.833   0.924  12.791  0.1259 -1.7728 -0.0298
12428TIP3   OH258774   0.315   2.707  11.565 -0.2823 -0.1050 -0.3970
12428TIP3    H158775   0.254   2.780  11.553 -1.5928 -1.2927 -1.1547
12428TIP3    H258776   0.378   2.740  11.629 -1.7999  1.1135  0.5491
12429TIP3   OH258777   2.442   6.676   2.227 -0.5629 -0.5282 -0.5439
12429TIP3    H158778   2.535   6.652   2.230 -0.6227 -0.6584  1.0726
12429TIP3    H258779   2.423   6.687   2.133  1.4419  0.9360 -0.8352
12430TIP3   OH258780   6.403   1.704   5.554 -0.5606  0.9025 -0.0898
12430TIP3    H158781   6.495   1.721   5.572 -0.4025 -0.1638  0.1827
12430TIP3    H258782   6.388   1.616   5.588 -1.6075  0.9517 -0.3948
12431TIP3   OH258783   2.324   3.825   0.504 -0.5372  0.0635 -0.0907
12431TIP3    H158784   2.244   3.862   0.542 -0.4381 -0.4269  0.6070
12431TIP3    H258785   2.334   3.872   0.421 -2.1799 -0.6529 -0.7391
12432TIP3   OH258786   2.190   6.544   1.020 -0.3945 -0.1914  0.2746
12432TIP3    H158787   2.215   6.525   0.930 -2.1333  1.3719 -0.6147
12432TIP3    H258788   2.100   6.514   1.027 -1.0196  1.6686  0.7738
12433TIP3   OH258789   3.471   0.645   2.588 -0.2896 -0.2923  0.0187
12433TIP3    H158790   3.401   0.702   2.619  0.2270  0.0944  0.5009
12433TIP3    H258791   3.448   0.558   2.619 -1.0790 -0.3544 -0.7127
12434TIP3   OH258792   0.069   3.347  11.287 -0.2400 -0.4413  0.1843
12434TIP3    H158793  -0.022   3.377  11.288 -0.4624 -0.7584  3.8216
12434TIP3    H258794   0.098   3.361  11.197 -3.4374  0.9616 -0.7819
12435TIP3   OH258795   4.688   2.495  12.336  0.0980  0.2147 -0.2683
12435TIP3    H158796   4.606   2.526  12.298 -0.2068  0.0960  0.2887
12435TIP3    H258797   4.685   2.400  12.324 -0.1331  0.1455  0.3078
12436TIP3   OH258798   5.363   4.793  14.276 -0.1433  0.6009  0.8536
12436TIP3    H158799   5.453   4.799  14.246 -0.1986 -2.4277 -0.2557
12436TIP3    H258800   5.371   4.766  14.368  0.1373 -1.0906  0.3573
12437TIP3   OH258801   4.558   3.475  15.410 -0.0013 -0.4564  0.4363
12437TIP3    H158802   4.534   3.411  15.343 -0.4214 -3.0032  2.8471
12437TIP3    H258803   4.633   3.436  15.454 -0.1386  0.8373  1.8701
12438TIP3   OH258804   2.862   2.902  11.131  0.0128  0.7481  0.0141
12438TIP3    H158805   2.785   2.922  11.079  1.3704  1.8584 -1.7003
12438TIP3    H258806   2.895   2.820  11.095  0.4470  1.0426 -0.2660
12439TIP3   OH258807   2.783   4.031   5.228  0.0521 -0.3000  0.5148
12439TIP3    H158808   2.845   3.975   5.181 -1.1199 -0.6283 -0.6927
12439TIP3    H258809   2.702   3.979   5.231 -0.2758  0.2530  1.7605
12440TIP3   OH258810   3.014   5.450   6.832 -0.0983  0.0163 -0.2674
12440TIP3    H158811   3.042   5.457   6.741 -0.2782 -1.2356 -0.4364
12440TIP3    H258812   2.926   5.414   6.828  0.5205 -1.6861  0.4276
12441TIP3   OH258813   3.778   4.348   3.691  0.0044 -0.1808  0.2681
12441TIP3    H158814   3.845   4.385   3.749 -0.4269 -0.7923  1.1830
12441TIP3    H258815   3.710   4.416   3.688  0.0870 -0.0929  0.3632
12442TIP3   OH258816   6.293   5.895  11.887  0.6342  0.7284  0.3509
12442TIP3    H158817   6.209   5.915  11.929  0.0754  0.3391 -0.5581
12442TIP3    H258818   6.330   5.824  11.939 -0.4412 -0.3260 -0.2905
12443TIP3   OH258819   2.735   0.894   5.632 -0.5472 -0.1999  0.4114
12443TIP3    H158820   2.689   0.815   5.605 -0.5279 -0.9086  2.2964
12443TIP3    H258821   2.818   0.890   5.585 -0.9995 -0.7205 -0.3565
12444TIP3   OH258822   2.860   1.205   0.364 -0.1226 -0.2002  0.3031
12444TIP3    H158823   2.829   1.170   0.281 -0.8063  2.4010 -0.6157
12444TIP3    H258824   2.795   1.177   0.428 -0.2552 -1.1750 -0.2447
12445TIP3   OH258825   4.799   1.439  12.416 -0.0248  0.4644  0.2041
12445TIP3    H158826   4.855   1.430  12.339 -0.6027  2.5311 -0.5088
12445TIP3    H258827   4.835   1.377  12.479  2.0369  0.5513 -0.8216
12446TIP3   OH258828   2.450   0.768  13.330  0.2396 -0.0406 -0.0301
12446TIP3    H158829   2.421   0.784  13.420 -2.3089  0.5309 -0.8722
12446TIP3    H258830   2.499   0.846  13.306 -2.2187  1.5303 -0.2797
12447TIP3   OH258831   0.078   2.578   4.679 -0.0525 -0.0889  0.3325
12447TIP3    H158832   0.103   2.627   4.600 -0.8110  1.4540  1.0238
12447TIP3    H258833   0.032   2.501   4.645  0.6114 -0.0322 -0.7616
12448TIP3   OH258834   5.685   3.545  10.627 -0.0894  0.4976 -0.8061
12448TIP3    H158835   5.695   3.452  10.647  1.1917  0.6175 -0.8658
12448TIP3    H258836   5.590   3.556  10.616 -0.1890 -0.9903 -1.7213
12449TIP3   OH258837   1.806   0.423  12.740 -0.2923 -0.0016 -0.3504
12449TIP3    H158838   1.733   0.381  12.786 -0.8530  0.1442 -1.0874
12449TIP3    H258839   1.883   0.374  12.768 -0.4999  0.5471  1.3238
12450TIP3   OH258840   0.673   6.069  16.515  0.1340  0.1216 -0.0973
12450TIP3    H158841   0.721   6.152  16.506 -0.4567  0.3836 -0.9347
12450TIP3    H258842   0.629   6.057  16.430  0.5366 -1.2581 -0.1362
12451TIP3   OH258843   2.829   0.629   0.753  0.0853 -0.0164  0.4719
12451TIP3    H158844   2.736   0.613   0.770 -0.5068  1.6916 -0.8748
12451TIP3    H258845   2.835   0.639   0.658  1.6317  0.0966  0.5560
12452TIP3   OH258846   5.416   4.656   2.699  0.6750 -0.4735 -0.8476
12452TIP3    H158847   5.425   4.654   2.794 -1.5742 -0.7051 -0.5756
12452TIP3    H258848   5.429   4.748   2.675  0.2677 -0.2409 -0.1870
12453TIP3   OH258849   3.344   1.615  16.582 -0.0860  0.4874  0.4174
12453TIP3    H158850   3.262   1.652  16.549  0.0811  1.2186  0.8058
12453TIP3    H258851   3.408   1.685  16.571  0.6446 -0.2986 -0.4804
12454TIP3   OH258852   1.562   3.803  10.385  0.1625  0.4229  0.2240
12454TIP3    H158853   1.498   3.803  10.457 -1.9057  1.5844 -1.5089
12454TIP3    H258854   1.630   3.743  10.415 -1.6121 -0.7347  2.2976
12455TIP3   OH258855   1.755   2.529   1.131  0.5639  0.2937 -0.0027
12455TIP3    H158856   1.808   2.532   1.052  0.8877 -0.6281  0.1578
12455TIP3    H258857   1.669   2.501   1.101 -0.4647  3.6486 -0.5360
12456TIP3   OH258858   2.478   3.230  12.214  0.5723  0.0835  0.1439
12456TIP3    H158859   2.414   3.204  12.148  0.5450 -1.8487  0.8766
12456TIP3    H258860   2.426   3.264  12.287  0.5715  1.4771 -0.4633
12457TIP3   OH258861   5.951   2.888   4.415  0.7010  0.3603  0.5060
12457TIP3    H158862   5.995   2.900   4.330 -0.1903  1.4686  0.1634
12457TIP3    H258863   5.978   2.964   4.466  0.8150 -0.0330  1.0351
12458TIP3   OH258864   2.219   3.796  15.157  0.0039  0.2090  0.5003
12458TIP3    H158865   2.178   3.712  15.179 -1.2266  0.5248 -0.4588
12458TIP3    H258866   2.172   3.861  15.209  1.2775  0.2854  1.6102
12459TIP3   OH258867   4.573   3.899   0.197 -0.0883  0.2697  0.4798
12459TIP3    H158868   4.580   3.818   0.247  0.4148  0.6422  1.0358
12459TIP3    H258869   4.482   3.902   0.168 -0.0069 -0.6923  0.0985
12460TIP3   OH258870   5.924   2.841   3.735 -0.2535  0.2190 -0.1190
12460TIP3    H158871   5.970   2.916   3.772  0.0966 -1.0923  2.3340
12460TIP3    H258872   5.831   2.861   3.748 -0.1325 -0.5099  2.2964
12461TIP3   OH258873   3.391   2.689  16.942 -0.3859 -0.3268 -0.6077
12461TIP3    H158874   3.375   2.781  16.965  1.6815  0.1901 -0.9972
12461TIP3    H258875   3.477   2.670  16.981  0.2584 -1.3780 -2.4651
12462TIP3   OH258876   6.186   0.007  12.964 -0.1536 -0.1219  0.1278
12462TIP3    H158877   6.141   0.016  13.048 -1.0937  0.6777 -0.4502
12462TIP3    H258878   6.146  -0.069  12.923  1.9520 -2.0615  1.3674
12463TIP3   OH258879   0.645   5.820   1.948  0.1715  0.7325 -0.0018
12463TIP3    H158880   0.631   5.833   1.854 -1.9654 -0.6868  0.0393
12463TIP3    H258881   0.563   5.847   1.988  0.2673 -0.6448  1.2178
12464TIP3   OH258882   6.406   6.280   3.591  0.0168 -0.5449 -0.3548
12464TIP3    H158883   6.336   6.222   3.622  1.0195 -1.3316  0.5555
12464TIP3    H258884   6.371   6.320   3.512 -2.2281  0.6446  1.1373
12465TIP3   OH258885   2.521   3.186  15.124 -0.1362 -0.2172  0.4708
12465TIP3    H158886   2.490   3.228  15.043  1.8346  0.3300 -0.0572
12465TIP3    H258887   2.542   3.097  15.098  1.7949  0.3239 -0.0342
12466TIP3   OH258888   2.064   1.282  14.508  0.0230  0.0951 -0.1813
12466TIP3    H158889   2.137   1.312  14.562  0.3003  0.7274 -0.8825
12466TIP3    H258890   2.038   1.360  14.458  0.4401 -0.7150 -1.7009
12467TIP3   OH258891   2.936   6.089  12.368  0.1595 -0.1492 -0.3210
12467TIP3    H158892   2.944   6.175  12.409  2.4966 -0.8243  0.8371
12467TIP3    H258893   2.898   6.033  12.437  0.5135 -0.4606 -0.3734
12468TIP3   OH258894   1.311   5.049   0.858 -0.5076 -0.1368 -0.7744
12468TIP3    H158895   1.226   5.024   0.821 -0.4267 -0.7156 -0.5783
12468TIP3    H258896   1.375   4.999   0.808 -0.3838 -0.7605  0.0027
12469TIP3   OH258897   3.211   6.213  12.705 -0.4302 -0.4696 -0.4850
12469TIP3    H158898   3.158   6.289  12.729  1.3385  0.4634  0.8086
12469TIP3    H258899   3.284   6.250  12.654  1.8625 -0.7862  2.2834
12470TIP3   OH258900   1.376   3.030  14.709  0.0621 -0.0614 -0.4549
12470TIP3    H158901   1.290   3.040  14.751 -1.2136 -2.9758 -2.0448
12470TIP3    H258902   1.418   2.958  14.757 -0.0187 -1.1533 -1.9315
12471TIP3   OH258903   4.734   1.071   2.106  0.6879  0.0925  0.1694
12471TIP3    H158904   4.774   1.137   2.050 -0.0086  0.9732  0.6716
12471TIP3    H258905   4.645   1.061   2.072  0.5757 -0.0837  0.5045
12472TIP3   OH258906   3.104   5.005   1.992  0.5849  0.0005  0.5372
12472TIP3    H158907   3.107   5.101   1.982  0.4041 -0.0626 -0.2072
12472TIP3    H258908   3.166   4.973   1.927 -0.5889 -0.4516 -0.3844
12473TIP3   OH258909   1.430   6.673  15.452  0.0378 -0.5169  0.3979
12473TIP3    H158910   1.468   6.638  15.533  1.4294  1.2761  0.5788
12473TIP3    H258911   1.396   6.596  15.406  1.5904 -1.9081  1.4578
12474TIP3   OH258912   4.079   6.035   1.681  0.1190 -0.3678 -0.4353
12474TIP3    H158913   4.147   6.095   1.651  0.2311 -0.2543  0.0351
12474TIP3    H258914   4.124   5.952   1.695 -0.1471 -0.7447 -1.6638
12475TIP3   OH258915   5.387   4.540   0.750 -0.2150  0.3882  0.0610
12475TIP3    H158916   5.293   4.522   0.751 -0.1375 -0.1775 -0.9129
12475TIP3    H258917   5.419   4.492   0.673  1.2726 -1.3777  1.6637
12476TIP3   OH258918   0.162   2.789   2.069 -0.3085  0.1354 -0.0528
12476TIP3    H158919   0.077   2.768   2.029  0.8707 -0.5290 -2.3827
12476TIP3    H258920   0.215   2.711   2.052  1.2886  1.2302 -0.2379
12477TIP3   OH258921   3.660   0.189   2.807  0.3430 -0.1342  0.1185
12477TIP3    H158922   3.602   0.147   2.744  1.1081  0.6770 -1.1643
12477TIP3    H258923   3.601   0.226   2.872 -0.4695 -0.9141 -0.1508
12478TIP3   OH258924   0.727   4.630   0.321 -0.3649 -0.4823 -0.3537
12478TIP3    H158925   0.647   4.592   0.284  0.9332 -2.7766 -0.9993
12478TIP3    H258926   0.794   4.616   0.254  0.9975 -0.4414  0.9392
12479TIP3   OH258927   2.527   2.526   1.229  0.0705 -0.3874  0.4176
12479TIP3    H158928   2.502   2.482   1.148  1.4401  0.2896 -0.3988
12479TIP3    H258929   2.446   2.567   1.260 -0.5751 -1.0663 -0.3390
12480TIP3   OH258930   0.262   1.645  15.201 -0.1214  0.3065 -0.0973
12480TIP3    H158931   0.316   1.607  15.270 -1.8848  0.6472  1.5546
12480TIP3    H258932   0.176   1.607  15.214 -0.8348  1.4389 -1.2511
12481TIP3   OH258933   5.170   5.528  15.348 -0.3168 -0.1925  0.1318
12481TIP3    H158934   5.189   5.499  15.437  2.9834 -0.4351 -0.5580
12481TIP3    H258935   5.165   5.624  15.354 -0.4608 -0.2281  0.6031
12482TIP3   OH258936   5.839   4.641   4.842  0.1423 -0.3119  0.4632
12482TIP3    H158937   5.904   4.588   4.796  0.6941 -0.4914  1.4099
12482TIP3    H258938   5.887   4.720   4.868 -0.4938  0.3507 -0.3400
12483TIP3   OH258939   0.607   0.068  13.142  0.2250 -0.2237  0.0342
12483TIP3    H158940   0.626   0.122  13.065 -0.2249  0.0299  0.0978
12483TIP3    H258941   0.574  -0.014  13.107 -4.8407  1.5592 -0.1315
12484TIP3   OH258942   2.650   2.347   5.056 -0.3630  0.0586 -0.0142
12484TIP3    H158943   2.655   2.362   5.150  0.5226 -0.9274  0.1144
12484TIP3    H258944   2.556   2.346   5.037 -0.5630 -0.1949  0.9357
12485TIP3   OH258945   0.692   0.878  16.799  0.0517  0.2166 -0.4675
12485TIP3    H158946   0.637   0.943  16.754 -1.8323 -0.5748  0.5588
12485TIP3    H258947   0.706   0.809  16.733  1.4820  1.2818 -1.3400
12486TIP3   OH258948   5.213   5.856  14.483  0.1671 -0.0614 -0.2931
12486TIP3    H158949   5.301   5.863  14.520  0.1106 -2.0580  0.3100
12486TIP3    H258950   5.219   5.784  14.421 -1.2772 -0.9434  0.5429
12487TIP3   OH258951   2.146   1.966  14.982  0.1083  0.2643 -0.2350
12487TIP3    H158952   2.188   1.963  15.068  2.3174 -1.3082 -1.2755
12487TIP3    H258953   2.217   1.986  14.921 -1.5796  2.3604 -1.6671
12488TIP3   OH258954   4.655   6.217  13.332  0.0578  0.0456  0.5095
12488TIP3    H158955   4.671   6.303  13.372  1.4895 -0.3879  0.9593
12488TIP3    H258956   4.719   6.159  13.374 -0.0853 -0.9856 -0.6243
12489TIP3   OH258957   4.645   0.992   4.279 -0.0761  0.2570 -0.7670
12489TIP3    H158958   4.698   0.950   4.212 -0.5980 -0.6451 -0.6458
12489TIP3    H258959   4.562   1.011   4.235  0.5273  2.2005 -1.1211
12490TIP3   OH258960   6.578   4.442   5.755  0.0248 -0.7597 -0.1789
12490TIP3    H158961   6.636   4.429   5.830  0.7309 -0.5671 -0.6897
12490TIP3    H258962   6.613   4.519   5.710 -1.4156  0.1992  0.2490
12491TIP3   OH258963   0.172   5.886  15.439 -0.2307  0.1734  0.2070
12491TIP3    H158964   0.220   5.935  15.372  0.7968 -0.8472  0.1695
12491TIP3    H258965   0.190   5.933  15.521  1.4782 -0.6141  0.3139
12492TIP3   OH258966   3.040   4.532   2.316  0.1919  0.7029 -1.1334
12492TIP3    H158967   3.073   4.531   2.406  0.9627  0.3848 -1.4123
12492TIP3    H258968   3.085   4.605   2.275 -1.6664  2.1460 -0.7310
12493TIP3   OH258969   6.004   3.617  12.050 -0.6160 -0.0830 -0.5305
12493TIP3    H158970   6.053   3.693  12.079 -0.1055 -0.5301 -0.2077
12493TIP3    H258971   5.942   3.652  11.985 -0.4468  0.6113 -0.3268
12494TIP3   OH258972   1.482   1.321   5.123  0.5040  0.4619  0.4490
12494TIP3    H158973   1.486   1.386   5.193  0.7596 -0.0258  0.8973
12494TIP3    H258974   1.398   1.336   5.080 -0.3814 -0.2816  1.8858
12495TIP3   OH258975   4.897   4.492   5.675  0.1552 -0.1437 -0.2804
12495TIP3    H158976   4.968   4.442   5.634  0.7480  0.5799 -0.1538
12495TIP3    H258977   4.933   4.521   5.759 -1.2034 -1.9794  1.0044
12496TIP3   OH258978   2.954   6.497   5.275 -0.0870 -0.4916 -0.2012
12496TIP3    H158979   2.910   6.564   5.327 -0.1370  0.0260 -0.8954
12496TIP3    H258980   3.044   6.495   5.307  0.2618  0.8308 -1.0394
12497TIP3   OH258981   1.018   5.740  13.813 -0.0666 -0.4000  0.3220
12497TIP3    H158982   0.984   5.690  13.739  1.4028 -1.9351  0.6110
12497TIP3    H258983   0.941   5.760  13.866 -0.7831 -1.9342 -0.0925
12498TIP3   OH258984   5.256   2.373  15.450 -0.4724 -0.6836 -0.5207
12498TIP3    H158985   5.226   2.445  15.505 -1.1637 -1.6278  0.3952
12498TIP3    H258986   5.191   2.368  15.380 -0.3492 -0.3322 -0.6591
12499TIP3   OH258987   4.464   2.543  15.949  0.1470  0.2096 -0.0681
12499TIP3    H158988   4.484   2.514  15.860 -1.4872  0.1393 -0.4545
12499TIP3    H258989   4.489   2.636  15.949 -0.4402  0.3867 -0.8353
12500TIP3   OH258990   5.830   0.104   4.046  0.3461  0.1710  0.2248
12500TIP3    H158991   5.805   0.190   4.078 -1.3429 -0.5605  1.0365
12500TIP3    H258992   5.751   0.071   4.002  1.0687 -0.8258 -0.3726
12501TIP3   OH258993   4.160   5.078   5.913 -0.6133 -0.7044 -0.2514
12501TIP3    H158994   4.213   5.156   5.900  0.2790 -1.5241 -1.9100
12501TIP3    H258995   4.156   5.068   6.008  0.8281  0.3199 -0.0398
12502TIP3   OH258996   1.488   3.425  12.472 -0.0504  0.3611  0.4471
12502TIP3    H158997   1.565   3.389  12.517 -0.1858  0.7211  0.9803
12502TIP3    H258998   1.489   3.383  12.386  0.8344  0.4804  0.3809
12503TIP3   OH258999   6.762   3.012  12.578  0.1542  0.2263 -0.2386
12503TIP3    H159000   6.803   2.931  12.609  0.2022  0.1792 -0.4213
12503TIP3    H259001   6.790   3.020  12.487 -0.6213 -0.0636 -0.5172
12504TIP3   OH259002   2.934   1.996  11.974 -0.9092  0.2992  0.1671
12504TIP3    H159003   2.902   1.915  12.014  0.6482 -0.5788 -0.2704
12504TIP3    H259004   2.863   2.025  11.917 -0.8748 -1.6868 -0.9556
12505TIP3   OH259005   3.317   3.264  16.701 -0.2454  0.0195  0.1227
12505TIP3    H159006   3.240   3.211  16.719  0.3396 -1.2602 -0.9541
12505TIP3    H259007   3.311   3.285  16.608  0.8126 -0.3201 -0.0393
12506TIP3   OH259008   4.295   0.760  13.614  0.2998  0.3781 -0.1042
12506TIP3    H159009   4.265   0.683  13.565 -1.1196 -0.5907  2.1078
12506TIP3    H259010   4.385   0.738  13.638  0.3588  0.0072 -0.6363
12507TIP3   OH259011   1.547   4.456   3.471 -0.1040  0.4032 -0.3547
12507TIP3    H159012   1.481   4.504   3.421 -1.9488 -0.7509  0.8810
12507TIP3    H259013   1.579   4.390   3.410  0.5415  1.4586 -1.2148
12508TIP3   OH259014   4.405   1.173  12.790 -0.5480 -0.1483 -0.0771
12508TIP3    H159015   4.409   1.078  12.780 -1.5817 -0.2520  0.3387
12508TIP3    H259016   4.426   1.189  12.882 -0.6367  0.0042 -0.0824
12509TIP3   OH259017   6.656   0.244   2.167  0.6102  0.5841 -0.1992
12509TIP3    H159018   6.671   0.154   2.195  0.3074  0.9290  1.1525
12509TIP3    H259019   6.618   0.287   2.244 -1.7740  1.2189 -1.6426
12510TIP3   OH259020   1.469   2.007  13.191  0.0960  0.0417 -0.1377
12510TIP3    H159021   1.545   2.037  13.141  0.8948 -0.5414  0.6886
12510TIP3    H259022   1.485   2.040  13.280 -0.0113 -1.0809  0.3121
12511TIP3   OH259023   1.814   4.348   2.262  0.0086  0.2066  0.5405
12511TIP3    H159024   1.742   4.293   2.294  0.7755 -0.8147  0.5614
12511TIP3    H259025   1.890   4.321   2.314  0.6601  0.4939 -0.2335
12512TIP3   OH259026   0.727   6.410  11.057 -0.4185  0.2238 -0.0906
12512TIP3    H159027   0.664   6.379  10.992 -0.7257  1.5385 -0.4493
12512TIP3    H259028   0.707   6.359  11.135  0.0279 -1.4735 -1.0093
12513TIP3   OH259029   2.807   1.203  13.309 -0.2182 -0.4872 -0.2436
12513TIP3    H159030   2.903   1.203  13.309 -0.2111 -0.4842 -0.7798
12513TIP3    H259031   2.783   1.295  13.319 -0.1061 -0.0374 -3.2479
12514TIP3   OH259032   0.034   3.485  15.853 -0.2681  0.0853  0.0929
12514TIP3    H159033  -0.037   3.446  15.905 -0.6898 -1.0442 -1.2828
12514TIP3    H259034   0.003   3.481  15.763  0.8613  1.1297 -0.3740
12515TIP3   OH259035   2.637   2.159   4.874  0.1396 -0.5374 -0.2607
12515TIP3    H159036   2.666   2.227   4.934  1.2876  0.7941 -2.2284
12515TIP3    H259037   2.657   2.077   4.919  0.8461  0.3970  1.1959
12516TIP3   OH259038   6.224   4.931  12.370 -0.3201  0.1570 -0.2244
12516TIP3    H159039   6.306   4.891  12.340 -0.5263 -0.8795  0.5120
12516TIP3    H259040   6.235   4.938  12.465 -0.2310  2.0527 -0.3528
12517TIP3   OH259041   2.908   1.013  14.464 -0.2225 -0.4592  1.3164
12517TIP3    H159042   2.856   1.013  14.383 -0.6664  0.9185  1.5714
12517TIP3    H259043   2.990   0.972  14.440 -0.8986 -1.3890  0.5319
12518TIP3   OH259044   4.283   0.558  13.974  0.1508 -0.1129 -0.4199
12518TIP3    H159045   4.249   0.470  13.994 -0.8129  0.8197  2.5524
12518TIP3    H259046   4.206   0.608  13.949  0.2469  0.4983  0.4529
12519TIP3   OH259047   5.471   2.225  16.625 -0.2726 -0.8554 -0.1049
12519TIP3    H159048   5.524   2.293  16.585 -1.8354 -0.3468 -1.4301
12519TIP3    H259049   5.411   2.272  16.683  0.7024 -1.4233  1.4345
12520TIP3   OH259050   5.748   3.968  15.671 -0.0402 -0.0728  0.1864
12520TIP3    H159051   5.742   3.916  15.751 -0.8433 -0.2746  0.0079
12520TIP3    H259052   5.692   4.045  15.688  0.9482  0.6225  0.3639
12521TIP3   OH259053   1.267   0.389  16.500  0.3689  0.3501 -0.0998
12521TIP3    H159054   1.245   0.468  16.449 -0.1728  0.2026 -0.1017
12521TIP3    H259055   1.260   0.318  16.436  1.5420  0.3638 -0.2744
12522TIP3   OH259056   3.321   3.350   3.672  0.2980 -0.1668 -0.2579
12522TIP3    H159057   3.321   3.255   3.657 -0.1910 -0.4662  1.4253
12522TIP3    H259058   3.232   3.378   3.650  0.0914 -0.3127  0.3695
12523TIP3   OH259059   6.732   5.828   5.920  0.4194  0.8085 -0.5188
12523TIP3    H159060   6.660   5.839   5.983 -0.8554  0.2709 -1.8127
12523TIP3    H259061   6.811   5.823   5.973 -0.3631  2.5532  0.9024
12524TIP3   OH259062   3.279   0.378   3.122 -0.1089  0.4898 -0.1924
12524TIP3    H159063   3.186   0.378   3.144 -0.1063 -0.9890 -0.0609
12524TIP3    H259064   3.288   0.444   3.053 -0.6070  3.2758  2.1850
12525TIP3   OH259065   6.652   2.998   2.950 -0.1883  0.3616  0.3220
12525TIP3    H159066   6.689   3.006   3.038 -2.5325 -0.0766  1.4354
12525TIP3    H259067   6.688   2.916   2.916  0.9400  0.6624  0.7617
12526TIP3   OH259068   4.050   2.075   0.515  0.4660  0.1038 -0.5198
12526TIP3    H159069   4.053   2.145   0.449  0.1240 -1.1507 -1.9314
12526TIP3    H259070   4.002   2.114   0.588 -2.3739  0.4952 -2.4195
12527TIP3   OH259071   4.892   3.958   1.689  0.4367 -0.6913  0.3755
12527TIP3    H159072   4.912   3.926   1.777 -1.6987  1.7148  1.8812
12527TIP3    H259073   4.878   4.052   1.700 -3.6766 -0.8418 -1.6903
12528TIP3   OH259074   4.207   5.839   2.092 -0.1577 -0.0405 -0.2502
12528TIP3    H159075   4.205   5.924   2.049 -1.8449  0.6320  1.0753
12528TIP3    H259076   4.269   5.850   2.164  0.7056 -0.4035 -0.9075
12529TIP3   OH259077   2.894   4.647   4.102 -0.7039 -0.1524  0.7157
12529TIP3    H159078   2.810   4.690   4.092 -0.0866  0.7475 -1.0035
12529TIP3    H259079   2.875   4.554   4.091 -1.2199  0.1929 -1.7767
12530TIP3   OH259080   5.339   5.807  12.505 -0.5864  0.1410  0.3608
12530TIP3    H159081   5.331   5.783  12.413  1.1360  0.8544 -0.0274
12530TIP3    H259082   5.264   5.766  12.548  0.0230 -2.5266 -0.8879
12531TIP3   OH259083   5.490   5.737  15.570 -0.1073 -0.3557 -0.1346
12531TIP3    H159084   5.425   5.788  15.619 -0.8770 -1.9033  0.5336
12531TIP3    H259085   5.513   5.665  15.629  1.0144 -0.7323 -0.9997
12532TIP3   OH259086   2.012   5.886  12.612 -0.4920  0.7892 -0.2119
12532TIP3    H159087   2.071   5.907  12.540  0.3850  1.6920  0.7250
12532TIP3    H259088   1.953   5.820  12.577 -0.3334  1.4830 -1.8612
12533TIP3   OH259089   2.636   5.918  11.727  0.5273  0.4406  0.0878
12533TIP3    H159090   2.628   5.892  11.819 -1.5987 -0.8952 -0.4074
12533TIP3    H259091   2.555   5.965  11.707 -0.6307 -2.1160 -1.8724
12534TIP3   OH259092   2.654   1.922  12.980  0.5455  0.4521 -0.4180
12534TIP3    H159093   2.592   1.929  12.907 -2.1367  1.4324  1.7550
12534TIP3    H259094   2.643   2.004  13.028  0.2719 -1.1320  2.4444
12535TIP3   OH259095   6.293   3.569  16.321 -0.1757  0.1906 -0.4529
12535TIP3    H159096   6.251   3.633  16.378  0.4130  0.3758 -0.2091
12535TIP3    H259097   6.280   3.485  16.366  0.2149  0.3255 -0.0795
12536TIP3   OH259098   4.410   3.942   5.424  0.2387 -0.2922  0.1871
12536TIP3    H159099   4.482   3.879   5.426 -0.1370 -0.7625 -0.7553
12536TIP3    H259100   4.431   4.001   5.352  0.6411  0.7435  1.1286
12537TIP3   OH259101   1.709   1.562  12.311  0.9745  0.1302 -0.3538
12537TIP3    H159102   1.791   1.543  12.357  0.2950  0.1685  0.9256
12537TIP3    H259103   1.647   1.497  12.345 -0.7591  2.8855  2.2928
12538TIP3   OH259104   6.438   4.690  10.994 -0.0053  0.1242  0.8214
12538TIP3    H159105   6.490   4.677  11.073 -0.3963  1.3059  1.2922
12538TIP3    H259106   6.495   4.663  10.922  0.4892 -0.5917  1.4754
12539TIP3   OH259107   4.707   4.876   2.159 -0.7712  0.0234  0.5123
12539TIP3    H159108   4.648   4.940   2.120 -0.6737 -0.3590 -0.2682
12539TIP3    H259109   4.692   4.795   2.111  1.6995  0.3628 -1.0062
12540TIP3   OH259110   2.484   3.163  12.912 -0.2338  0.7643  0.2219
12540TIP3    H159111   2.406   3.147  12.860  0.4606 -0.7819 -0.3959
12540TIP3    H259112   2.469   3.115  12.993  0.5580 -0.5364 -0.3826
12541TIP3   OH259113   5.870   3.109   4.097 -0.2874 -0.5441  0.0485
12541TIP3    H159114   5.948   3.156   4.127 -0.5366 -0.1097  0.0258
12541TIP3    H259115   5.886   3.018   4.121 -0.3093 -0.2694  1.1672
12542TIP3   OH259116   0.368   5.628  13.900  0.3929 -0.1072  0.0698
12542TIP3    H159117   0.347   5.706  13.848  0.8921 -0.7983 -1.2336
12542TIP3    H259118   0.293   5.570  13.887  0.3263 -0.1114  0.4771
12543TIP3   OH259119   0.131   2.120  15.575  0.2202 -0.2723 -0.1661
12543TIP3    H159120   0.114   2.182  15.505 -2.2486 -3.0167 -2.2474
12543TIP3    H259121   0.140   2.174  15.654 -1.6279  2.7010 -1.8276
12544TIP3   OH259122   2.048   4.821   4.559  0.1715  0.3234  0.6347
12544TIP3    H159123   1.963   4.865   4.559  0.2049  0.4524 -0.7775
12544TIP3    H259124   2.052   4.776   4.643 -2.0918 -1.1607  0.0487
12545TIP3   OH259125   2.304   3.332  10.655 -0.2588  0.2434  0.0158
12545TIP3    H159126   2.325   3.241  10.633  0.5816  0.2871  0.5832
12545TIP3    H259127   2.387   3.379  10.646 -0.5179  0.8020  0.4827
12546TIP3   OH259128   1.717   0.382  13.423 -0.4870 -0.9042  0.1182
12546TIP3    H159129   1.810   0.404  13.417 -1.0671  1.7360 -0.7361
12546TIP3    H259130   1.695   0.396  13.515 -0.2068 -0.8151  0.1732
12547TIP3   OH259131   5.717   4.009  16.744 -0.0695  0.0788 -0.1392
12547TIP3    H159132   5.681   3.978  16.827 -4.3551 -0.1077 -1.8246
12547TIP3    H259133   5.738   3.928  16.696  1.0466  0.1681  0.1623
12548TIP3   OH259134   0.673   0.519  12.005 -0.2469  0.5484 -0.4433
12548TIP3    H159135   0.632   0.602  12.031  0.7944  1.4931 -1.6869
12548TIP3    H259136   0.629   0.453  12.059 -0.5940  1.9804  1.1097
12549TIP3   OH259137   0.866   3.520  10.768  0.1157 -0.1088 -0.2498
12549TIP3    H159138   0.804   3.460  10.727 -2.4264  1.9359  0.3649
12549TIP3    H259139   0.951   3.495  10.731 -1.4975 -0.6552 -4.0737
12550TIP3   OH259140   3.085   2.188   3.271  0.1644 -0.1712  0.3161
12550TIP3    H159141   3.152   2.120   3.271 -0.4535 -0.9276  3.0176
12550TIP3    H259142   3.116   2.252   3.336 -2.1764 -1.1817  2.6326
12551TIP3   OH259143   6.663   6.485  15.973 -0.1599  0.2535  0.2473
12551TIP3    H159144   6.646   6.577  15.951  2.2992  1.7773  3.6221
12551TIP3    H259145   6.603   6.466  16.045  2.0239  0.7767  2.3537
12552TIP3   OH259146   6.585   2.573   5.235  0.4763 -0.3257 -0.1582
12552TIP3    H159147   6.623   2.660   5.225  1.0784 -0.5682 -0.0084
12552TIP3    H259148   6.519   2.567   5.166  0.8089  0.0473 -0.5111
12553TIP3   OH259149   6.139   1.163  16.410 -0.3833 -0.0320 -0.4019
12553TIP3    H159150   6.187   1.093  16.367  0.5142 -1.2853  2.3658
12553TIP3    H259151   6.205   1.207  16.464 -1.9588 -0.8550  2.3825
12554TIP3   OH259152   4.145   1.724  13.841 -0.5450  0.4487  0.0401
12554TIP3    H159153   4.117   1.803  13.795 -1.1324 -0.6962 -1.6676
12554TIP3    H259154   4.065   1.676  13.859 -0.1703  0.0701  0.7398
12555TIP3   OH259155   3.555   1.423   0.774 -0.7094 -0.2938 -0.3108
12555TIP3    H159156   3.481   1.432   0.834 -2.4683  0.5819 -2.4341
12555TIP3    H259157   3.526   1.358   0.710  0.8153 -0.7036 -0.6279
12556TIP3   OH259158   0.704   6.225   5.409  0.8003  0.2185 -0.4805
12556TIP3    H159159   0.680   6.267   5.491  0.3009  0.3508 -0.6880
12556TIP3    H259160   0.681   6.288   5.341  1.3751  0.1826 -0.7165
12557TIP3   OH259161   4.737   6.228   3.114  0.3842  0.1395 -0.0807
12557TIP3    H159162   4.708   6.262   3.199  0.3929 -1.9159  0.8028
12557TIP3    H259163   4.797   6.156   3.137 -0.4175 -1.1295 -1.8162
12558TIP3   OH259164   4.729   2.747  16.101 -0.0128  0.0240  0.7057
12558TIP3    H159165   4.779   2.677  16.058  0.1585  0.5042  0.0902
12558TIP3    H259166   4.692   2.707  16.179 -1.1754 -1.1676 -0.4075
12559TIP3   OH259167   1.263   6.543  14.156 -0.0694 -0.0316 -0.2181
12559TIP3    H159168   1.339   6.485  14.150  0.0480  0.0100  0.6642
12559TIP3    H259169   1.188   6.485  14.142  0.0217 -0.5105  1.1385
12560TIP3   OH259170   0.488   6.090  16.732 -0.0935 -0.0306  0.3380
12560TIP3    H159171   0.408   6.040  16.715 -0.0545 -0.0948  0.3407
12560TIP3    H259172   0.553   6.049  16.675 -0.4079  0.9664 -0.7718
12561TIP3   OH259173   4.245   5.950   0.602  0.0352 -0.0692 -0.0272
12561TIP3    H159174   4.231   5.959   0.696 -1.2423 -1.3412 -0.0609
12561TIP3    H259175   4.164   5.982   0.563  0.1998 -0.3874 -0.6386
12562TIP3   OH259176   6.232   3.171  11.067 -0.0717  0.5474  0.0011
12562TIP3    H159177   6.308   3.199  11.016 -0.3392 -1.5779 -1.6593
12562TIP3    H259178   6.156   3.198  11.015 -0.3860 -0.0391  0.1432
12563TIP3   OH259179   2.534   6.515   0.903 -0.0901  0.6695  0.0064
12563TIP3    H159180   2.467   6.491   0.838  0.7412 -0.8399 -0.3584
12563TIP3    H259181   2.615   6.523   0.852  0.6065 -0.6699  0.8209
12564TIP3   OH259182   3.618   4.202  16.131  0.1571  0.6482 -0.6751
12564TIP3    H159183   3.538   4.252  16.142 -0.8843 -0.7999 -1.3107
12564TIP3    H259184   3.667   4.216  16.213 -0.6524  1.6760 -0.3473
12565TIP3   OH259185   5.387   2.366  16.204  0.1579 -0.5026 -0.2258
12565TIP3    H159186   5.392   2.422  16.282 -0.6157  1.1881 -1.3242
12565TIP3    H259187   5.365   2.279  16.238  0.0414  0.1437  1.4576
12566TIP3   OH259188   6.587   0.868  16.426 -0.2008 -0.4206 -0.3318
12566TIP3    H159189   6.643   0.895  16.353 -1.7080 -1.8816 -2.1085
12566TIP3    H259190   6.625   0.785  16.456  0.5097  0.2527  0.7157
12567TIP3   OH259191   4.682   3.394   5.535  0.2818 -0.0794 -0.1361
12567TIP3    H159192   4.770   3.389   5.573 -0.5493 -0.6473  1.8458
12567TIP3    H259193   4.635   3.455   5.591 -0.8531 -0.5076 -0.5812
12568TIP3   OH259194   6.110   6.452   5.894  0.2630  0.0212  0.4113
12568TIP3    H159195   6.151   6.486   5.974 -0.1786  0.4252  0.4664
12568TIP3    H259196   6.115   6.357   5.904  0.3225  0.0678  0.8634
12569TIP3   OH259197   3.975   3.790   1.042  0.0415  0.2106 -0.5309
12569TIP3    H159198   3.918   3.825   0.974  0.1520  0.8720 -0.2959
12569TIP3    H259199   4.020   3.867   1.077  1.5407 -0.3587 -1.1277
12570TIP3   OH259200   4.768   2.095   1.098  0.7277 -0.4405  0.5987
12570TIP3    H159201   4.847   2.090   1.044 -0.6186 -1.9698 -1.3848
12570TIP3    H259202   4.742   2.187   1.094  0.8568 -0.4411 -1.1562
12571TIP3   OH259203   4.533   0.699  16.099 -0.2609 -0.7979  0.5870
12571TIP3    H159204   4.503   0.676  16.187 -0.6622 -1.7373  0.2149
12571TIP3    H259205   4.577   0.620  16.067  0.4592 -0.2463  0.1867
12572TIP3   OH259206   2.746   4.947  16.072 -0.0694  0.3707  0.4292
12572TIP3    H159207   2.805   5.022  16.067  1.7967 -0.9701  1.2679
12572TIP3    H259208   2.659   4.985  16.083  0.8623  2.3916  1.1351
12573TIP3   OH259209   5.644   3.124  16.173 -0.8440 -0.2380 -0.4304
12573TIP3    H159210   5.563   3.138  16.221 -0.0654  0.2368  0.8164
12573TIP3    H259211   5.653   3.029  16.169 -0.6198 -0.2987  0.9608
12574TIP3   OH259212   5.376   3.939   2.425  0.7085  0.0090  0.2585
12574TIP3    H159213   5.292   3.901   2.449  0.1400  1.4026  0.5842
12574TIP3    H259214   5.414   3.876   2.364 -0.4611 -0.7675  0.2943
12575TIP3   OH259215   2.221   1.946   4.436  0.5767 -0.3349  0.0485
12575TIP3    H159216   2.148   1.894   4.405 -0.3208  0.2570  1.0956
12575TIP3    H259217   2.235   2.012   4.368  0.7516 -1.0056 -0.5790
12576TIP3   OH259218   1.117   2.551   0.520  0.1570 -0.0558  1.0147
12576TIP3    H159219   1.146   2.480   0.464 -1.5276 -0.3707  0.4639
12576TIP3    H259220   1.030   2.523   0.550  0.0682  1.1297  1.9462
12577TIP3   OH259221   3.214   6.248  15.717 -0.1113  1.0682 -0.1143
12577TIP3    H159222   3.301   6.287  15.706  0.0894  0.7444  0.2698
12577TIP3    H259223   3.156   6.322  15.736 -0.0771  1.3833 -1.1815
12578TIP3   OH259224   1.018   3.469   4.926  0.2894  0.2229  0.0031
12578TIP3    H159225   1.104   3.429   4.934  0.4982  0.4011 -1.1440
12578TIP3    H259226   0.958   3.404   4.964  0.6735 -1.0034 -1.3825
12579TIP3   OH259227   0.757   4.735   4.699 -0.0439  0.2105 -0.2729
12579TIP3    H159228   0.731   4.826   4.684  1.0037  0.8220  1.4134
12579TIP3    H259229   0.691   4.701   4.760  0.5230  0.3579  0.4207
12580TIP3   OH259230   0.366   6.338   3.789  0.0815  0.1128 -0.1801
12580TIP3    H159231   0.381   6.361   3.880  2.3050 -1.3965 -0.0827
12580TIP3    H259232   0.411   6.405   3.739  0.5055 -0.1103 -0.1004
12581TIP3   OH259233   6.657   0.577   0.732 -0.6573  0.1752  0.4914
12581TIP3    H159234   6.668   0.609   0.643 -1.6107 -0.3208  0.1807
12581TIP3    H259235   6.573   0.531   0.731 -0.7433  0.2636  1.6721
12582TIP3   OH259236   5.023   4.495  14.008  0.3168  0.4383 -0.2952
12582TIP3    H159237   5.058   4.491  14.097  1.7163 -0.1218 -0.8411
12582TIP3    H259238   4.985   4.408  13.993  1.0797  0.1579 -0.6263
12583TIP3   OH259239   3.532   5.766  15.569  0.4138  0.2790  0.7589
12583TIP3    H159240   3.627   5.767  15.562  0.3540  3.0427 -1.9402
12583TIP3    H259241   3.512   5.826  15.641  0.7293  0.9217  0.3196
12584TIP3   OH259242   1.886   4.421   5.813  0.1956  0.1462 -0.3031
12584TIP3    H159243   1.891   4.381   5.726 -4.7518 -0.4871 -0.5618
12584TIP3    H259244   1.825   4.366   5.862  0.8551  1.9076  2.7661
12585TIP3   OH259245   6.492   5.849   6.043  0.1280  0.8773 -0.8800
12585TIP3    H159246   6.487   5.917   6.111 -0.2214  1.3923 -1.4107
12585TIP3    H259247   6.413   5.862   5.991 -1.2637 -1.5035  0.4371
12586TIP3   OH259248   3.648   2.083   2.782 -0.4816 -0.4805  0.5903
12586TIP3    H159249   3.667   2.104   2.691  1.5509  1.5807  1.3654
12586TIP3    H259250   3.706   2.010   2.803 -2.5614 -2.4905 -0.2747
12587TIP3   OH259251   1.442   3.347   5.490  0.3631 -0.5242  0.2794
12587TIP3    H159252   1.423   3.281   5.424 -0.1400 -1.2888  1.1589
12587TIP3    H259253   1.532   3.330   5.517  0.5109 -0.3201 -0.0847
12588TIP3   OH259254   3.950   5.699   2.214 -0.2111  0.4653 -0.0792
12588TIP3    H159255   4.009   5.757   2.166 -0.2653  0.3230 -0.3195
12588TIP3    H259256   3.899   5.655   2.146  1.5343 -1.7383 -0.0675
12589TIP3   OH259257   2.349   1.746  13.712 -0.3067 -0.3442 -0.1767
12589TIP3    H159258   2.306   1.780  13.790 -1.0506 -0.3043 -0.5850
12589TIP3    H259259   2.437   1.722  13.740 -0.3492  0.2791  0.5173
12590TIP3   OH259260   4.328   5.459   4.240 -0.1391 -0.4891 -0.1410
12590TIP3    H159261   4.329   5.505   4.324 -1.1337 -1.9163  0.6938
12590TIP3    H259262   4.412   5.412   4.238 -0.9148 -2.0278  1.0208
12591TIP3   OH259263   4.999   5.719   5.777 -0.3912 -0.3096 -0.0596
12591TIP3    H159264   5.072   5.774   5.803  0.3537 -1.8351  1.2381
12591TIP3    H259265   4.930   5.780   5.751  1.1468  1.1588 -0.8311
12592TIP3   OH259266   3.785   6.025   1.103  0.1297  0.8165  0.1930
12592TIP3    H159267   3.781   6.077   1.184 -0.0952  0.5013  0.3829
12592TIP3    H259268   3.700   5.982   1.097  0.8360 -0.7464  0.8488
12593TIP3   OH259269   1.103   3.492  12.334  0.5148  0.4551  0.1635
12593TIP3    H159270   1.174   3.480  12.270 -0.3323 -1.2804 -0.5218
12593TIP3    H259271   1.049   3.562  12.297  1.7406  1.6788  0.6136
12594TIP3   OH259272   5.711   4.431  15.263 -0.1400  0.5363 -0.2361
12594TIP3    H159273   5.693   4.337  15.263  1.8023  0.1236 -0.6488
12594TIP3    H259274   5.759   4.446  15.344  0.4857  0.9774 -0.6837
12595TIP3   OH259275   2.029   3.242  16.056 -0.2762 -0.0475 -0.0861
12595TIP3    H159276   2.046   3.336  16.051  1.8340 -0.3348  0.5738
12595TIP3    H259277   2.067   3.206  15.976 -1.3150 -0.3344 -0.4683
12596TIP3   OH259278   5.650   1.064   2.687  0.3305 -0.3945  0.0449
12596TIP3    H159279   5.616   0.978   2.714 -0.2168 -0.4699 -0.8630
12596TIP3    H259280   5.641   1.118   2.766 -0.5998 -0.7941  0.2327
12597TIP3   OH259281   4.579   4.306   2.492 -0.2272 -0.1809 -0.5569
12597TIP3    H159282   4.640   4.234   2.476  0.3652  0.2530 -0.2872
12597TIP3    H259283   4.497   4.278   2.452  0.5407 -0.1627 -2.2432
12598TIP3   OH259284   1.851   2.733  15.157  0.0731 -0.1418 -0.3777
12598TIP3    H159285   1.776   2.681  15.185 -0.6147  0.8397 -0.3680
12598TIP3    H259286   1.927   2.685  15.192 -0.6287 -0.1877  1.1774
12599TIP3   OH259287   1.685   2.994  13.188 -0.2332  0.5045  0.2506
12599TIP3    H159288   1.702   2.907  13.151 -0.0253  0.6241  0.0625
12599TIP3    H259289   1.768   3.020  13.226  0.3168  1.4913 -1.4968
12600TIP3   OH259290   3.438   2.887  14.648  0.1948 -0.0904  0.2766
12600TIP3    H159291   3.452   2.792  14.655 -0.1367 -0.3637 -1.9127
12600TIP3    H259292   3.526   2.924  14.647  0.3136 -0.2310  2.2334
12601TIP3   OH259293   5.924   2.791   4.133  0.4503 -0.0776  0.0781
12601TIP3    H159294   5.976   2.770   4.055  0.4596  0.8863 -0.1968
12601TIP3    H259295   5.872   2.712   4.150  0.1589 -0.1699 -1.1454
12602TIP3   OH259296   3.615   0.300   6.219  0.1938  0.1677 -0.8304
12602TIP3    H159297   3.550   0.256   6.273  0.4766  1.0290  0.2321
12602TIP3    H259298   3.588   0.280   6.129 -0.5081 -0.9497 -0.3890
12603TIP3   OH259299   2.031   2.029  13.111  0.2075 -0.9958  0.1875
12603TIP3    H159300   1.970   1.980  13.056  1.6805 -1.4402 -1.1093
12603TIP3    H259301   2.045   1.973  13.187 -1.6430 -0.4870  0.9778
12604TIP3   OH259302   2.935   3.612  12.769 -0.5337  0.2272  0.1153
12604TIP3    H159303   2.926   3.518  12.752  1.6537 -0.2551  1.1760
12604TIP3    H259304   2.846   3.647  12.764 -1.2201 -1.6024 -1.8787
12605TIP3   OH259305   4.104   3.500  15.100 -0.3141 -0.1165  1.0186
12605TIP3    H159306   4.027   3.547  15.131  0.2965  1.0643  0.7839
12605TIP3    H259307   4.145   3.466  15.180 -1.8648 -2.1036  1.0640
12606TIP3   OH259308   5.198   2.819  17.109  0.2299  0.4717 -0.1052
12606TIP3    H159309   5.137   2.815  17.182 -0.0289 -1.0211 -0.3752
12606TIP3    H259310   5.268   2.876  17.140 -1.5439  2.7700 -0.0229
12607TIP3   OH259311   1.006   1.575  13.212 -0.5238  0.4983  0.5753
12607TIP3    H159312   1.062   1.631  13.266  1.3625 -1.4351  0.7543
12607TIP3    H259313   0.980   1.504  13.271 -0.4052 -0.3887 -0.4230
12608TIP3   OH259314   3.492   3.613  16.060  0.0018 -0.0295 -0.3316
12608TIP3    H159315   3.558   3.606  16.129 -1.3896  1.1714  1.1918
12608TIP3    H259316   3.540   3.646  15.984  1.1518  0.8646  0.7471
12609TIP3   OH259317   5.973   5.383   6.012 -0.2685 -0.3424  0.0416
12609TIP3    H159318   5.947   5.306   6.062  1.4921 -0.0994  1.4572
12609TIP3    H259319   5.908   5.449   6.035 -0.2773 -0.6512  0.9726
12610TIP3   OH259320   4.961   5.664   4.683 -0.0925  0.0902 -0.2009
12610TIP3    H159321   4.960   5.590   4.743 -1.3724  1.0492  1.0087
12610TIP3    H259322   4.875   5.663   4.642  0.9218 -0.8521 -2.4949
12611TIP3   OH259323   1.445   0.134  16.104  0.0770 -0.0291  0.0363
12611TIP3    H159324   1.386   0.127  16.028  0.0438  0.1652  0.0433
12611TIP3    H259325   1.532   0.117  16.067  0.1352  0.6988 -0.1668
12612TIP3   OH259326   0.928   5.500   1.995  0.2247  0.4889 -0.3576
12612TIP3    H159327   0.838   5.480   2.020  0.4137  0.5112  0.3675
12612TIP3    H259328   0.975   5.507   2.079  0.8259  0.8126 -0.7174
12613TIP3   OH259329   4.117   2.954   2.065  0.1523 -0.0907  0.1806
12613TIP3    H159330   4.150   2.973   1.977  0.7233 -0.6403  0.2702
12613TIP3    H259331   4.047   2.890   2.051  0.4947 -0.4634  0.1502
12614TIP3   OH259332   1.340   1.539   3.962  0.3783  0.1337 -0.7401
12614TIP3    H159333   1.377   1.516   4.047  0.3030  0.4946 -0.6081
12614TIP3    H259334   1.401   1.504   3.898 -0.4735 -1.7495 -0.5812
12615TIP3   OH259335   3.686   0.142  14.020  0.5323 -0.5375 -0.1856
12615TIP3    H159336   3.690   0.224  13.971  2.9100 -0.3462  0.1745
12615TIP3    H259337   3.636   0.163  14.099  2.0252  0.9173  0.4235
12616TIP3   OH259338   1.188   0.229   2.767 -0.2047  0.0448  0.4582
12616TIP3    H159339   1.102   0.263   2.793 -0.9667 -1.2973 -0.1636
12616TIP3    H259340   1.245   0.248   2.840 -1.0520  0.9319  0.9051
12617TIP3   OH259341   3.098   2.431   4.950  0.6915 -0.5970 -0.0309
12617TIP3    H159342   3.088   2.356   4.891  0.7603 -0.2646 -0.4589
12617TIP3    H259343   3.116   2.505   4.893 -1.3165  0.1536  0.2090
12618TIP3   OH259344   3.650   5.918   4.309  0.5295  0.0080  0.3341
12618TIP3    H159345   3.629   5.992   4.366  1.7920  0.5082  0.1844
12618TIP3    H259346   3.722   5.949   4.255 -0.5253 -0.5119 -1.4468
12619TIP3   OH259347   1.638   0.110   2.646  0.6449 -0.0782 -0.6523
12619TIP3    H159348   1.642   0.032   2.591  0.9321 -0.8748  0.4583
12619TIP3    H259349   1.705   0.168   2.611  1.5436 -1.0074 -0.5248
12620TIP3   OH259350   6.018   1.530   5.182 -0.3122 -0.0415  0.1045
12620TIP3    H159351   6.073   1.461   5.145 -1.7168 -1.1466  0.0398
12620TIP3    H259352   6.006   1.592   5.110 -0.0590 -0.3538 -0.2092
12621TIP3   OH259353   0.030   5.171   3.096 -0.0520  0.2265 -0.0413
12621TIP3    H159354   0.022   5.135   3.007 -0.3427 -1.0096  0.4574
12621TIP3    H259355   0.106   5.126   3.132  1.2462  2.1443 -0.2881
12622TIP3   OH259356   4.584   1.514   2.417  0.6980  0.2655 -0.6462
12622TIP3    H159357   4.585   1.471   2.332  1.6263  1.0597 -1.0689
12622TIP3    H259358   4.599   1.607   2.396 -0.2811  0.6509  0.2978
12623TIP3   OH259359   1.302   6.700   5.093  0.6688  0.4624  0.0128
12623TIP3    H159360   1.259   6.735   5.015  1.4934  0.1062 -0.6121
12623TIP3    H259361   1.302   6.773   5.155 -0.9394  0.4287  0.0842
12624TIP3   OH259362   3.560   0.566  13.782 -0.2796 -0.2319  0.4366
12624TIP3    H159363   3.478   0.611  13.801 -0.7932 -1.6211  1.7274
12624TIP3    H259364   3.570   0.572  13.687 -1.6329  0.3461  0.3123
12625TIP3   OH259365   0.328   0.346   2.249  0.4533 -0.1715  0.5645
12625TIP3    H159366   0.241   0.371   2.281  1.0553  3.5404 -0.2381
12625TIP3    H259367   0.310   0.292   2.172 -1.0537 -1.4955  1.7695
12626TIP3   OH259368   6.021   2.228   0.498 -0.2764  0.1193  0.3328
12626TIP3    H159369   6.048   2.186   0.580 -1.3520  1.0781  1.2222
12626TIP3    H259370   5.930   2.202   0.487  0.2096 -1.0683 -1.2999
12627TIP3   OH259371   1.412   1.835   5.247 -0.0734  0.2215  0.3766
12627TIP3    H159372   1.422   1.750   5.204 -1.2091  0.9459 -1.4415
12627TIP3    H259373   1.339   1.822   5.307  0.5981 -0.4061  1.0952
12628TIP3   OH259374   3.652   0.026   0.060 -0.2873 -0.3503  0.0686
12628TIP3    H159375   3.675   0.029   0.153 -1.4406 -0.2228  0.3651
12628TIP3    H259376   3.557   0.012   0.060 -0.5854  1.3428 -1.0577
12629TIP3   OH259377   3.114   1.750  14.931 -0.2503 -0.3339  0.7192
12629TIP3    H159378   3.177   1.813  14.898  1.9130 -1.8540  1.7528
12629TIP3    H259379   3.124   1.674  14.873 -0.2389 -1.0398  1.6331
12630TIP3   OH259380   5.271   5.668  15.023 -0.1516  0.4140 -0.8033
12630TIP3    H159381   5.238   5.692  15.109  0.0699  1.2484 -0.9377
12630TIP3    H259382   5.211   5.601  14.992 -0.7872  0.7728 -0.3844
12631TIP3   OH259383   3.933   0.207   2.810 -0.1350  0.1307 -0.0390
12631TIP3    H159384   3.841   0.230   2.798 -0.5411 -1.4903 -0.1933
12631TIP3    H259385   3.949   0.220   2.903 -1.3476 -2.3063  0.5777
12632TIP3   OH259386   6.056   0.881  15.664  0.2717 -0.2241  0.1820
12632TIP3    H159387   6.051   0.891  15.759 -0.7541  0.7446  0.0375
12632TIP3    H259388   6.103   0.798  15.652 -0.7029 -1.0337  1.5542
12633TIP3   OH259389   3.109   3.641  15.401  0.5331  0.5683  0.2719
12633TIP3    H159390   3.029   3.686  15.374  1.0114  1.0429 -0.4116
12633TIP3    H259391   3.094   3.616  15.492 -1.1354 -1.0459 -0.3875
12634TIP3   OH259392   0.571   3.827   4.712  0.1462 -0.0866 -0.5945
12634TIP3    H159393   0.549   3.827   4.805  1.3515  0.0159 -0.2890
12634TIP3    H259394   0.630   3.752   4.702  0.6674  0.3773 -1.1043
12635TIP3   OH259395   3.609   0.254  14.722 -0.0182  0.4918 -0.4474
12635TIP3    H159396   3.688   0.220  14.678  0.5004  0.7625  0.2544
12635TIP3    H259397   3.608   0.347  14.701  0.4986  0.7189  0.4911
12636TIP3   OH259398   5.196   4.433   4.817 -0.1377  0.1181 -0.1405
12636TIP3    H159399   5.227   4.386   4.740 -2.3856  0.8756 -1.5816
12636TIP3    H259400   5.274   4.479   4.850  0.4868  1.4438 -3.1883
12637TIP3   OH259401   0.340   0.895   5.082 -0.2668  0.2807 -0.4455
12637TIP3    H159402   0.260   0.864   5.124 -1.3418  0.5215 -2.2080
12637TIP3    H259403   0.393   0.929   5.155 -1.6202 -0.1504  0.8064
12638TIP3   OH259404   4.664   2.684   4.155 -0.1229 -0.1281 -0.2608
12638TIP3    H159405   4.613   2.634   4.219  0.5333 -1.0155 -0.4083
12638TIP3    H259406   4.668   2.772   4.191 -1.7458 -0.0266 -0.2466
12639TIP3   OH259407   5.454   4.586  11.881  0.2016  0.2963 -0.2066
12639TIP3    H159408   5.490   4.673  11.897  0.6491  0.0587  0.1016
12639TIP3    H259409   5.523   4.540  11.832 -0.0303  0.1129 -0.3661
12640TIP3   OH259410   4.556   4.437  13.678  0.2689  0.4410 -0.6910
12640TIP3    H159411   4.490   4.409  13.614  0.5449  2.0608 -1.7569
12640TIP3    H259412   4.513   4.506  13.728  0.3105 -0.3013  0.3846
12641TIP3   OH259413   2.346   2.932  11.884 -0.1475  0.1713 -0.3234
12641TIP3    H159414   2.427   2.984  11.883 -0.0359  0.2514  2.9311
12641TIP3    H259415   2.279   2.993  11.914 -0.4922 -0.9491  1.2672
12642TIP3   OH259416   1.877   5.248   2.645  0.2563  0.0896  0.3049
12642TIP3    H159417   1.813   5.318   2.634  1.6862  1.6617  1.4475
12642TIP3    H259418   1.870   5.196   2.565 -3.8942 -1.1329  1.1931
12643TIP3   OH259419   5.825   2.926   5.404 -0.1127 -0.1604  0.4036
12643TIP3    H159420   5.739   2.959   5.378 -1.0296 -2.0503  0.8236
12643TIP3    H259421   5.853   2.985   5.474 -0.3135  1.4103 -0.7753
12644TIP3   OH259422   5.544   1.376   1.500 -0.5491 -0.4459 -0.1602
12644TIP3    H159423   5.453   1.370   1.529 -1.1184  0.0047 -1.7486
12644TIP3    H259424   5.569   1.285   1.483 -0.7297 -0.5639  0.1852
12645TIP3   OH259425   1.690   2.831  11.239 -0.3394  0.2487 -0.0611
12645TIP3    H159426   1.785   2.839  11.235 -0.4118  2.0845  0.9982
12645TIP3    H259427   1.672   2.744  11.203  1.7462 -0.2735  0.0324
12646TIP3   OH259428   0.325   2.571  13.787 -0.2589  0.5641  0.0632
12646TIP3    H159429   0.257   2.622  13.831 -0.8387 -0.2457  0.1440
12646TIP3    H259430   0.280   2.490  13.762  1.2080 -1.0290  2.2109
12647TIP3   OH259431   4.682   1.760  13.037  0.4118  0.5274 -0.4107
12647TIP3    H159432   4.677   1.706  12.958  0.8275  0.5202 -0.4364
12647TIP3    H259433   4.752   1.720  13.089  0.5043  0.8526 -0.2818
12648TIP3   OH259434   1.024   1.284  14.756 -0.0098  0.3179 -0.5587
12648TIP3    H159435   0.972   1.210  14.724  0.5481 -0.3073 -0.0695
12648TIP3    H259436   1.069   1.317  14.678 -1.2095  0.9422 -1.0086
12649TIP3   OH259437   1.435   6.008  12.887  0.3388  0.3490 -0.0109
12649TIP3    H159438   1.390   6.062  12.952  1.3931  0.8563  0.3340
12649TIP3    H259439   1.365   5.971  12.833 -0.5076  0.6442  0.8511
12650TIP3   OH259440   5.181   0.098  11.776 -0.0395 -0.3070 -0.0205
12650TIP3    H159441   5.165   0.081  11.869 -0.8085  0.8766  0.0908
12650TIP3    H259442   5.243   0.171  11.775  0.5305 -0.7825 -0.4545
12651TIP3   OH259443   6.514   3.239   5.083 -0.4344  0.0842 -0.6471
12651TIP3    H159444   6.439   3.210   5.136 -0.8078  0.0763 -1.1765
12651TIP3    H259445   6.578   3.168   5.091 -0.3341  0.2415  0.0885
12652TIP3   OH259446   6.420   4.461   0.263 -0.5754 -0.1729 -0.2301
12652TIP3    H159447   6.505   4.501   0.285 -0.2301  0.3904 -2.3431
12652TIP3    H259448   6.443   4.385   0.209 -1.4142  0.8844 -2.1556
12653TIP3   OH259449   6.741   4.375   0.746 -0.4829 -0.1613  0.0615
12653TIP3    H159450   6.782   4.307   0.692 -0.1300 -1.0006  1.3384
12653TIP3    H259451   6.647   4.365   0.731 -0.6139 -2.4430  1.8878
12654TIP3   OH259452   3.442   1.455  13.235  0.2623  0.2401 -0.1547
12654TIP3    H159453   3.445   1.382  13.173 -2.9171  0.6112 -0.8928
12654TIP3    H259454   3.380   1.517  13.197 -1.2047  0.8918  2.9867
12655TIP3   OH259455   3.588   2.475  10.713  0.6247 -0.2632  0.3811
12655TIP3    H159456   3.591   2.543  10.780  1.6173 -0.2788  0.3690
12655TIP3    H259457   3.660   2.416  10.736  0.4070 -0.7627 -0.1859
12656TIP3   OH259458   5.185   3.686   5.790 -0.6103 -0.6479  0.4320
12656TIP3    H159459   5.213   3.597   5.767 -0.0516 -0.4922  0.5045
12656TIP3    H259460   5.228   3.704   5.873 -2.2561 -1.0322  1.4182
12657TIP3   OH259461   4.042   4.049   4.253 -0.1278 -0.0543 -0.0066
12657TIP3    H159462   4.062   4.069   4.161  0.7684  1.3807  0.4691
12657TIP3    H259463   3.996   3.965   4.249 -1.6272  0.7661 -1.9139
12658TIP3   OH259464   0.923   2.951   3.065 -0.2636 -0.3402 -0.2123
12658TIP3    H159465   0.914   3.046   3.059  0.5684 -0.2797 -0.6656
12658TIP3    H259466   0.864   2.916   2.998 -0.5723 -0.1419 -0.0419
12659TIP3   OH259467   5.774   0.611   5.157 -0.3755  0.2088 -0.8226
12659TIP3    H159468   5.747   0.532   5.110 -1.0134 -0.4725  0.6157
12659TIP3    H259469   5.863   0.591   5.188 -0.6983 -0.1473 -0.0907
12660TIP3   OH259470   5.402   5.878   3.768 -0.1684  0.3535 -0.0898
12660TIP3    H159471   5.467   5.907   3.704 -1.0991  0.8274 -0.8403
12660TIP3    H259472   5.363   5.800   3.729 -0.9936  0.8544 -0.2762
12661TIP3   OH259473   6.459   5.957   4.230 -0.0482  0.5483 -0.4313
12661TIP3    H159474   6.448   5.953   4.135  0.7750 -1.4019 -0.4982
12661TIP3    H259475   6.552   5.937   4.244 -0.0606  1.2207  0.7737
12662TIP3   OH259476   2.802   1.543   1.413 -0.1385  0.3862 -0.5766
12662TIP3    H159477   2.822   1.568   1.323 -0.9341  2.8913 -0.1406
12662TIP3    H259478   2.727   1.484   1.405 -1.5272  2.2000 -1.4965
12663TIP3   OH259479   6.080   4.276  14.609 -0.1179  0.1206 -0.5291
12663TIP3    H159480   6.127   4.335  14.550  0.4976  0.8073  0.6116
12663TIP3    H259481   6.123   4.191  14.597  1.2591  0.6752  0.2800
12664TIP3   OH259482   2.619   5.885   1.763 -0.2724 -0.1252  0.3643
12664TIP3    H159483   2.612   5.977   1.737  2.2810 -0.3853 -1.6100
12664TIP3    H259484   2.686   5.885   1.832 -0.2612 -0.4943  0.3547
12665TIP3   OH259485   5.653   6.596  11.798 -0.0395 -0.5256  0.7055
12665TIP3    H159486   5.579   6.633  11.751  0.0339  1.1067  1.7784
12665TIP3    H259487   5.614   6.548  11.871 -0.0967  1.1415  1.8421
12666TIP3   OH259488   6.355   6.752   4.300 -0.7107 -0.2594 -0.7769
12666TIP3    H159489   6.348   6.805   4.221  2.3474 -1.3004 -1.9141
12666TIP3    H259490   6.348   6.661   4.268  2.0803 -0.7671 -0.2223
12667TIP3   OH259491   6.220   5.571   1.059 -0.2333 -0.0598  0.5080
12667TIP3    H159492   6.263   5.533   0.983  0.3233 -1.2296  1.3689
12667TIP3    H259493   6.183   5.654   1.028  1.1499  0.1452 -0.6846
12668TIP3   OH259494   2.388   5.156  16.565 -0.6995 -0.3971 -0.1785
12668TIP3    H159495   2.479   5.159  16.534 -0.7817 -0.3454 -0.4190
12668TIP3    H259496   2.395   5.161  16.660 -0.5193  1.9646 -0.2515
12669TIP3   OH259497   0.939   5.609  12.380  0.1884  0.1730  0.3440
12669TIP3    H159498   0.853   5.575  12.403  0.8047 -0.8726  1.2208
12669TIP3    H259499   0.925   5.660  12.300 -0.9218 -1.6388 -0.6979
12670TIP3   OH259500   3.862   4.124  12.096 -0.7781  0.5109  0.0305
12670TIP3    H159501   3.795   4.120  12.163 -0.0570  0.6532  0.7780
12670TIP3    H259502   3.837   4.057  12.032 -1.3111  0.1680  0.5935
12671TIP3   OH259503   3.885   2.572  15.897 -0.5118 -0.1411  0.7876
12671TIP3    H159504   3.792   2.575  15.917 -0.7418  0.5290 -0.2633
12671TIP3    H259505   3.889   2.577  15.801  0.6143  0.3699  0.8377
12672TIP3   OH259506   0.548   3.616   4.976 -0.0031  0.0895 -0.6825
12672TIP3    H159507   0.584   3.691   5.023  1.0488 -0.1991 -0.9898
12672TIP3    H259508   0.469   3.592   5.024  0.9178 -0.0622  0.8184
12673TIP3   OH259509   0.988   4.929  15.636  0.4849  0.1590 -0.1100
12673TIP3    H159510   0.988   4.973  15.721  0.2497 -1.0570  0.5375
12673TIP3    H259511   1.013   4.838  15.655  2.4002  0.2871 -1.5748
12674TIP3   OH259512   4.646   2.449   5.433  0.5826  0.1199  0.6513
12674TIP3    H159513   4.649   2.540   5.463  2.4393  0.3008  0.0261
12674TIP3    H259514   4.735   2.429   5.406  0.1559 -1.8210  0.5122
12675TIP3   OH259515   4.969   6.225   2.920  0.2113  0.2035 -0.4148
12675TIP3    H159516   4.962   6.262   2.832  0.7690  0.3846 -0.3817
12675TIP3    H259517   4.895   6.263   2.968 -1.0984 -1.1688 -1.2582
12676TIP3   OH259518   0.288   0.676   2.585  0.4070  0.0380 -0.1002
12676TIP3    H159519   0.333   0.759   2.569  1.6887 -0.2149  1.9004
12676TIP3    H259520   0.354   0.609   2.569 -0.1475 -0.5196 -0.0904
12677TIP3   OH259521   2.912   4.571  16.705 -0.2191 -0.2522 -0.0129
12677TIP3    H159522   2.905   4.543  16.796 -0.0208  0.8057  0.3409
12677TIP3    H259523   3.000   4.609  16.699 -0.8078  1.1122 -0.2283
12678TIP3   OH259524   4.812   5.271   4.514 -0.4330 -0.1137  0.0390
12678TIP3    H159525   4.890   5.322   4.490 -0.3939 -0.7959 -1.4098
12678TIP3    H259526   4.809   5.201   4.449 -0.8874 -1.5558  1.5425
12679TIP3   OH259527   0.695   2.673   3.132  0.1531 -0.0654  0.0880
12679TIP3    H159528   0.766   2.620   3.095  2.1141  1.4268  1.4679
12679TIP3    H259529   0.696   2.753   3.080 -4.2155 -1.8942 -3.4204
12680TIP3   OH259530   4.175   3.043   6.363  0.1135  0.6371  0.1359
12680TIP3    H159531   4.190   3.116   6.424  0.3938  1.8945 -1.3899
12680TIP3    H259532   4.092   3.005   6.392 -0.0145  1.5179  0.9971
12681TIP3   OH259533   6.578   4.000   3.752 -0.1264  0.3088  0.1476
12681TIP3    H159534   6.516   3.998   3.679 -0.3905  1.8569  0.2983
12681TIP3    H259535   6.543   4.067   3.811  0.5399 -0.3219  1.3008
12682TIP3   OH259536   5.802   0.515   4.124 -0.4692 -0.2373 -0.1945
12682TIP3    H159537   5.844   0.445   4.173  0.7005 -1.9853 -3.3617
12682TIP3    H259538   5.875   0.565   4.088 -1.2814  1.3065  0.2182
12683TIP3   OH259539   1.793   2.073  11.505 -0.9130  0.7821 -0.2471
12683TIP3    H159540   1.764   2.164  11.496 -3.0080  0.1147 -0.9996
12683TIP3    H259541   1.834   2.070  11.591 -1.4091  2.2971  0.0912
12684TIP3   OH259542   4.133   4.969  15.909  0.3322 -0.6775 -0.4157
12684TIP3    H159543   4.058   5.021  15.937  0.5967 -0.2998 -0.4073
12684TIP3    H259544   4.095   4.901  15.853  0.0399 -0.1686 -0.8426
12685TIP3   OH259545   2.375   2.322  12.926 -0.2660  0.5499 -0.7453
12685TIP3    H159546   2.303   2.317  12.989 -0.9260  2.2024 -1.3050
12685TIP3    H259547   2.333   2.351  12.845  0.6795 -0.8349 -1.7739
12686TIP3   OH259548   0.245   6.589   2.628 -0.3477  0.0292  0.2085
12686TIP3    H159549   0.296   6.657   2.672 -0.2647  0.2529 -0.2322
12686TIP3    H259550   0.172   6.636   2.587  0.8752  0.1944 -1.9507
12687TIP3   OH259551   5.353   0.700   3.125  0.4588  0.0263  0.1384
12687TIP3    H159552   5.296   0.757   3.176  2.0428  3.2429 -1.4170
12687TIP3    H259553   5.375   0.629   3.186 -1.4768  1.0797  2.2643
12688TIP3   OH259554   5.995   2.377  11.795 -0.5152 -0.4956  0.1566
12688TIP3    H159555   5.902   2.357  11.797 -0.7524  0.5498  1.7604
12688TIP3    H259556   5.999   2.472  11.790  0.3667 -0.3087  2.6429
12689TIP3   OH259557   3.560   3.057   0.339  0.1390 -0.1216  0.0824
12689TIP3    H159558   3.506   3.128   0.305 -0.1565 -0.7714 -0.8466
12689TIP3    H259559   3.619   3.036   0.267 -0.0546 -1.0860  0.1940
12690TIP3   OH259560   6.128   2.245  11.998  0.1973 -0.7915  0.5968
12690TIP3    H159561   6.157   2.330  12.032  0.3138 -0.9622  0.9344
12690TIP3    H259562   6.052   2.265  11.944  0.5058 -0.4192  0.2946
12691TIP3   OH259563   4.896   6.584  16.038  0.2243 -0.6520  0.3236
12691TIP3    H159564   4.807   6.576  16.073 -0.1109  0.6266 -0.1865
12691TIP3    H259565   4.918   6.677  16.048  1.6487 -1.0203  0.7752
12692TIP3   OH259566   0.181   4.473   0.602 -0.1537 -0.2753  0.0458
12692TIP3    H159567   0.275   4.484   0.584 -0.3045 -1.2167 -1.5183
12692TIP3    H259568   0.166   4.379   0.591 -1.4692  0.0009 -0.7094
12693TIP3   OH259569   6.378   0.587   5.654  0.0192 -0.5396 -0.3095
12693TIP3    H159570   6.336   0.657   5.704  0.8288 -0.5214  0.3486
12693TIP3    H259571   6.379   0.620   5.564 -0.4164 -0.0916 -0.1552
12694TIP3   OH259572   5.954   0.087  11.301 -0.1174  0.3648  0.0387
12694TIP3    H159573   5.927   0.012  11.247 -0.1904 -0.9056  1.7771
12694TIP3    H259574   5.872   0.128  11.327 -0.0980  0.7041 -0.4233
12695TIP3   OH259575   6.726   1.404   3.757  0.1116  0.0962  0.4629
12695TIP3    H159576   6.802   1.430   3.810 -0.4599  0.2440  1.2335
12695TIP3    H259577   6.661   1.377   3.822  0.2156 -2.0188 -0.2398
12696TIP3   OH259578   6.285   2.750  16.563 -0.5904  0.3731 -0.1035
12696TIP3    H159579   6.297   2.779  16.472  3.2151 -0.2041  0.0519
12696TIP3    H259580   6.204   2.699  16.561 -0.8143  0.6444 -3.1007
12697TIP3   OH259581   0.648   3.176   2.867 -0.3165 -0.1225 -0.4446
12697TIP3    H159582   0.678   3.267   2.855  1.2708 -0.5972 -0.3386
12697TIP3    H259583   0.555   3.178   2.845 -0.2504  1.4802 -0.6950
12698TIP3   OH259584   2.706   1.730  11.782 -1.2486 -0.1172 -0.0089
12698TIP3    H159585   2.788   1.706  11.739 -0.6723 -0.1258  1.0732
12698TIP3    H259586   2.679   1.811  11.739 -1.1251 -0.5643 -0.9522
12699TIP3   OH259587   6.378   2.708  16.828  0.0454 -0.6649  0.2071
12699TIP3    H159588   6.341   2.796  16.833 -2.0958 -1.3174 -2.0700
12699TIP3    H259589   6.353   2.676  16.741  0.6275 -3.5640  0.9959
12700TIP3   OH259590   4.169   6.116   2.757 -0.1719  0.2297 -0.0774
12700TIP3    H159591   4.175   6.182   2.826 -0.9030  0.8161 -0.5660
12700TIP3    H259592   4.261   6.096   2.735  0.0630  0.2823  0.8127
12701TIP3   OH259593   2.077   3.013   1.328 -0.4115 -0.0622  0.0027
12701TIP3    H159594   2.002   2.976   1.374  1.4273  0.1169  3.5899
12701TIP3    H259595   2.137   2.939   1.317 -0.7087 -0.0528 -2.1332
12702TIP3   OH259596   4.856   0.857  11.040 -0.4937 -0.4105 -0.2672
12702TIP3    H159597   4.777   0.810  11.067 -1.8359  1.2250 -1.1403
12702TIP3    H259598   4.847   0.865  10.945 -0.3809  1.7058 -0.1284
12703TIP3   OH259599   0.312   6.624  15.671 -0.0728 -0.3188 -0.1662
12703TIP3    H159600   0.402   6.654  15.680  0.2953 -1.3419 -0.2377
12703TIP3    H259601   0.264   6.700  15.639  0.3782  0.7898  1.6627
12704TIP3   OH259602   6.398   2.933  12.864  0.0183  0.4766  0.2956
12704TIP3    H159603   6.355   3.014  12.837 -1.4589 -0.1074  0.7875
12704TIP3    H259604   6.390   2.931  12.959  1.5962  0.5759  0.4534
12705TIP3   OH259605   3.968   6.026   5.551  0.5697 -0.0782 -0.0828
12705TIP3    H159606   3.952   5.946   5.601  0.4371  0.1687  0.2735
12705TIP3    H259607   3.881   6.056   5.524  0.5390  0.4558  0.5886
12706TIP3   OH259608   6.443   3.809  11.281  0.1620  0.0017 -0.8474
12706TIP3    H159609   6.446   3.719  11.246  1.8435 -0.0459 -0.6622
12706TIP3    H259610   6.515   3.853  11.237 -0.6371  1.2855 -0.9119
12707TIP3   OH259611   6.582   0.461   1.046 -0.0045  0.2318 -0.5318
12707TIP3    H159612   6.580   0.530   1.113 -0.6723 -0.6005  0.3366
12707TIP3    H259613   6.521   0.491   0.979 -0.1871  0.5580 -0.2225
12708TIP3   OH259614   3.770   5.439   5.274  0.0125  0.2515  0.4182
12708TIP3    H159615   3.695   5.474   5.323 -0.6183 -0.1963 -0.2114
12708TIP3    H259616   3.731   5.398   5.197  0.8441 -0.7739  0.5293
12709TIP3   OH259617   3.853   2.644   0.077  0.8769  0.1951  0.6278
12709TIP3    H159618   3.829   2.688   0.158  2.1473  0.0377  1.1121
12709TIP3    H259619   3.888   2.559   0.104 -1.8434 -1.3260 -0.3146
12710TIP3   OH259620   1.878   4.075   6.157  0.5560  0.2943  0.9678
12710TIP3    H159621   1.916   3.997   6.198  1.1337  0.6259  1.0883
12710TIP3    H259622   1.799   4.093   6.208  0.6826  0.0672  1.2482
12711TIP3   OH259623   4.492   5.938  16.715 -0.1038  0.5298  0.2595
12711TIP3    H159624   4.544   5.934  16.635  0.4499  0.1869  0.6301
12711TIP3    H259625   4.538   5.881  16.777 -0.7086  0.5256  0.7160
12712TIP3   OH259626   4.254   6.172  12.478  0.1770  0.1437 -0.1623
12712TIP3    H159627   4.347   6.161  12.460  0.3199 -0.6609  0.9940
12712TIP3    H259628   4.212   6.167  12.391  1.0740 -0.9302 -0.5525
12713TIP3   OH259629   3.158   6.501   4.092 -0.3180 -0.5756  0.1537
12713TIP3    H159630   3.206   6.575   4.054 -0.3027 -0.6264  0.0730
12713TIP3    H259631   3.120   6.456   4.017 -0.6195 -0.4485  0.2307
12714TIP3   OH259632   4.514   1.412  12.343  0.2814 -0.1060  0.2442
12714TIP3    H159633   4.476   1.366  12.419  0.1614 -0.8357 -0.2457
12714TIP3    H259634   4.608   1.416  12.362  0.4620 -1.5596 -0.1985
12715TIP3   OH259635   5.891   3.348   2.796 -0.3262 -0.3808  0.1360
12715TIP3    H159636   5.884   3.283   2.726 -2.2021  1.6992 -1.7728
12715TIP3    H259637   5.960   3.407   2.766 -0.5465  0.0576  0.4826
12716TIP3   OH259638   0.643   5.027  15.791 -0.0213  0.1628 -0.0940
12716TIP3    H159639   0.673   4.949  15.838  0.8050  0.2887 -0.3986
12716TIP3    H259640   0.663   5.099  15.851 -0.4633  0.1836  0.0377
12717TIP3   OH259641   3.794   3.854  13.038 -0.6578 -1.0289 -0.1626
12717TIP3    H159642   3.879   3.811  13.044  0.1909  0.2674 -1.9642
12717TIP3    H259643   3.763   3.858  13.129  1.7499 -0.4798  0.7240
12718TIP3   OH259644   4.809   0.586   3.220 -0.1515 -0.4257  0.1311
12718TIP3    H159645   4.741   0.528   3.187 -0.9626 -0.8001  2.2853
12718TIP3    H259646   4.796   0.586   3.315 -0.7768  3.9148  0.2642
12719TIP3   OH259647   3.221   6.511   5.439 -0.8768 -0.2832  0.4850
12719TIP3    H159648   3.274   6.588   5.459 -1.6981  0.3052  0.4397
12719TIP3    H259649   3.273   6.462   5.375 -1.3442  1.3940 -1.2421
12720TIP3   OH259650   6.454   2.696   1.363 -0.8325 -0.5707 -0.4379
12720TIP3    H159651   6.463   2.788   1.388  0.7855 -0.6097 -0.7784
12720TIP3    H259652   6.544   2.666   1.349 -1.3775 -2.0045 -1.0565
12721TIP3   OH259653   6.411   3.606  14.437 -0.0359 -0.4263  0.5857
12721TIP3    H159654   6.435   3.568  14.352  0.2227 -1.4380  1.0932
12721TIP3    H259655   6.351   3.542  14.475  0.8850 -0.6491  1.7221
12722TIP3   OH259656   5.535   1.721   3.516  0.0637 -0.0637  0.1871
12722TIP3    H159657   5.614   1.760   3.480  0.4287  0.8417  1.8692
12722TIP3    H259658   5.525   1.639   3.468  0.4976  1.0376 -1.9118
12723TIP3   OH259659   1.097   1.943  16.014 -0.1534  0.0742 -0.5291
12723TIP3    H159660   1.143   1.905  16.089 -2.3405  0.5481  1.1497
12723TIP3    H259661   1.034   2.003  16.053 -1.0767  0.6604 -2.8036
12724TIP3   OH259662   4.837   2.751   2.554 -0.0182 -0.4878 -0.2181
12724TIP3    H159663   4.883   2.759   2.470  0.1034 -2.4107 -0.3750
12724TIP3    H259664   4.901   2.711   2.613 -1.1360 -2.2847 -0.1632
12725TIP3   OH259665   5.670   3.089  16.521  0.2959 -0.3977 -0.3561
12725TIP3    H159666   5.753   3.070  16.478  0.1871 -2.0631  0.0720
12725TIP3    H259667   5.606   3.092  16.450 -0.0811 -4.2511 -0.4077
12726TIP3   OH259668   3.696   4.155   3.069  0.2600  0.0716 -0.2703
12726TIP3    H159669   3.648   4.073   3.059  2.6599 -1.3187 -1.0925
12726TIP3    H259670   3.697   4.170   3.164 -1.8737  0.2811 -0.2223
12727TIP3   OH259671   0.610   2.282  13.823  0.2637 -0.3434  0.2141
12727TIP3    H159672   0.515   2.285  13.835  0.3805  1.0971  1.1317
12727TIP3    H259673   0.623   2.302  13.731 -0.3336 -1.2515 -0.0831
12728TIP3   OH259674   4.850   4.409   1.533  0.1385 -0.1874 -0.4652
12728TIP3    H159675   4.782   4.346   1.555  0.2006  0.2705  1.1755
12728TIP3    H259676   4.804   4.480   1.489 -0.1279 -0.7808 -1.1586
12729TIP3   OH259677   2.938   4.338   0.461 -0.4063 -0.3164  0.1954
12729TIP3    H159678   2.932   4.302   0.373 -2.2451 -3.4972  1.4570
12729TIP3    H259679   2.847   4.346   0.490  0.1397 -1.3919  2.4727
12730TIP3   OH259680   2.646   3.292   3.000  0.7572 -0.3854 -0.2837
12730TIP3    H159681   2.647   3.350   2.925  1.1787  1.0913  0.8256
12730TIP3    H259682   2.626   3.206   2.963  1.1059  0.2622 -2.0868
12731TIP3   OH259683   3.381   1.310  15.954  0.5496 -0.1542 -0.1391
12731TIP3    H159684   3.449   1.244  15.971 -1.6955 -2.0103  2.5154
12731TIP3    H259685   3.325   1.270  15.888 -1.0465 -1.2301  1.7676
12732TIP3   OH259686   1.938   6.470   2.377 -0.1175  0.5672 -0.4464
12732TIP3    H159687   1.851   6.490   2.413 -0.2568 -1.6546  0.5695
12732TIP3    H259688   1.945   6.375   2.381  1.7307  0.5652 -2.0908
12733TIP3   OH259689   0.259   0.992   5.942 -0.0547  0.2207 -0.1430
12733TIP3    H159690   0.207   0.918   5.909 -0.7597  0.3304  0.6762
12733TIP3    H259691   0.322   0.952   6.002  0.0169  0.2122 -0.2243
12734TIP3   OH259692   1.400   1.086   4.992  0.1304 -0.3930  0.6186
12734TIP3    H159693   1.419   1.157   5.053 -1.1834 -0.2319  0.8655
12734TIP3    H259694   1.315   1.052   5.020 -1.3598  0.7641 -2.0718
12735TIP3   OH259695   4.177   1.178  16.596  0.3748  0.5155  0.1056
12735TIP3    H159696   4.173   1.166  16.501  0.5123 -1.1918  0.2937
12735TIP3    H259697   4.268   1.202  16.613  0.5886 -0.1315 -0.1011
12736TIP3   OH259698   1.317   1.478  10.766 -0.7878 -0.0601  0.3831
12736TIP3    H159699   1.243   1.463  10.708 -1.3138  0.0456  1.0146
12736TIP3    H259700   1.362   1.394  10.771 -0.3587  0.0910 -0.6813
12737TIP3   OH259701   6.686   3.560   0.166  0.1367 -0.5958  0.1864
12737TIP3    H159702   6.721   3.502   0.233  0.2163 -1.5257 -0.6367
12737TIP3    H259703   6.748   3.553   0.093 -0.4152 -0.3058 -0.3258
12738TIP3   OH259704   6.352   3.290  13.481  0.4046  0.1759 -0.1373
12738TIP3    H159705   6.397   3.206  13.485 -0.1777 -0.1862 -0.9355
12738TIP3    H259706   6.415   3.352  13.519  0.7696 -0.6310  0.6311
12739TIP3   OH259707   5.491   3.726   4.980  0.0052  0.4635 -0.3902
12739TIP3    H159708   5.461   3.681   4.901 -1.7267  1.2446 -0.2188
12739TIP3    H259709   5.511   3.815   4.952  0.0814  0.5433 -0.0864
12740TIP3   OH259710   2.253   2.404  16.701 -0.0176 -0.0519 -0.3418
12740TIP3    H159711   2.181   2.409  16.639  1.7792  0.6736 -2.4936
12740TIP3    H259712   2.324   2.362  16.653  0.2692 -3.2863  2.5205
12741TIP3   OH259713   2.190   4.604  13.205 -0.0389  0.1844 -1.1307
12741TIP3    H159714   2.242   4.536  13.247 -1.2679 -0.3312 -0.3932
12741TIP3    H259715   2.152   4.562  13.128 -2.2358 -0.5529  0.2846
12742TIP3   OH259716   5.035   5.312  12.447 -0.4114 -0.3083  0.4248
12742TIP3    H159717   5.061   5.402  12.426  0.2942 -0.5173  0.3620
12742TIP3    H259718   5.118   5.263  12.448 -0.2299 -0.2105  4.2170
12743TIP3   OH259719   3.762   2.885  12.870  0.0075 -0.6875 -0.1761
12743TIP3    H159720   3.675   2.893  12.831 -0.2330  1.4689  0.6661
12743TIP3    H259721   3.822   2.892  12.795 -0.5074 -1.5859 -0.6897
12744TIP3   OH259722   2.844   4.547   0.832 -0.0149  0.3105 -0.2625
12744TIP3    H159723   2.781   4.556   0.760  1.4153  1.8153 -1.3880
12744TIP3    H259724   2.790   4.519   0.906 -1.6018 -0.9324 -1.7777
12745TIP3   OH259725   6.188   3.836  11.348 -0.3628 -0.0978 -0.3720
12745TIP3    H159726   6.282   3.843  11.332 -0.3757 -1.4675 -1.1376
12745TIP3    H259727   6.159   3.927  11.359  0.5783  0.5789 -2.8197
12746TIP3   OH259728   0.846   2.290  16.795 -0.1559  0.2640  0.4598
12746TIP3    H159729   0.923   2.339  16.765  0.1758 -0.2842  0.4012
12746TIP3    H259730   0.774   2.352  16.789 -0.0366  0.2698 -1.1537
12747TIP3   OH259731   0.611   6.646  16.219 -0.2632  0.0131 -0.2356
12747TIP3    H159732   0.658   6.729  16.207  2.5215 -1.1552  1.5453
12747TIP3    H259733   0.600   6.638  16.314 -1.0998 -1.3377 -0.4233
12748TIP3   OH259734   4.332   0.577   2.254  0.5884  0.3663  0.2436
12748TIP3    H159735   4.358   0.485   2.260  0.1589  0.2449  0.2831
12748TIP3    H259736   4.269   0.579   2.182 -1.7951  0.0439  2.1814
12749TIP3   OH259737   5.776   2.746   6.391  0.0283 -0.1809  0.1761
12749TIP3    H159738   5.862   2.715   6.362  0.0186 -0.4370  0.4187
12749TIP3    H259739   5.786   2.842   6.395  0.9851 -0.3096  2.2921
12750TIP3   OH259740   5.760   4.282   4.739 -0.2768 -0.2558  0.3012
12750TIP3    H159741   5.771   4.318   4.652 -0.4117 -0.2404  0.2896
12750TIP3    H259742   5.748   4.188   4.725  0.0004 -0.2944  0.3259
12751TIP3   OH259743   3.632   3.573  16.510 -0.0021 -0.1058  0.1715
12751TIP3    H159744   3.685   3.639  16.465  0.7155 -1.4251 -1.0050
12751TIP3    H259745   3.567   3.624  16.560  1.2911  1.4980  0.3006
12752TIP3   OH259746   1.039   6.148  11.136  0.5129 -0.0371 -0.7230
12752TIP3    H159747   1.076   6.068  11.174 -0.2941 -0.5378 -0.9424
12752TIP3    H259748   0.981   6.183  11.204 -0.1485 -0.3768 -1.0943
12753TIP3   OH259749   5.329   0.774   0.079 -0.5452  0.5498  0.6581
12753TIP3    H159750   5.389   0.848   0.083  0.8820 -0.5220 -0.1584
12753TIP3    H259751   5.290   0.779  -0.008  0.4055 -0.2688  0.1655
12754TIP3   OH259752   2.883   4.246  13.774  0.7106  0.2027  0.2237
12754TIP3    H159753   2.834   4.174  13.813  1.3442 -0.5234 -0.2793
12754TIP3    H259754   2.817   4.299  13.730  0.1361  0.3926  1.2844
12755TIP3   OH259755   5.698   2.125   1.727 -0.5322 -0.1421 -0.0531
12755TIP3    H159756   5.783   2.090   1.702  0.1281  1.1721  0.2441
12755TIP3    H259757   5.719   2.207   1.772 -1.9492  0.1404  0.1230
12756TIP3   OH259758   0.938   4.705   3.283 -0.5181  0.3821 -0.2457
12756TIP3    H159759   0.863   4.745   3.237  1.3476  2.6334 -1.5483
12756TIP3    H259760   0.972   4.640   3.221 -0.6749  0.2109 -0.1531
12757TIP3   OH259761   3.215   0.401   3.864  0.2739  0.1520  0.9366
12757TIP3    H159762   3.176   0.458   3.799  0.9558  0.4087  0.7437
12757TIP3    H259763   3.309   0.400   3.843  0.7195  1.2185  2.6372
12758TIP3   OH259764   1.951   3.281   4.959  0.7929  0.1633  0.3849
12758TIP3    H159765   1.993   3.201   4.926 -0.0008 -0.5183  0.9732
12758TIP3    H259766   1.876   3.295   4.901 -0.9846 -1.4026  2.1672
12759TIP3   OH259767   2.842   5.134  14.595  0.4564 -0.1805 -0.5612
12759TIP3    H159768   2.868   5.051  14.554 -1.5150 -1.5403  0.7835
12759TIP3    H259769   2.879   5.129  14.684 -0.0413  0.1768 -0.3325
12760TIP3   OH259770   2.037   6.677  12.620 -0.3513  0.4514 -0.5079
12760TIP3    H159771   2.117   6.730  12.627  0.1959 -0.3347 -0.6509
12760TIP3    H259772   1.995   6.686  12.706  1.1673 -1.0857  0.4672
12761TIP3   OH259773   0.524   1.946  12.932  0.0610  0.1996 -0.4627
12761TIP3    H159774   0.471   1.872  12.964 -0.6081  0.8610  0.0035
12761TIP3    H259775   0.459   2.006  12.895  0.5154  0.9138 -0.1043
12762TIP3   OH259776   6.524   4.972  15.537 -0.3458  0.3343  0.0520
12762TIP3    H159777   6.589   5.030  15.577  0.0674  0.8078 -1.2298
12762TIP3    H259778   6.575   4.913  15.482 -0.9260  0.0343 -0.1709
12763TIP3   OH259779   6.202   5.544   2.840  0.2161 -0.2925  0.1589
12763TIP3    H159780   6.200   5.562   2.934 -1.2940 -0.8552  0.2554
12763TIP3    H259781   6.245   5.459   2.832  0.8319 -0.0025  0.2725
12764TIP3   OH259782   6.226   6.478  14.499 -0.0147  0.0860  0.0214
12764TIP3    H159783   6.157   6.447  14.440 -0.3024 -0.5339  0.6718
12764TIP3    H259784   6.298   6.417  14.486 -0.3425 -0.4895  0.8257
12765TIP3   OH259785   2.861   5.403   5.907  0.1410  0.1216 -0.5614
12765TIP3    H159786   2.884   5.329   5.963 -1.5084 -0.9461 -1.2164
12765TIP3    H259787   2.915   5.391   5.829  1.2025  0.6634  0.0635
12766TIP3   OH259788   2.749   6.549  16.063 -0.0396  0.3632  0.2395
12766TIP3    H159789   2.687   6.560  16.135 -0.8693 -2.2295  0.0312
12766TIP3    H259790   2.835   6.563  16.103 -0.6110  3.2075  0.7155
12767TIP3   OH259791   2.327   1.573   5.299  0.4192 -0.7329 -0.1910
12767TIP3    H159792   2.345   1.485   5.268  1.4517 -0.5884 -0.0552
12767TIP3    H259793   2.413   1.608   5.323 -0.1351 -0.2161  1.1676
12768TIP3   OH259794   2.790   5.247   3.872  0.3981  0.2933  0.2470
12768TIP3    H159795   2.695   5.240   3.862  0.4367 -1.8393  0.9875
12768TIP3    H259796   2.821   5.274   3.786 -0.9115  1.7714  0.1911
12769TIP3   OH259797   2.125   6.099  11.750  0.0587  0.1898  0.1549
12769TIP3    H159798   2.065   6.082  11.822  0.5438  0.3290  0.5960
12769TIP3    H259799   2.212   6.098  11.790  0.1980  2.7311  0.0623
12770TIP3   OH259800   0.724   3.953   3.751 -0.2945  0.3686  0.2249
12770TIP3    H159801   0.696   3.964   3.842 -0.2406 -0.4213  0.3451
12770TIP3    H259802   0.750   3.861   3.745  0.7256  0.6763 -0.3085
12771TIP3   OH259803   2.815   3.387  12.691  0.7777  0.0093  0.0956
12771TIP3    H159804   2.776   3.308  12.728  2.1161 -0.2288  1.0599
12771TIP3    H259805   2.757   3.410  12.618 -0.9652 -0.4842  1.2685
12772TIP3   OH259806   5.483   0.450   4.578 -0.5589  0.0169 -0.2039
12772TIP3    H159807   5.430   0.525   4.605 -0.7942 -0.5531  0.9888
12772TIP3    H259808   5.434   0.374   4.610  1.1827 -0.5051  1.3935
12773TIP3   OH259809   1.529   2.720   0.625 -0.3476 -0.0239  0.3041
12773TIP3    H159810   1.455   2.746   0.570  1.4090  1.5433 -1.4808
12773TIP3    H259811   1.581   2.799   0.634  1.9768 -1.4337  0.0792
12774TIP3   OH259812   6.700   0.874  16.708  0.0801  0.0755  0.0456
12774TIP3    H159813   6.637   0.897  16.640  0.4034  1.7407  0.2715
12774TIP3    H259814   6.703   0.778  16.706 -1.3479  0.0138 -0.9562
12775TIP3   OH259815   2.017   6.090   4.084  0.6289  0.1385  0.1538
12775TIP3    H159816   2.037   6.175   4.044  1.4183  0.1103  0.4820
12775TIP3    H259817   1.923   6.079   4.070  0.2424  1.6796  1.2741
12776TIP3   OH259818   5.421   0.849  11.475 -0.3545 -0.1593 -0.0532
12776TIP3    H159819   5.353   0.833  11.540 -1.5800  1.9668 -0.7220
12776TIP3    H259820   5.378   0.899  11.406  1.5230 -0.0909 -1.2685
12777TIP3   OH259821   4.692   3.568  12.274  0.0947 -0.6031 -0.8369
12777TIP3    H159822   4.750   3.631  12.232 -0.5093  1.7715  1.5510
12777TIP3    H259823   4.621   3.554  12.212 -0.7399  2.6940 -0.8158
12778TIP3   OH259824   1.587   1.533  15.510 -0.5057 -0.2126  0.0602
12778TIP3    H159825   1.547   1.517  15.596  0.9834 -2.9851  0.3552
12778TIP3    H259826   1.512   1.542  15.451 -1.5736  2.2674  1.6547
12779TIP3   OH259827   3.580   5.251  14.091 -0.5344  0.2789 -0.2426
12779TIP3    H159828   3.540   5.338  14.095 -0.7385  0.1336  1.6997
12779TIP3    H259829   3.668   5.264  14.127 -0.3016 -0.1912 -0.6272
12780TIP3   OH259830   3.300   4.593   0.038  0.0866  0.0247 -0.3779
12780TIP3    H159831   3.336   4.621  -0.046 -0.0755 -1.9864 -1.1924
12780TIP3    H259832   3.375   4.560   0.087 -0.0111 -0.0387 -0.2698
12781TIP3   OH259833   2.557   0.417   1.877 -0.0148 -0.2226 -0.4748
12781TIP3    H159834   2.615   0.392   1.805  0.5147 -0.2065 -0.0646
12781TIP3    H259835   2.553   0.512   1.874  1.0399 -0.1259  0.2760
12782TIP3   OH259836   6.416   4.588   2.611 -0.2657  0.3602 -0.3841
12782TIP3    H159837   6.403   4.496   2.633  2.4571  0.0161  0.1144
12782TIP3    H259838   6.406   4.592   2.516 -0.3213 -0.4565 -0.4195
12783TIP3   OH259839   5.366   6.549   2.756 -0.2076  0.2673 -0.4751
12783TIP3    H159840   5.364   6.577   2.847  2.4835 -1.1744  0.1445
12783TIP3    H259841   5.279   6.514   2.739 -1.2186  1.8904  1.0483
12784TIP3   OH259842   2.117   1.641   4.512  0.3784  0.3263 -0.2496
12784TIP3    H159843   2.208   1.634   4.539  1.1695 -0.0791 -2.7671
12784TIP3    H259844   2.105   1.734   4.491  0.6626  0.1414 -1.2760
12785TIP3   OH259845   1.475   3.794   1.180 -0.5049 -0.2014 -0.6932
12785TIP3    H159846   1.384   3.823   1.178 -0.3950  0.2311  0.2011
12785TIP3    H259847   1.498   3.780   1.088 -0.8987  1.4991 -1.0803
12786TIP3   OH259848   1.360   5.506   3.425  0.2249 -0.0011 -0.3147
12786TIP3    H159849   1.333   5.435   3.367  0.7520 -1.6517  1.3421
12786TIP3    H259850   1.387   5.576   3.367 -1.6408 -0.6164 -2.0290
12787TIP3   OH259851   1.593   2.430  13.200  0.6029 -0.0970  0.2624
12787TIP3    H159852   1.681   2.393  13.198  1.3532  1.6336 -0.7791
12787TIP3    H259853   1.586   2.472  13.286  0.7886 -0.2006  0.3283
12788TIP3   OH259854   3.753   5.953   4.629 -0.0878  0.3038  0.3884
12788TIP3    H159855   3.840   5.972   4.663 -0.6968  0.4771  1.9361
12788TIP3    H259856   3.741   6.015   4.558  1.3925 -0.3277 -0.4537
12789TIP3   OH259857   1.607   4.938  14.045  0.7491 -0.6077  0.5079
12789TIP3    H159858   1.530   4.908  13.996  0.7745 -0.0878  0.1400
12789TIP3    H259859   1.599   5.033  14.046  1.1622 -0.5762  0.8437
12790TIP3   OH259860   0.725   2.244  14.278  0.0325  0.6379 -0.9236
12790TIP3    H159861   0.756   2.251  14.368 -0.8164  1.1007 -0.6537
12790TIP3    H259862   0.695   2.154  14.270  1.9991 -0.0071 -1.3900
12791TIP3   OH259863   0.836   4.140   4.537 -0.0388  0.0452 -0.1154
12791TIP3    H159864   0.889   4.066   4.567 -1.4911 -0.8708  0.2805
12791TIP3    H259865   0.746   4.107   4.539 -0.5762  1.3283 -1.4334
12792TIP3   OH259866   3.125   4.489  15.835  0.2714 -0.2183 -0.3024
12792TIP3    H159867   3.095   4.467  15.747 -1.0993  0.8023 -0.1191
12792TIP3    H259868   3.091   4.577  15.852  1.1531 -0.0816  0.9641
12793TIP3   OH259869   0.701   6.184   0.060 -0.0116 -0.0196 -0.5961
12793TIP3    H159870   0.702   6.120  -0.012  3.0270 -2.0681  1.0457
12793TIP3    H259871   0.794   6.201   0.078 -0.6545  0.8703  2.4367
12794TIP3   OH259872   0.225   3.861  12.378  1.0841 -0.5648  0.4446
12794TIP3    H159873   0.135   3.830  12.367  0.2990  1.7726 -0.2898
12794TIP3    H259874   0.279   3.783  12.363 -0.7383 -1.6798 -0.7133
12795TIP3   OH259875   2.329   4.285  11.510 -0.4578 -0.3930 -0.6194
12795TIP3    H159876   2.240   4.313  11.527 -0.3022  0.4252 -1.1291
12795TIP3    H259877   2.322   4.225  11.435 -0.5214  0.0502 -0.9690
12796TIP3   OH259878   3.431   2.764  16.101 -0.5450 -1.2783 -0.2972
12796TIP3    H159879   3.487   2.756  16.179 -2.4082  0.7418  1.3970
12796TIP3    H259880   3.342   2.767  16.136 -1.3577  4.0257 -1.8507
12797TIP3   OH259881   0.347   4.342   5.526  0.0887 -0.0666 -0.1335
12797TIP3    H159882   0.420   4.317   5.469 -0.1049  0.1345 -0.4741
12797TIP3    H259883   0.270   4.302   5.486  0.1055 -0.9307  0.6542
12798TIP3   OH259884   1.139   2.763   5.791 -0.0593 -0.2149  0.8094
12798TIP3    H159885   1.225   2.769   5.833  0.6655  0.7316 -0.7089
12798TIP3    H259886   1.136   2.675   5.753  1.3513  0.5524 -1.2770
12799TIP3   OH259887   4.572   2.106  16.949  0.1432  0.1189 -0.3075
12799TIP3    H159888   4.650   2.137  16.994  1.0148 -0.5234 -1.3219
12799TIP3    H259889   4.604   2.076  16.863 -1.0801 -0.9072 -0.4422
12800TIP3   OH259890   5.421   1.392   0.662  0.3772 -0.1401 -0.6074
12800TIP3    H159891   5.402   1.474   0.616 -2.4802  0.2309  0.9686
12800TIP3    H259892   5.368   1.397   0.741  0.1584 -3.4896 -0.4167
12801TIP3   OH259893   3.645   4.125  12.283  0.7818  0.1783 -0.9507
12801TIP3    H159894   3.573   4.080  12.237  1.3343 -0.9013 -0.7903
12801TIP3    H259895   3.602   4.194  12.333 -0.2854 -1.0257 -0.1322
12802TIP3   OH259896   0.424   6.599   0.465 -0.0756 -0.1249  0.2392
12802TIP3    H159897   0.388   6.560   0.385 -0.2950 -1.1350  0.8168
12802TIP3    H259898   0.408   6.693   0.455 -2.8000 -0.4745  0.3942
12803TIP3   OH259899   3.731   5.411   0.288  0.6934 -0.0154 -0.4441
12803TIP3    H159900   3.827   5.407   0.285  0.6507 -1.0373 -1.0778
12803TIP3    H259901   3.707   5.357   0.363  0.5045 -3.4886 -2.7781
12804TIP3   OH259902   2.719   0.292  13.689  0.2894  0.4433  0.4062
12804TIP3    H159903   2.743   0.244  13.768 -1.0006 -1.6965 -0.4419
12804TIP3    H259904   2.718   0.384  13.717  0.8005 -0.1601  2.6158
12805TIP3   OH259905   3.572   3.044  15.039  0.2149 -0.3336 -0.3102
12805TIP3    H159906   3.542   2.953  15.031 -1.1493  0.1450 -0.8099
12805TIP3    H259907   3.551   3.084  14.954 -1.4656  1.0888  0.7084
12806TIP3   OH259908   2.908   2.444   2.350  0.2940  0.3340  0.4352
12806TIP3    H159909   2.882   2.402   2.432  1.3348  1.3980  1.3393
12806TIP3    H259910   2.910   2.372   2.286  0.5626 -0.7144  1.5797
12807TIP3   OH259911   1.668   5.021   0.600 -0.0562  0.2657  1.0519
12807TIP3    H159912   1.690   4.972   0.521 -1.0629  1.0928  0.2289
12807TIP3    H259913   1.631   4.956   0.659  1.5089 -0.5274  1.2186
12808TIP3   OH259914   1.108   2.102   1.939  0.1858 -0.0518 -0.6120
12808TIP3    H159915   1.097   2.080   2.031  3.3350  0.4537  0.0071
12808TIP3    H259916   1.090   2.196   1.934 -1.4031 -0.3443 -0.8505
12809TIP3   OH259917   3.569   4.449  11.335  0.4163 -1.0571  0.4748
12809TIP3    H159918   3.651   4.403  11.320  1.7475  1.7256 -1.8158
12809TIP3    H259919   3.595   4.536  11.364 -1.6317  0.1098 -0.9055
12810TIP3   OH259920   1.339   6.061   3.718 -0.2816  0.4002 -0.0566
12810TIP3    H159921   1.381   6.072   3.804 -2.7927 -0.2653  1.3644
12810TIP3    H259922   1.284   6.139   3.709 -1.8635 -0.6529  0.1118
12811TIP3   OH259923   5.175   3.474  15.519 -0.1129 -0.6793  0.3358
12811TIP3    H159924   5.177   3.380  15.536  1.9764 -0.4804  1.6720
12811TIP3    H259925   5.266   3.502  15.532 -0.0215  1.0701 -2.9619
12812TIP3   OH259926   0.239   6.547   0.769  0.0918  0.1965 -0.1069
12812TIP3    H159927   0.185   6.615   0.729  0.2986  0.1765 -0.4208
12812TIP3    H259928   0.176   6.482   0.801 -0.0507 -0.0561 -0.8847
12813TIP3   OH259929   0.080   5.505   5.134  0.3112 -0.0072 -0.0485
12813TIP3    H159930   0.002   5.513   5.079  0.6978  0.0312 -0.5999
12813TIP3    H259931   0.106   5.413   5.127 -0.9481 -0.5829  1.9076
12814TIP3   OH259932   6.192   0.739  12.302  0.5224 -0.5895  0.0100
12814TIP3    H159933   6.141   0.664  12.272  1.7217 -2.1444  1.6689
12814TIP3    H259934   6.282   0.708  12.307  1.1848  1.1781  0.0910
12815TIP3   OH259935   2.560   0.753   1.141 -0.7198  0.0744 -0.4947
12815TIP3    H159936   2.472   0.743   1.178 -0.0949 -0.8223  0.8328
12815TIP3    H259937   2.580   0.667   1.102 -0.3487  0.2088 -0.6094
12816TIP3   OH259938   2.622   2.908  16.939 -0.3376  0.5877 -0.2841
12816TIP3    H159939   2.686   2.907  17.010  0.0064 -0.6223 -0.5770
12816TIP3    H259940   2.542   2.942  16.978  0.0891  0.7504  0.4580
12817TIP3   OH259941   2.485   6.725   2.917 -0.1857 -0.0553  0.2669
12817TIP3    H159942   2.410   6.681   2.956  0.2247 -1.4326 -0.4303
12817TIP3    H259943   2.463   6.731   2.824 -0.3836  1.5748  0.3853
12818TIP3   OH259944   2.028   2.069   3.888  0.6618  1.1374 -0.3960
12818TIP3    H159945   1.972   2.035   3.818  0.0014  0.3777  0.4727
12818TIP3    H259946   2.088   1.997   3.908 -0.8044  0.3810  1.5209
12819TIP3   OH259947   4.655   1.193  12.985 -0.1115 -0.2273 -0.3369
12819TIP3    H159948   4.628   1.101  12.983 -1.0284  0.0404 -1.2933
12819TIP3    H259949   4.580   1.240  13.020 -0.1079  0.2903 -0.9974
12820TIP3   OH259950   1.825   4.053   6.438  0.0258  0.9513  0.5306
12820TIP3    H159951   1.848   3.970   6.398 -0.5583  1.4931 -1.0138
12820TIP3    H259952   1.907   4.088   6.472  0.4380  0.2131  0.3062
12821TIP3   OH259953   6.585   5.658  14.049 -0.6100  0.5579 -0.5115
12821TIP3    H159954   6.668   5.614  14.027 -1.2124 -1.7319  1.3657
12821TIP3    H259955   6.531   5.647  13.972  0.0495  0.0066 -0.9075
12822TIP3   OH259956   3.393   3.746  15.404  0.6434  0.2239 -0.1767
12822TIP3    H159957   3.302   3.765  15.379  0.8600  2.0469  0.3256
12822TIP3    H259958   3.388   3.659  15.445 -0.9215  0.3889  0.0543
12823TIP3   OH259959   0.239   0.989  15.704 -0.2882  0.2398  0.2314
12823TIP3    H159960   0.284   1.025  15.628  0.7350  0.7592  1.0484
12823TIP3    H259961   0.212   1.066  15.755  0.7818 -0.0913  1.3563
12824TIP3   OH259962   5.310   2.233  13.646  0.6392  0.0433 -0.0207
12824TIP3    H159963   5.364   2.290  13.592 -0.3428  0.1515 -0.9084
12824TIP3    H259964   5.253   2.187  13.584  0.5170 -0.9372  0.7901
12825TIP3   OH259965   0.622   5.330  16.604  0.0192 -0.5686  0.2395
12825TIP3    H159966   0.600   5.341  16.512  0.6987  1.1071  0.2471
12825TIP3    H259967   0.553   5.273  16.639 -1.3273  0.3307 -0.8657
12826TIP3   OH259968   2.638   5.915  12.436 -0.4543 -0.2120  0.4107
12826TIP3    H159969   2.719   5.902  12.484  0.4876  0.4049 -0.9396
12826TIP3    H259970   2.664   5.965  12.358 -1.8693 -1.3114 -0.8256
12827TIP3   OH259971   6.718   4.600   1.194 -0.1171 -0.1975  0.2907
12827TIP3    H159972   6.706   4.687   1.231 -0.0039  0.5678 -1.3773
12827TIP3    H259973   6.650   4.593   1.127  0.8822 -0.7358 -0.6997
12828TIP3   OH259974   5.520   6.686  10.635  0.1636  0.0408  0.0035
12828TIP3    H159975   5.585   6.664  10.701  0.6566 -1.0930 -0.8196
12828TIP3    H259976   5.452   6.733  10.682  2.9735  4.1777  0.4196
12829TIP3   OH259977   6.492   0.331  15.366  0.5454  0.2295  0.2885
12829TIP3    H159978   6.571   0.282  15.389 -0.3004 -0.0024  2.9525
12829TIP3    H259979   6.443   0.272  15.309  2.0180  0.1851 -0.9904
12830TIP3   OH259980   2.492   1.803  14.016  0.3473 -0.7645  0.3306
12830TIP3    H159981   2.515   1.729  13.961  0.1361  0.2839 -1.2487
12830TIP3    H259982   2.574   1.849  14.031  0.3569 -0.8749  0.6142
12831TIP3   OH259983   6.513   1.444  16.143 -0.0873 -0.5702  0.2666
12831TIP3    H159984   6.593   1.470  16.189  0.0525  0.6953 -0.6539
12831TIP3    H259985   6.541   1.371  16.087  0.9756  1.1958 -1.6215
12832TIP3   OH259986   1.368   5.337   4.983  0.2539  0.3719  0.0925
12832TIP3    H159987   1.457   5.372   4.978  1.1196 -1.7175 -0.0870
12832TIP3    H259988   1.319   5.402   5.034  1.1841  2.8208 -1.9020
12833TIP3   OH259989   1.130   6.749  13.000  0.0763  0.3453 -0.6845
12833TIP3    H159990   1.149   6.712  12.914  2.5354  1.4338 -0.6997
12833TIP3    H259991   1.119   6.843  12.984  1.0368  0.6306  0.2171
12834TIP3   OH259992   6.441   5.328  14.343 -0.4268 -0.4000 -0.5418
12834TIP3    H159993   6.537   5.325  14.346 -0.3068  1.6859 -1.1349
12834TIP3    H259994   6.421   5.328  14.249 -1.0548 -1.3140 -0.4201
12835TIP3   OH259995   5.101   1.232   1.127 -0.1089 -0.4525 -0.7625
12835TIP3    H159996   5.149   1.178   1.190  0.3865  0.2828 -0.4981
12835TIP3    H259997   5.086   1.314   1.172 -0.6797 -0.2907 -1.2362
12836TIP3   OH259998   1.582   3.115   3.907 -0.4862  0.0415  0.5501
12836TIP3    H159999   1.533   3.137   3.828 -1.0790 -1.2034  0.5499
12836TIP3    H260000   1.654   3.178   3.909 -0.6027  0.2497 -0.8516
12837TIP3   OH260001   5.818   3.623  13.569  0.2452 -0.1043 -0.8159
12837TIP3    H160002   5.844   3.687  13.635 -0.7115 -1.1898  0.6917
12837TIP3    H260003   5.729   3.597  13.594  0.0355 -0.9280 -2.2550
12838TIP3   OH260004   4.978   3.978   4.308  0.1959  0.3740  0.2456
12838TIP3    H160005   5.072   3.959   4.312 -0.4528 -3.8526 -0.0968
12838TIP3    H260006   4.942   3.942   4.389 -1.2821  0.8349 -0.1689
12839TIP3   OH260007   4.177   1.681   0.671 -0.2487 -0.1615  0.3246
12839TIP3    H160008   4.134   1.685   0.756  3.9270 -1.9207  2.8461
12839TIP3    H260009   4.210   1.770   0.657 -1.4456  0.2800  0.1926
12840TIP3   OH260010   6.390   1.082  16.806 -0.0047 -0.2438 -0.8678
12840TIP3    H160011   6.439   1.091  16.724 -0.2859  0.1430 -1.0030
12840TIP3    H260012   6.440   1.134  16.869  0.8215 -1.4471 -0.5016
12841TIP3   OH260013   5.111   4.928   5.630 -0.1913  0.2584  0.6055
12841TIP3    H160014   5.131   4.975   5.549 -3.1212  1.5807  0.5580
12841TIP3    H260015   5.155   4.979   5.699  1.3515 -0.2334  0.0466
12842TIP3   OH260016   1.371   5.036   3.865  0.2182 -0.0625  0.3464
12842TIP3    H160017   1.321   5.113   3.839 -0.5090 -0.3440  0.8928
12842TIP3    H260018   1.314   4.989   3.925  1.7556  0.4638  2.3413
12843TIP3   OH260019   6.397   2.420   3.707 -0.9690 -0.1600  0.1066
12843TIP3    H160020   6.364   2.357   3.771 -0.9137 -0.3987 -0.0980
12843TIP3    H260021   6.406   2.370   3.626 -1.1121  0.1594 -0.1089
12844TIP3   OH260022   1.671   3.159  12.436 -0.3072 -0.1301 -0.6371
12844TIP3    H160023   1.618   3.160  12.356  0.6293  0.0220 -1.2724
12844TIP3    H260024   1.720   3.241  12.433 -0.3898 -0.0443  0.1901
12845TIP3   OH260025   1.285   2.268   0.430 -0.0861 -0.2090  0.4862
12845TIP3    H160026   1.190   2.258   0.436 -0.4144  1.8949 -0.2168
12845TIP3    H260027   1.306   2.246   0.339  0.1991 -1.1618  0.7701
12846TIP3   OH260028   1.853   6.316   3.608 -0.1367  0.3045  0.6235
12846TIP3    H160029   1.783   6.345   3.666  0.9592  0.4287  1.9419
12846TIP3    H260030   1.926   6.375   3.627  0.8070 -0.7367  0.3939
12847TIP3   OH260031   4.454   6.126  16.419 -0.2739 -0.1241  0.7426
12847TIP3    H160032   4.435   6.129  16.513 -3.4353  1.7072  0.1748
12847TIP3    H260033   4.370   6.144  16.377  1.1925 -0.1266 -2.4514
12848TIP3   OH260034   5.580   2.689   5.106  0.2238 -0.1340 -0.1719
12848TIP3    H160035   5.529   2.614   5.137 -0.0124  0.7916  1.8541
12848TIP3    H260036   5.556   2.760   5.166  2.3497  0.8766 -0.4470
12849TIP3   OH260037   3.378   6.556  12.044 -0.2577 -0.4089 -0.9593
12849TIP3    H160038   3.467   6.522  12.053 -1.1866 -2.8675 -0.2566
12849TIP3    H260039   3.361   6.601  12.127  0.7091  1.1880 -1.5812
12850TIP3   OH260040   1.500   1.999   2.298  0.0420 -0.2401 -0.9745
12850TIP3    H160041   1.421   1.971   2.344  0.2088  1.7562  0.6153
12850TIP3    H260042   1.468   2.031   2.214 -0.9305  1.0274 -0.1482
12851TIP3   OH260043   3.329   5.902   2.790 -0.2684  0.1008 -0.6398
12851TIP3    H160044   3.346   5.962   2.862 -0.6672 -1.4488  0.8074
12851TIP3    H260045   3.234   5.898   2.783 -0.2346  0.2861 -1.3111
12852TIP3   OH260046   0.675   5.567  16.747 -0.3285  0.1912 -0.0150
12852TIP3    H160047   0.669   5.482  16.704 -1.0063  0.1517  0.1402
12852TIP3    H260048   0.604   5.567  16.811 -1.1009  1.3199 -0.8239
12853TIP3   OH260049   3.997   4.024   3.607  0.3237  0.3128 -0.0666
12853TIP3    H160050   3.918   4.074   3.589  0.2732  0.6990  1.1298
12853TIP3    H260051   3.992   3.948   3.548 -1.4090 -0.1719  0.6489
12854TIP3   OH260052   3.344   0.486   0.246 -0.2019  0.3780  0.1372
12854TIP3    H160053   3.282   0.525   0.307  1.3269  1.7198  0.8859
12854TIP3    H260054   3.430   0.511   0.279  0.7377 -0.7859 -1.2992
12855TIP3   OH260055   5.445   2.394  15.026 -0.0901 -0.2154 -0.0045
12855TIP3    H160056   5.502   2.467  15.002 -0.5065  0.0757 -0.1208
12855TIP3    H260057   5.356   2.427  15.011 -0.2784 -0.7765 -0.1459
12856TIP3   OH260058   5.285   0.754   5.532 -0.6696  0.4501 -0.3570
12856TIP3    H160059   5.257   0.706   5.610  0.4722 -0.1880 -0.3161
12856TIP3    H260060   5.231   0.833   5.531 -2.8672 -0.9728 -0.6230
12857TIP3   OH260061   3.232   0.926   1.885 -0.1954  0.4171  0.0470
12857TIP3    H160062   3.214   0.879   1.966  1.5788  1.5601  1.1683
12857TIP3    H260063   3.209   0.864   1.816  3.1236 -2.6856  1.4038
12858TIP3   OH260064   6.489   3.542   3.884 -0.3199 -0.1592  0.5542
12858TIP3    H160065   6.476   3.514   3.793 -0.8572  3.0362 -0.5074
12858TIP3    H260066   6.565   3.601   3.880 -0.5467  0.2902  2.1092
12859TIP3   OH260067   5.613   3.658   0.721 -0.0853 -0.6452 -0.3944
12859TIP3    H160068   5.697   3.703   0.723 -0.7780  0.7216  1.7252
12859TIP3    H260069   5.630   3.577   0.674  2.9825 -1.4701  1.8201
12860TIP3   OH260070   1.490   0.077  15.629  0.2847  0.3471  0.5488
12860TIP3    H160071   1.576   0.044  15.603 -1.0355 -2.1893 -1.0457
12860TIP3    H260072   1.431   0.048  15.559 -2.0944  0.7020  2.2779
12861TIP3   OH260073   6.087   5.212  12.926  0.1389  0.3231 -0.1851
12861TIP3    H160074   6.039   5.139  12.887  1.3444 -0.7428  0.2301
12861TIP3    H260075   6.028   5.286  12.920 -0.0530  0.0419 -3.2644
12862TIP3   OH260076   5.054   4.620  16.716 -0.0339  0.1358 -0.2364
12862TIP3    H160077   5.139   4.663  16.722 -0.0534  0.7042 -2.7190
12862TIP3    H260078   4.996   4.672  16.772  0.9590  0.5339  0.4420
12863TIP3   OH260079   2.568   0.503  13.375  0.2459 -0.4952 -0.7164
12863TIP3    H160080   2.542   0.545  13.457  0.4998 -0.9302 -0.4066
12863TIP3    H260081   2.546   0.567  13.308  2.0160  0.7922 -0.1449
12864TIP3   OH260082   5.910   0.786   4.606 -0.6654  0.0401 -1.0498
12864TIP3    H160083   5.818   0.799   4.586 -0.7393 -0.8346 -1.3055
12864TIP3    H260084   5.914   0.698   4.643 -0.0832  0.4587 -0.0724
12865TIP3   OH260085   6.237   6.632   2.452  0.4675 -0.4992 -0.5529
12865TIP3    H160086   6.162   6.578   2.427  0.0435 -0.7327  1.1263
12865TIP3    H260087   6.290   6.575   2.508  0.8421  0.3197 -0.0639
12866TIP3   OH260088   0.088   5.230  16.644  0.6192  0.6274 -0.3413
12866TIP3    H160089   0.131   5.301  16.691 -0.3215  1.3328 -0.5056
12866TIP3    H260090   0.079   5.160  16.708 -0.5787  1.5469  0.5393
12867TIP3   OH260091   0.384   2.831  12.624  0.5086  0.0872  0.3549
12867TIP3    H160092   0.388   2.777  12.702 -0.5336 -1.6826 -0.7453
12867TIP3    H260093   0.467   2.879  12.624  1.2690 -1.1374  1.6441
12868TIP3   OH260094   1.867   0.048  16.773  0.2091 -0.0167 -0.2067
12868TIP3    H160095   1.778   0.036  16.806  0.3737 -1.1488 -0.1483
12868TIP3    H260096   1.901   0.122  16.823  0.1874 -1.2058  1.6851
12869TIP3   OH260097   3.154   3.012  11.042 -0.1544  0.3108 -0.0686
12869TIP3    H160098   3.245   3.042  11.041 -0.2800  0.7047  0.1535
12869TIP3    H260099   3.153   2.934  10.986  0.5300 -0.3290  0.7845
12870TIP3   OH260100   6.725   3.637  12.142  0.1783  0.3249 -0.4261
12870TIP3    H160101   6.689   3.559  12.184 -1.7334 -0.1059 -2.6825
12870TIP3    H260102   6.818   3.618  12.133 -0.0227 -1.1228  0.2529
12871TIP3   OH260103   5.755   1.104  14.657 -0.2542 -0.2758 -0.2584
12871TIP3    H160104   5.766   1.113  14.752  0.6226 -0.2489 -0.3559
12871TIP3    H260105   5.834   1.059  14.628 -0.0630  0.5962 -1.1156
12872TIP3   OH260106   2.424   5.927  10.518 -0.0214  0.0386 -0.0264
12872TIP3    H160107   2.346   5.981  10.510 -0.5030 -0.5414  0.6044
12872TIP3    H260108   2.418   5.864  10.446 -0.3976 -0.3190  0.3128
12873TIP3   OH260109   4.989   1.204   0.691  0.2925  0.2433 -0.4156
12873TIP3    H160110   4.945   1.121   0.676  3.3127 -1.2030 -2.2115
12873TIP3    H260111   4.956   1.262   0.622 -0.5952  0.0110 -0.1903
12874TIP3   OH260112   6.052   4.859   0.454 -0.0812  0.2108 -0.0968
12874TIP3    H160113   6.048   4.772   0.493 -0.6132  0.3423  0.1528
12874TIP3    H260114   6.022   4.847   0.363 -1.8991  0.4054  0.4301
12875TIP3   OH260115   1.483   2.925  11.409  0.4072 -0.1841  0.2732
12875TIP3    H160116   1.554   2.889  11.357 -1.1525 -1.8181 -0.8161
12875TIP3    H260117   1.501   2.894  11.498  2.2248  1.3248  0.5075
12876TIP3   OH260118   3.612   3.021  12.211  0.0082 -0.4233 -0.3618
12876TIP3    H160119   3.563   3.097  12.179  2.1214  0.6212 -1.2926
12876TIP3    H260120   3.574   3.002  12.297 -0.5664  1.6937 -0.1092
12877TIP3   OH260121   2.259   1.097  12.215 -0.1053  0.4523 -0.5316
12877TIP3    H160122   2.250   1.103  12.310 -0.8323  2.6999 -0.6700
12877TIP3    H260123   2.189   1.037  12.188 -0.5074  0.5353  0.2912
12878TIP3   OH260124   4.803   1.170   3.924 -0.1010  0.4202  0.1137
12878TIP3    H160125   4.873   1.230   3.900  0.5533  0.3027  1.6153
12878TIP3    H260126   4.732   1.228   3.953  0.4713  0.5191  1.4060
12879TIP3   OH260127   2.851   4.820   2.937  0.2563 -0.3122 -0.0432
12879TIP3    H160128   2.917   4.752   2.948 -0.0429 -0.3078  2.1504
12879TIP3    H260129   2.778   4.777   2.892  0.9395 -0.8167 -0.6957
12880TIP3   OH260130   4.870   1.642   4.221  0.1814  0.2076 -0.3450
12880TIP3    H160131   4.861   1.596   4.304  3.9519  0.4415  0.3511
12880TIP3    H260132   4.854   1.734   4.243  1.2751  0.2849  0.1968
12881TIP3   OH260133   2.258   2.719  11.734  0.7614  0.5202 -0.1707
12881TIP3    H160134   2.274   2.783  11.803  0.3580  0.6019 -0.1478
12881TIP3    H260135   2.253   2.771  11.654  2.3033  0.3102 -0.4215
12882TIP3   OH260136   1.022   5.531  13.127  0.1297  0.7120 -0.0733
12882TIP3    H160137   1.082   5.457  13.116 -0.3414  0.3940 -0.5630
12882TIP3    H260138   1.063   5.602  13.077  0.4184  0.6858  0.1243
12883TIP3   OH260139   3.448   1.170  14.165 -0.3471 -0.8077  0.2227
12883TIP3    H160140   3.355   1.184  14.182 -0.8842 -2.2753 -1.2511
12883TIP3    H260141   3.487   1.156  14.251 -0.9082  2.6525  1.1914
12884TIP3   OH260142   3.145   2.459   1.167  0.1645 -0.7485 -0.7496
12884TIP3    H160143   3.199   2.464   1.246  0.8940 -1.7769 -1.1750
12884TIP3    H260144   3.104   2.373   1.171  1.9656 -1.7763 -2.5893
12885TIP3   OH260145   3.542   2.366   0.825 -0.5158 -0.0966  0.5130
12885TIP3    H160146   3.630   2.371   0.787 -0.1580 -2.6343  0.8385
12885TIP3    H260147   3.485   2.402   0.758  0.7524  1.8977  0.4140
12886TIP3   OH260148   5.866   0.046   4.332  0.7960  0.2849 -0.3463
12886TIP3    H160149   5.883   0.110   4.263 -1.6607 -0.1203 -1.4046
12886TIP3    H260150   5.887  -0.039   4.292 -0.1674  0.0878 -0.4489
12887TIP3   OH260151   1.719   3.299   2.618  0.2133 -0.4459 -0.6768
12887TIP3    H160152   1.747   3.257   2.699  0.0851  0.2177 -0.2855
12887TIP3    H260153   1.754   3.243   2.549 -0.9112 -1.8127 -0.1698
12888TIP3   OH260154   5.658   3.062   5.807  0.0739 -0.4410 -0.4653
12888TIP3    H160155   5.703   3.016   5.878  0.5454  0.7800  0.0602
12888TIP3    H260156   5.700   3.149   5.805 -1.5536  0.3723 -0.6543
12889TIP3   OH260157   5.075   2.161  13.098  0.2346  0.3761  0.1552
12889TIP3    H160158   5.069   2.168  13.194  0.7679 -0.3250  0.2527
12889TIP3    H260159   5.037   2.075  13.078 -0.6341  0.8638 -0.3569
12890TIP3   OH260160   3.006   2.334   6.244 -0.7129 -0.2073 -0.0278
12890TIP3    H160161   2.957   2.352   6.324 -0.8651  1.2189 -0.4308
12890TIP3    H260162   2.940   2.303   6.182 -1.0615  1.2487 -0.4183
12891TIP3   OH260163   6.116   5.662   3.075 -0.3837  0.0445 -0.0579
12891TIP3    H160164   6.029   5.620   3.076 -0.5785  0.4597  0.7793
12891TIP3    H260165   6.140   5.670   3.167 -0.3029  1.6752 -0.2022
12892TIP3   OH260166   3.081   0.524   0.444  0.1209  0.5628 -0.1327
12892TIP3    H160167   3.044   0.594   0.497 -0.7247  0.9233 -1.1679
12892TIP3    H260168   3.033   0.528   0.361 -1.1991 -2.3652  0.3553
12893TIP3   OH260169   6.272   0.152  16.890 -0.4903  0.2116 -0.1748
12893TIP3    H160170   6.213   0.199  16.947 -1.1254  0.0027 -0.6520
12893TIP3    H260171   6.215   0.101  16.833  0.0891  0.9826 -1.4971
12894TIP3   OH260172   2.210   6.423   5.312  0.1631 -0.3300  0.6574
12894TIP3    H160173   2.275   6.382   5.254  1.9127  2.0178  0.8349
12894TIP3    H260174   2.257   6.440   5.393 -0.8691  0.7578  1.0562
12895TIP3   OH260175   5.841   5.666   3.947  0.0990 -0.0377  0.2876
12895TIP3    H160176   5.906   5.699   4.009  2.2116 -0.5898 -1.4794
12895TIP3    H260177   5.848   5.571   3.954 -1.8386 -0.1483  1.2924
12896TIP3   OH260178   5.127   4.387   0.466 -0.1568 -0.1769 -0.0019
12896TIP3    H160179   5.115   4.381   0.561 -0.1024  1.6602  0.1534
12896TIP3    H260180   5.080   4.467   0.441  0.0259 -0.5079 -1.4957
12897TIP3   OH260181   4.650   4.252   1.638 -0.0657 -0.2309  0.2641
12897TIP3    H160182   4.628   4.159   1.639  1.1724 -0.5373  0.2980
12897TIP3    H260183   4.565   4.296   1.633 -0.6172 -1.3854 -1.3667
12898TIP3   OH260184   2.048   4.840   4.189  0.3603 -0.1755  0.4879
12898TIP3    H160185   2.028   4.854   4.097  0.0488 -1.9482  0.2501
12898TIP3    H260186   1.978   4.886   4.236  1.2184  1.8089 -0.0852
12899TIP3   OH260187   0.111   4.105   0.855  0.2625 -0.4546  0.3944
12899TIP3    H160188   0.114   4.137   0.765  1.2240  1.0529  0.9235
12899TIP3    H260189   0.055   4.027   0.851 -1.2803  0.6547 -1.1741
12900TIP3   OH260190   0.135   6.125  11.573  0.2065  0.0775 -0.1442
12900TIP3    H160191   0.110   6.132  11.481 -0.1020  0.1951 -0.0543
12900TIP3    H260192   0.231   6.126  11.572  0.2065  0.7495 -0.4179
12901TIP3   OH260193   5.765   0.176   5.267 -0.5082 -0.0126  0.4266
12901TIP3    H160194   5.801   0.248   5.318  1.2453 -0.6691  0.1678
12901TIP3    H260195   5.841   0.137   5.223 -1.6237 -1.0599 -0.6530
12902TIP3   OH260196   0.176   1.384   0.703  0.2770  0.3138 -0.8646
12902TIP3    H160197   0.190   1.479   0.704 -1.6976  0.6551 -0.2386
12902TIP3    H260198   0.122   1.369   0.626 -3.0384  0.4072  1.2451
12903TIP3   OH260199   2.612   4.544  14.450  0.5079  0.4440  0.2676
12903TIP3    H160200   2.575   4.480  14.390  2.3546 -2.3701  1.8757
12903TIP3    H260201   2.662   4.604  14.395 -1.5800  0.8592 -1.3247
12904TIP3   OH260202   4.977   4.106  14.940  0.1865  0.6672  0.0868
12904TIP3    H160203   5.007   4.018  14.918  1.5675  1.4555 -1.3927
12904TIP3    H260204   4.899   4.119  14.886  0.0067  0.3694  0.2756
12905TIP3   OH260205   3.175   0.366  11.245  0.0825 -0.1912 -0.6099
12905TIP3    H160206   3.148   0.297  11.306 -1.1623 -0.1049 -1.0456
12905TIP3    H260207   3.207   0.319  11.169  2.1972 -0.3126  0.2882
12906TIP3   OH260208   3.264   2.888  12.126  0.5397 -0.1428  0.3951
12906TIP3    H160209   3.209   2.872  12.049 -0.4978  0.4469  0.9885
12906TIP3    H260210   3.285   2.981  12.121 -1.6894  0.5534  2.1315
12907TIP3   OH260211   0.894   5.545  14.507  0.4636  0.3000 -0.2514
12907TIP3    H160212   0.836   5.479  14.470  0.5947  0.0975 -0.0942
12907TIP3    H260213   0.979   5.503  14.513  0.3215  0.1443  0.7981
12908TIP3   OH260214   0.904   1.674   4.443 -0.1165  0.0795 -0.1417
12908TIP3    H160215   0.954   1.646   4.366  0.1788 -1.0437  0.4354
12908TIP3    H260216   0.920   1.605   4.508  0.1647  1.3167  1.1613
12909TIP3   OH260217   0.646   6.193  11.531 -0.1353  0.3690 -0.5021
12909TIP3    H160218   0.555   6.189  11.503 -0.0483  0.0899 -0.7525
12909TIP3    H260219   0.651   6.269  11.589 -0.9524 -0.7225  1.0746
12910TIP3   OH260220   2.256   6.442  12.952  0.1327  0.2043 -0.2068
12910TIP3    H160221   2.315   6.379  12.910 -0.0250 -0.7374  0.9413
12910TIP3    H260222   2.270   6.523  12.904  0.6585 -0.5970 -1.4430
12911TIP3   OH260223   5.564   2.338   4.302  0.0147  0.2335 -0.1100
12911TIP3    H160224   5.539   2.420   4.261 -0.0621  0.4641  0.3873
12911TIP3    H260225   5.658   2.346   4.318 -0.2820  0.9478  1.4999
12912TIP3   OH260226   6.717   6.519   5.417 -0.1962 -0.0958  0.0791
12912TIP3    H160227   6.719   6.468   5.336 -0.2977 -0.5223  0.3455
12912TIP3    H260228   6.711   6.610   5.387  0.4648 -0.1972 -0.4066
12913TIP3   OH260229   4.869   5.780  14.210 -0.4950 -0.4884  0.0379
12913TIP3    H160230   4.865   5.796  14.305  2.6882  0.3580  0.1595
12913TIP3    H260231   4.963   5.772  14.191 -1.0040 -0.3188 -3.1056
12914TIP3   OH260232   1.211   5.830  15.669  0.3284 -0.4069  0.3038
12914TIP3    H160233   1.261   5.891  15.723  0.9492  0.0575 -0.7555
12914TIP3    H260234   1.213   5.870  15.582  0.0480 -1.5409 -0.2267
12915TIP3   OH260235   2.201   2.416  10.628  0.4230  0.5375 -0.2839
12915TIP3    H160236   2.130   2.353  10.638  0.1516  0.6201 -1.4598
12915TIP3    H260237   2.174   2.471  10.554  1.4490  0.9205 -0.3948
12916TIP3   OH260238   3.734   1.555   2.553 -0.2799 -0.5379 -0.4804
12916TIP3    H160239   3.826   1.536   2.570  0.2628  0.5044 -2.1074
12916TIP3    H260240   3.713   1.505   2.475  0.1296  2.3380 -2.6012
12917TIP3   OH260241   2.948   4.606   5.595  0.3305  0.3896  0.0443
12917TIP3    H160242   2.861   4.610   5.635  0.9732 -1.1895  1.7503
12917TIP3    H260243   2.997   4.677   5.638  0.5615 -0.2928  0.9418
12918TIP3   OH260244   3.483   4.924  13.542 -0.2565 -0.0601  0.3590
12918TIP3    H160245   3.435   4.985  13.487  0.1821  0.5571  0.6542
12918TIP3    H260246   3.560   4.973  13.571 -0.6167 -0.2705  1.7455
12919TIP3   OH260247   4.509   4.532  17.071  0.3146  0.7448  0.3731
12919TIP3    H160248   4.502   4.459  17.133 -0.2920  0.0298 -0.5156
12919TIP3    H260249   4.511   4.490  16.985  2.3573  1.6626 -0.0641
12920TIP3   OH260250   1.861   4.144  16.621 -0.5058 -0.0039  0.2567
12920TIP3    H160251   1.913   4.220  16.595 -1.8058  0.9378  0.3185
12920TIP3    H260252   1.872   4.082  16.549 -0.4044  0.7379 -0.3790
12921TIP3   OH260253   5.270   2.076   0.494 -0.1361 -0.6411  0.0974
12921TIP3    H160254   5.252   2.004   0.434 -3.0029  0.5800 -0.6876
12921TIP3    H260255   5.347   2.120   0.458  0.0221 -1.7224 -0.9362
12922TIP3   OH260256   1.828   2.243   2.264 -0.0528  0.2871  0.1088
12922TIP3    H160257   1.820   2.163   2.212  1.9628 -0.2849  0.5580
12922TIP3    H260258   1.815   2.214   2.354  0.2032  0.5418  0.2306
12923TIP3   OH260259   3.786   4.839   5.236 -0.2498 -0.8106  0.8107
12923TIP3    H160260   3.811   4.929   5.259 -0.9285 -0.8574  1.7614
12923TIP3    H260261   3.750   4.846   5.147  1.7416 -0.5143 -0.0248
12924TIP3   OH260262   4.242   5.182   4.248 -0.3449 -0.0764  0.4680
12924TIP3    H160263   4.255   5.158   4.340  1.4901 -0.3177  0.1971
12924TIP3    H260264   4.249   5.278   4.248  1.6269 -0.1743  0.3743
12925TIP3   OH260265   2.052   2.311  14.701  0.1909 -0.0790  0.4343
12925TIP3    H160266   2.017   2.373  14.637 -0.1197 -0.3365  0.3517
12925TIP3    H260267   2.138   2.287  14.667  0.3965  0.4406  0.5613
12926TIP3   OH260268   4.233   2.223  11.712 -0.2503 -1.0200  0.2652
12926TIP3    H160269   4.221   2.184  11.798  0.4150  0.5870  1.1161
12926TIP3    H260270   4.321   2.196  11.685  0.6298  0.6391  1.3092
12927TIP3   OH260271   5.674   5.443   1.053 -0.0705 -0.1157 -0.2741
12927TIP3    H160272   5.714   5.529   1.061 -0.0303  0.2531 -3.3139
12927TIP3    H260273   5.744   5.386   1.021 -0.5084 -0.9014  0.1312
12928TIP3   OH260274   4.081   1.594   5.338 -0.4587  0.2694  0.4808
12928TIP3    H160275   4.126   1.673   5.367 -1.1746  0.4782  1.0371
12928TIP3    H260276   3.998   1.625   5.302  0.7797  0.1265 -2.7865
12929TIP3   OH260277   2.231   2.756  14.532 -0.2650 -0.4424 -0.1417
12929TIP3    H160278   2.289   2.717  14.467  0.7469 -3.4622  2.3332
12929TIP3    H260279   2.267   2.844  14.546  1.1285 -0.7233 -1.6418
12930TIP3   OH260280   3.230   5.070  13.423 -0.0302  0.1100 -0.0342
12930TIP3    H160281   3.233   5.160  13.457 -0.2933 -0.4356  1.5050
12930TIP3    H260282   3.155   5.030  13.467 -0.2652 -0.7142 -1.1444
12931TIP3   OH260283   0.263   0.131  10.703  0.1257  0.1655 -0.3250
12931TIP3    H160284   0.208   0.182  10.643 -1.8182  0.3560  1.5114
12931TIP3    H260285   0.208   0.058  10.731  1.4953 -0.7287  0.1505
12932TIP3   OH260286   4.216   2.015  12.547  0.1529 -0.0347 -0.3281
12932TIP3    H160287   4.296   1.968  12.521  0.4762 -0.3539  1.1395
12932TIP3    H260288   4.158   2.007  12.471  2.2187  1.9931 -2.3193
12933TIP3   OH260289   5.858   0.118  11.665  0.3187 -0.8445 -0.4555
12933TIP3    H160290   5.818   0.167  11.593  2.3735 -1.2157 -1.9384
12933TIP3    H260291   5.897   0.186  11.721 -0.0526 -0.6219 -0.4615
12934TIP3   OH260292   3.451   5.807  16.717 -0.5159 -0.4036  0.0819
12934TIP3    H160293   3.520   5.795  16.652 -0.6100  0.4318 -0.1824
12934TIP3    H260294   3.474   5.748  16.788  0.8766  0.3912  0.3186
12935TIP3   OH260295   3.651   3.201  14.462  0.0652 -0.7026  0.7005
12935TIP3    H160296   3.636   3.174  14.552  0.9258 -0.8375  0.8090
12935TIP3    H260297   3.744   3.224  14.458 -0.7014  3.1563  0.8526
12936TIP3   OH260298   4.618   0.712  14.250  0.0563  0.2068  0.2565
12936TIP3    H160299   4.659   0.628  14.230  1.4584  1.1456 -0.9967
12936TIP3    H260300   4.643   0.769  14.177 -1.2528  1.5959  0.8404
12937TIP3   OH260301   2.358   0.423  16.891 -0.0516  0.1153  0.1575
12937TIP3    H160302   2.284   0.375  16.927  0.3312 -0.9535 -0.4229
12937TIP3    H260303   2.319   0.476  16.821 -0.1269 -1.3662 -0.9739
12938TIP3   OH260304   3.404   4.470  15.868  0.4930 -0.3129  0.1132
12938TIP3    H160305   3.309   4.461  15.864  0.5125  0.0101 -1.3827
12938TIP3    H260306   3.420   4.563  15.855  0.9481 -0.0380  2.2999
12939TIP3   OH260307   1.205   3.764  12.836  0.4673  0.2510  0.5342
12939TIP3    H160308   1.199   3.690  12.896 -0.7648 -0.5947 -0.5731
12939TIP3    H260309   1.297   3.766  12.809  0.1565 -2.1691 -0.9491
12940TIP3   OH260310   1.034   0.996   3.781 -0.5051  0.4601  0.2398
12940TIP3    H160311   1.014   1.067   3.722 -0.5455 -0.3245 -0.7119
12940TIP3    H260312   1.129   0.984   3.774 -0.6086 -0.1287 -0.2566
12941TIP3   OH260313   0.510   6.221   2.001  0.3591 -0.3478 -0.3957
12941TIP3    H160314   0.600   6.198   2.023  0.0161 -1.7405 -0.4051
12941TIP3    H260315   0.469   6.139   1.976 -0.8391  0.3190 -0.7030
12942TIP3   OH260316   1.786   2.627   5.395 -0.4026 -0.7452  0.0865
12942TIP3    H160317   1.789   2.714   5.434 -1.6831  0.2216 -1.8737
12942TIP3    H260318   1.846   2.632   5.321 -1.0012 -1.3025 -0.4473
12943TIP3   OH260319   1.151   0.497   0.676 -0.0944  0.0214  0.4494
12943TIP3    H160320   1.139   0.466   0.586  1.1031 -3.6138  1.3595
12943TIP3    H260321   1.071   0.469   0.721 -0.3411  1.1166  0.7229
12944TIP3   OH260322   0.209   6.726   3.315  0.0898 -0.2674  0.0147
12944TIP3    H160323   0.238   6.817   3.305 -0.4689 -0.0342  0.4865
12944TIP3    H260324   0.205   6.712   3.410  1.6054 -1.2523 -0.0254
12945TIP3   OH260325   5.338   1.378  12.605 -0.4889  0.1166 -0.1267
12945TIP3    H160326   5.385   1.449  12.562 -1.6455  2.1064  1.6895
12945TIP3    H260327   5.406   1.319  12.638  0.5870  1.2920 -0.2019
12946TIP3   OH260328   6.843   6.749  15.766 -0.6115  0.3864  0.3801
12946TIP3    H160329   6.901   6.794  15.704 -0.3184  0.5517  0.7707
12946TIP3    H260330   6.763   6.802  15.767  0.0621  1.4365  1.5160
12947TIP3   OH260331   6.239   1.073  11.495 -0.4937  0.4185  0.1429
12947TIP3    H160332   6.315   1.033  11.537 -0.5990  0.3925  0.3059
12947TIP3    H260333   6.249   1.167  11.509 -0.5225  0.4107  0.2142
12948TIP3   OH260334   0.552   3.485  14.241 -0.1115  0.4169  0.3090
12948TIP3    H160335   0.517   3.489  14.152  0.7520 -1.0860 -0.1279
12948TIP3    H260336   0.583   3.573  14.258 -1.2601  1.0019 -0.4615
12949TIP3   OH260337   6.413   1.000  15.517 -0.0466 -1.2003  0.0099
12949TIP3    H160338   6.425   1.027  15.426 -0.7042  0.2326  0.3220
12949TIP3    H260339   6.413   0.904  15.514  0.3981 -1.1747 -1.4252
12950TIP3   OH260340   0.086   5.809  15.806 -0.4441 -0.1157 -0.3963
12950TIP3    H160341   0.010   5.863  15.827 -0.1907 -0.0742  0.4756
12950TIP3    H260342   0.055   5.719  15.817 -0.0821 -0.0861  1.1099
12951TIP3   OH260343   6.350   3.102  14.643 -0.4529  0.3053 -0.1586
12951TIP3    H160344   6.268   3.055  14.657 -1.5661  2.1146 -0.2748
12951TIP3    H260345   6.392   3.104  14.729  0.0258 -1.5548 -0.3126
12952TIP3   OH260346   2.585   5.721  15.645 -0.0057 -0.0498 -0.0197
12952TIP3    H160347   2.494   5.700  15.666 -0.3141 -1.1642 -2.1984
12952TIP3    H260348   2.598   5.685  15.557  2.1473  1.2766 -0.3083
12953TIP3   OH260349   5.459   4.238  12.335 -0.1056 -0.4364  0.1888
12953TIP3    H160350   5.470   4.323  12.378 -0.7300 -1.0150  1.5374
12953TIP3    H260351   5.514   4.178  12.385  0.2457 -0.8627 -0.6828
12954TIP3   OH260352   6.256   5.257  13.172 -0.1657  0.3816  0.4618
12954TIP3    H160353   6.344   5.288  13.152 -0.1955 -0.0918 -0.4294
12954TIP3    H260354   6.202   5.286  13.099 -0.3445 -1.0541 -0.0074
12955TIP3   OH260355   0.113   6.405  12.432  0.4853  0.2412 -0.0621
12955TIP3    H160356   0.187   6.372  12.483 -1.0325  0.1418  2.2047
12955TIP3    H260357   0.097   6.337  12.367  1.5243 -0.3634  0.2858
12956TIP3   OH260358   0.252   5.366   4.231 -0.2880  0.2058  0.1175
12956TIP3    H160359   0.343   5.395   4.227  0.0293 -0.7864 -0.3453
12956TIP3    H260360   0.229   5.347   4.140 -1.9393  3.2181 -0.2303
12957TIP3   OH260361   2.634   2.075   3.322 -0.5147  0.7732  0.0729
12957TIP3    H160362   2.567   2.119   3.269  0.0951  0.5359 -0.9067
12957TIP3    H260363   2.680   2.147   3.365 -2.5730  0.9078  2.3056
12958TIP3   OH260364   0.446   2.872  15.099  0.5609  0.1691 -0.3892
12958TIP3    H160365   0.431   2.961  15.069  1.2967  0.5812  0.4512
12958TIP3    H260366   0.532   2.848  15.064 -0.2218 -0.7336 -1.7931
12959TIP3   OH260367   5.514   6.329  12.184  0.1086  0.8091 -0.4111
12959TIP3    H160368   5.501   6.394  12.114  0.5670  1.7223  0.3371
12959TIP3    H260369   5.605   6.303  12.176 -0.1251  0.0926 -0.8332
12960TIP3   OH260370   3.807   5.441  11.982 -0.3891 -0.1059  0.1926
12960TIP3    H160371   3.876   5.379  11.958  0.3322  0.4237  0.8573
12960TIP3    H260372   3.817   5.453  12.076  1.2434  3.0511 -0.2596
12961TIP3   OH260373   1.322   0.453   5.345  0.0193  0.4154  0.1822
12961TIP3    H160374   1.366   0.537   5.355  0.8991 -0.0119  0.0777
12961TIP3    H260375   1.253   0.453   5.411  1.4110  0.3585  1.7047
12962TIP3   OH260376   3.844   1.919   5.510  0.1778 -0.1846  0.1131
12962TIP3    H160377   3.839   1.908   5.415 -0.5792  0.4106  0.0662
12962TIP3    H260378   3.752   1.930   5.537  0.5234  1.9422  0.6033
12963TIP3   OH260379   0.121   2.475   0.567 -0.4299  0.0358 -0.1388
12963TIP3    H160380   0.202   2.527   0.563 -0.2216 -0.3190 -0.6643
12963TIP3    H260381   0.107   2.460   0.660  1.7238 -2.3621 -0.0992
12964TIP3   OH260382   5.504   1.103  13.881 -0.1838 -0.1118 -0.4405
12964TIP3    H160383   5.521   1.190  13.845 -0.2935 -0.2954 -0.9482
12964TIP3    H260384   5.590   1.071  13.908 -0.2517  0.4815  0.5174
12965TIP3   OH260385   0.320   3.223  12.980 -0.4025 -0.5400 -0.0864
12965TIP3    H160386   0.411   3.243  13.002 -0.6137  0.4543 -0.0993
12965TIP3    H260387   0.268   3.269  13.046 -0.9503  0.4289 -1.1557
12966TIP3   OH260388   4.037   3.771  15.668 -0.5756  0.1894 -0.2334
12966TIP3    H160389   4.128   3.800  15.675 -0.8828  0.9300  0.8953
12966TIP3    H260390   3.986   3.837  15.715 -1.5847 -0.7708  0.0810
12967TIP3   OH260391   1.256   5.972  11.179  0.0543  0.2441  0.4475
12967TIP3    H160392   1.249   5.893  11.125  0.6404 -1.5588  2.8328
12967TIP3    H260393   1.341   6.010  11.156 -0.7001  0.8861 -1.5086
12968TIP3   OH260394   2.904   0.101  11.392 -0.2895  0.6662  0.3001
12968TIP3    H160395   2.823   0.131  11.433  0.1026  0.3834  1.3013
12968TIP3    H260396   2.974   0.141  11.444  0.2468  1.6749 -1.1048
12969TIP3   OH260397   0.871   4.272  12.007 -0.1811 -0.1515  0.6409
12969TIP3    H160398   0.904   4.343  12.062  0.7246 -0.1430  0.1104
12969TIP3    H260399   0.925   4.276  11.928 -1.6701  0.0321 -0.3873
12970TIP3   OH260400   6.421   3.348   0.553  0.2451  0.5307 -0.3110
12970TIP3    H160401   6.364   3.274   0.535  0.2782  0.3247  0.4182
12970TIP3    H260402   6.506   3.321   0.517  0.5613 -0.2922  0.9672
12971TIP3   OH260403   2.204   3.429  11.033 -0.0555  0.0981 -0.3588
12971TIP3    H160404   2.283   3.452  10.984 -1.1959 -0.3398 -2.5240
12971TIP3    H260405   2.144   3.503  11.018 -0.3890  0.0051  0.4810
12972TIP3   OH260406   2.884   1.534  14.425  0.1259  0.4954  0.3116
12972TIP3    H160407   2.797   1.562  14.396  0.6147  1.4006 -0.3067
12972TIP3    H260408   2.866   1.460  14.483 -1.0521  0.5882  0.1029
12973TIP3   OH260409   0.394   1.753  16.654  0.3962  0.1422  0.1906
12973TIP3    H160410   0.304   1.726  16.637  0.5993 -1.5139  1.6011
12973TIP3    H260411   0.429   1.775  16.567 -1.5415  1.5557 -0.3097
12974TIP3   OH260412   6.797   4.744  12.513  0.5410  0.0963 -0.4323
12974TIP3    H160413   6.715   4.725  12.468  0.8121 -1.2522 -0.3924
12974TIP3    H260414   6.852   4.667  12.496  1.2855  0.3544  0.7080
12975TIP3   OH260415   1.422   1.470  16.008  0.0560  0.0248  0.1813
12975TIP3    H160416   1.470   1.452  16.089  0.3714 -1.6673 -0.3289
12975TIP3    H260417   1.351   1.406  16.008  0.6360 -0.6640 -1.3155
12976TIP3   OH260418   6.074   0.816   2.074  0.2495 -0.0854  0.8068
12976TIP3    H160419   6.072   0.784   2.164 -1.0669 -0.3706  0.6950
12976TIP3    H260420   6.065   0.911   2.082 -0.2817 -0.1458  0.9694
12977TIP3   OH260421   0.041   5.544   3.616 -0.2782 -0.3932 -0.2568
12977TIP3    H160422   0.061   5.470   3.674 -0.9475  0.4557  1.1028
12977TIP3    H260423  -0.015   5.507   3.548 -1.7984 -0.8918  1.1966
12978TIP3   OH260424   4.013   0.195   0.510 -0.3635  0.0759  0.5097
12978TIP3    H160425   3.951   0.141   0.559  1.7726 -0.8442  2.3888
12978TIP3    H260426   3.993   0.285   0.538  0.4969 -0.3847  2.8716
12979TIP3   OH260427   3.503   0.326   4.352 -0.4105 -0.3886  0.3814
12979TIP3    H160428   3.479   0.379   4.428 -2.5850 -0.5753 -0.1349
12979TIP3    H260429   3.454   0.245   4.362  0.4863 -1.0649 -0.4440
12980TIP3   OH260430   3.377   4.990   5.661  0.2425  0.3337 -0.1178
12980TIP3    H160431   3.370   5.063   5.599  0.3930  0.3849 -0.0742
12980TIP3    H260432   3.468   4.991   5.689  0.7376 -1.0183 -1.5265
12981TIP3   OH260433   3.758   4.036   1.063 -0.0072 -0.0742  0.4628
12981TIP3    H160434   3.848   4.036   1.096  0.0141 -1.9223  0.5072
12981TIP3    H260435   3.714   3.969   1.114 -0.7810 -0.8650 -1.1808
12982TIP3   OH260436   6.324   0.295  12.370  0.3695  0.3017  0.1675
12982TIP3    H160437   6.253   0.243  12.408 -0.1485  0.5266 -0.4802
12982TIP3    H260438   6.388   0.230  12.341 -0.7790 -0.0680 -1.6573
12983TIP3   OH260439   3.298   5.103   5.250 -0.3095 -0.3388  0.5057
12983TIP3    H160440   3.393   5.097   5.260 -0.2978  0.5837  1.2056
12983TIP3    H260441   3.284   5.130   5.160 -0.0289 -2.5169 -0.2284
12984TIP3   OH260442   3.952   5.949  11.971 -0.3195 -0.2608  0.3331
12984TIP3    H160443   3.898   5.978  11.898 -0.0872 -0.9804 -0.1256
12984TIP3    H260444   4.030   6.005  11.968  0.6200 -1.5744 -1.1923
12985TIP3   OH260445   0.750   1.427   5.332  0.5417  0.4434 -0.1388
12985TIP3    H160446   0.772   1.496   5.395  0.9114  1.0712 -0.9497
12985TIP3    H260447   0.715   1.473   5.256 -0.4487 -0.3536 -0.1804
12986TIP3   OH260448   0.844   0.052  12.326 -0.3857  0.4334  0.0116
12986TIP3    H160449   0.781  -0.015  12.353 -2.3329  1.7623 -1.0460
12986TIP3    H260450   0.824   0.128  12.381  1.6531  0.2929  1.0383
12987TIP3   OH260451   2.451   6.436  13.919  0.2923 -0.0099 -0.2352
12987TIP3    H160452   2.388   6.392  13.975  0.5400 -2.0432 -1.4765
12987TIP3    H260453   2.533   6.436  13.970  0.0633 -0.1809  0.1351
12988TIP3   OH260454   3.494   5.865   2.566  0.0823 -0.1762 -0.3939
12988TIP3    H160455   3.462   5.893   2.652  1.0910  1.4404 -0.4998
12988TIP3    H260456   3.510   5.771   2.576  0.8006  0.0969  1.3989
12989TIP3   OH260457   1.401   4.476   4.780  0.0999 -0.3201  0.3083
12989TIP3    H160458   1.415   4.393   4.734 -0.1085 -0.9459  1.3374
12989TIP3    H260459   1.351   4.530   4.718  1.4178 -0.4354 -0.9049
12990TIP3   OH260460   3.946   1.298  14.417  0.1378 -0.7016 -0.4163
12990TIP3    H160461   3.879   1.272  14.353 -2.2577 -1.3674  2.1756
12990TIP3    H260462   3.901   1.359  14.475  2.2608 -0.0197  0.6084
12991TIP3   OH260463   1.502   2.794  16.559  0.2105  0.5813 -0.3504
12991TIP3    H160464   1.463   2.775  16.644  1.5572  0.4847  0.2708
12991TIP3    H260465   1.577   2.850  16.579  0.3337  0.8611 -1.5152
12992TIP3   OH260466   6.098   0.805   9.677 -0.1446 -0.3229  0.2647
12992TIP3    H160467   6.111   0.752   9.598  0.5378 -2.1896  1.5618
12992TIP3    H260468   6.017   0.773   9.715  0.7992 -1.2351  1.6056
12993TIP3   OH260469   6.399   3.629  15.880  0.0916  0.6897 -0.1424
12993TIP3    H160470   6.344   3.653  15.954 -0.8961 -2.4578  0.3040
12993TIP3    H260471   6.369   3.684  15.808 -1.0920  1.6156  1.0284
12994TIP3   OH260472   2.221   4.909  14.785 -0.0996 -0.9869 -0.0170
12994TIP3    H160473   2.157   4.979  14.797  0.6395 -0.0601 -1.2727
12994TIP3    H260474   2.282   4.919  14.857  1.0575  0.8947 -1.1660
12995TIP3   OH260475   0.750   6.702  14.004 -0.5646  0.2425 -0.2124
12995TIP3    H160476   0.800   6.635  13.957 -0.4296  0.1495  0.0634
12995TIP3    H260477   0.667   6.708  13.955 -0.7075 -0.3509 -0.0546
12996TIP3   OH260478   2.630   6.136   6.443 -0.2674 -0.0078 -0.4980
12996TIP3    H160479   2.714   6.178   6.424 -1.0593  0.9666 -2.0957
12996TIP3    H260480   2.652   6.046   6.464  1.2778  0.5576  0.4738
12997TIP3   OH260481   3.750   6.272   4.692  0.0602 -0.5656 -0.1373
12997TIP3    H160482   3.688   6.264   4.619  2.2483 -0.6615 -2.1102
12997TIP3    H260483   3.717   6.211   4.757 -1.6061 -1.0323 -1.3286
12998TIP3   OH260484   0.174   5.440  12.017  0.1406 -0.3762 -0.5156
12998TIP3    H160485   0.257   5.446  11.971  0.2790  1.6072 -0.1116
12998TIP3    H260486   0.115   5.397  11.955  0.8036  0.5483 -1.8333
12999TIP3   OH260487   6.719   0.478  14.189 -0.3084  0.0701  0.4897
12999TIP3    H160488   6.663   0.410  14.154 -1.7389  0.1402  2.4753
12999TIP3    H260489   6.758   0.440  14.267  2.1606  0.1764 -0.5804
13000TIP3   OH260490   3.605   3.803   2.811 -0.1003  0.1952 -0.3562
13000TIP3    H160491   3.582   3.896   2.812 -0.2999  0.1491  0.6160
13000TIP3    H260492   3.700   3.801   2.820 -0.0502  0.3136 -0.8483
13001TIP3   OH260493   4.839   1.750   2.033 -0.2681 -0.5143  0.7344
13001TIP3    H160494   4.822   1.810   2.105 -0.8364  0.0967  0.0993
13001TIP3    H260495   4.760   1.696   2.028 -0.5620 -0.0375  0.0802
13002TIP3   OH260496   5.062   4.804   1.867  0.2296 -0.5125  0.5156
13002TIP3    H160497   5.131   4.803   1.801 -0.2123  0.3128  0.0159
13002TIP3    H260498   5.056   4.713   1.897  0.1687 -0.9967 -0.8821
13003TIP3   OH260499   2.450   3.364   4.696 -0.4121 -0.2495 -0.1432
13003TIP3    H160500   2.388   3.416   4.644 -0.1988  0.4573  0.2928
13003TIP3    H260501   2.525   3.350   4.638 -0.6084 -0.3552 -0.3744
13004TIP3   OH260502   3.195   6.382  13.342 -0.2129 -0.5284  0.4311
13004TIP3    H160503   3.220   6.471  13.314  0.0214 -0.2678  1.4232
13004TIP3    H260504   3.279   6.337  13.354 -0.3273 -0.8269  0.1268
13005TIP3   OH260505   5.516   1.865   1.771 -0.4406 -0.0610 -0.1511
13005TIP3    H160506   5.456   1.898   1.838 -0.6084 -1.1362  0.2371
13005TIP3    H260507   5.593   1.837   1.819  0.1944  0.8538 -0.6026
13006TIP3   OH260508   2.605   4.202  11.469  0.3581  0.4813  0.0686
13006TIP3    H160509   2.523   4.236  11.504  0.4614  0.2752  0.5229
13006TIP3    H260510   2.674   4.249  11.517  0.5129 -1.3035  1.7120
13007TIP3   OH260511   3.374   5.140  12.907  0.3512 -0.7052 -0.9344
13007TIP3    H160512   3.372   5.116  13.000 -0.7945 -0.0775 -0.7716
13007TIP3    H260513   3.283   5.161  12.886  1.1255  4.1214 -0.8216
13008TIP3   OH260514   6.185   0.821   1.806  0.1059 -0.0198  0.1621
13008TIP3    H160515   6.172   0.821   1.901 -0.4041 -0.5623  0.0985
13008TIP3    H260516   6.102   0.789   1.770  0.2663  0.2657 -0.4718
13009TIP3   OH260517   5.989   4.232   2.046  0.1955 -0.0306 -0.0873
13009TIP3    H160518   5.997   4.315   2.000 -0.4422  0.4948  0.7130
13009TIP3    H260519   6.004   4.254   2.138  1.0601 -0.9879  0.0196
13010TIP3   OH260520   5.717   5.214  11.878  0.0681 -0.2043  0.0827
13010TIP3    H160521   5.661   5.272  11.827 -0.2111  0.1740  0.8090
13010TIP3    H260522   5.759   5.271  11.943  2.4773 -0.1718 -1.3627
13011TIP3   OH260523   0.290   1.538  13.402 -0.2702 -0.5063 -0.0795
13011TIP3    H160524   0.356   1.602  13.429 -0.9955  0.1808  0.1024
13011TIP3    H260525   0.303   1.529  13.308 -1.8219  1.9113 -0.6057
13012TIP3   OH260526   0.752   4.410   2.101  0.1159  0.0676 -0.7357
13012TIP3    H160527   0.694   4.372   2.035  2.3357 -0.4688 -2.4953
13012TIP3    H260528   0.796   4.482   2.056  0.0486  1.1691  0.8842
13013TIP3   OH260529   6.785   1.564  14.011  0.4753  0.0342 -0.2970
13013TIP3    H160530   6.778   1.652  13.973  1.1082  0.0262 -0.4413
13013TIP3    H260531   6.795   1.579  14.104  2.1985  0.1892 -0.4879
13014TIP3   OH260532   5.347   1.209  16.712 -0.4479  0.6940 -0.1217
13014TIP3    H160533   5.392   1.146  16.769  1.0483  2.3107  0.5633
13014TIP3    H260534   5.285   1.253  16.770  0.2432  1.5231  0.0072
13015TIP3   OH260535   4.738   5.778  13.470  0.4198 -0.4921  0.4411
13015TIP3    H160536   4.656   5.822  13.444 -0.7796 -2.4675  0.6644
13015TIP3    H260537   4.757   5.718  13.398  1.4052 -0.4176  0.6333
13016TIP3   OH260538   2.132   5.223   3.640  0.4585 -0.4599 -1.0766
13016TIP3    H160539   2.187   5.168   3.695 -0.1357 -0.6473 -0.6579
13016TIP3    H260540   2.042   5.195   3.659  0.0170  1.7064  0.3586
13017TIP3   OH260541   1.633   0.602   1.675  0.1101 -0.3470  0.3495
13017TIP3    H160542   1.635   0.691   1.709  1.6372  0.1386 -0.8849
13017TIP3    H260543   1.700   0.556   1.727  1.4789  0.0495 -0.9825
13018TIP3   OH260544   0.199   1.459   4.893 -0.1421 -0.1351  0.0627
13018TIP3    H160545   0.148   1.383   4.923  0.7582 -1.3639 -1.3903
13018TIP3    H260546   0.244   1.428   4.814 -0.5230  2.2173 -1.1653
13019TIP3   OH260547   0.366   6.755   6.147  0.1996 -0.6579 -0.0851
13019TIP3    H160548   0.417   6.750   6.228  2.4267 -1.7888 -1.4646
13019TIP3    H260549   0.405   6.689   6.090 -0.4166  0.9916 -2.5603
13020TIP3   OH260550   6.774   5.543   1.993 -0.1445  0.2532 -0.2996
13020TIP3    H160551   6.756   5.615   1.932 -4.4013 -1.8002 -1.8749
13020TIP3    H260552   6.805   5.472   1.938 -1.0863 -0.6942  0.3477
13021TIP3   OH260553   4.004   4.690   5.094  0.1821 -0.1505  0.2820
13021TIP3    H160554   3.985   4.728   5.180 -1.0049  2.8770 -1.1480
13021TIP3    H260555   3.918   4.672   5.056  0.6982 -2.1049 -0.0832
13022TIP3   OH260556   1.903   1.632   2.814 -0.1761  0.3331 -0.0673
13022TIP3    H160557   1.844   1.588   2.752  1.2261 -0.6073 -0.7917
13022TIP3    H260558   1.866   1.611   2.900 -1.1059  0.0793 -0.5082
13023TIP3   OH260559   0.027   2.843   0.458 -0.0810 -0.2317 -0.2117
13023TIP3    H160560   0.121   2.854   0.472 -0.3120  3.5710 -0.5536
13023TIP3    H260561  -0.011   2.849   0.546 -0.1281  0.4548 -0.2770
13024TIP3   OH260562   4.327   2.637   1.443 -0.6471  0.6030 -0.4655
13024TIP3    H160563   4.252   2.647   1.385 -1.3406 -0.1544  0.2741
13024TIP3    H260564   4.305   2.561   1.497  1.6964 -1.2362 -1.8638
13025TIP3   OH260565   2.176   1.692   1.801  0.5521  0.0780 -0.9121
13025TIP3    H160566   2.191   1.644   1.720  1.4424  1.4582 -1.6021
13025TIP3    H260567   2.087   1.726   1.794  1.4584  2.3937 -2.5854
13026TIP3   OH260568   2.868   6.140   1.636  0.0856 -0.4636  1.0008
13026TIP3    H160569   2.775   6.148   1.614  0.1796  0.1204  0.7868
13026TIP3    H260570   2.874   6.059   1.686 -0.1957 -1.6914 -0.8477
13027TIP3   OH260571   4.352   6.166  16.709 -0.0975  0.0296 -0.1332
13027TIP3    H160572   4.311   6.215  16.781 -0.0230  1.7042 -1.1708
13027TIP3    H260573   4.416   6.109  16.752  0.8521  1.9064  1.0878
13028TIP3   OH260574   1.392   1.208   2.549  0.6650  0.2358  0.1177
13028TIP3    H160575   1.357   1.136   2.602 -0.2011 -0.7519 -1.6865
13028TIP3    H260576   1.405   1.279   2.611 -2.6716 -0.0104  1.3023
13029TIP3   OH260577   5.939   6.744  15.573 -0.1414 -0.2136 -1.1057
13029TIP3    H160578   5.905   6.759  15.661  2.6175 -0.0948  0.0426
13029TIP3    H260579   5.967   6.653  15.572  1.4950  0.2569 -1.1963
13030TIP3   OH260580   4.201   0.714   3.094 -0.0744  0.4469 -0.1596
13030TIP3    H160581   4.137   0.764   3.043 -0.9160  0.7008  1.0976
13030TIP3    H260582   4.248   0.780   3.145  0.2765  0.1433 -0.0858
13031TIP3   OH260583   4.377   5.239   6.129 -0.4584  0.0821  0.2866
13031TIP3    H160584   4.323   5.291   6.069 -2.4303 -1.5719  0.5074
13031TIP3    H260585   4.336   5.251   6.215 -0.2209 -0.8684  0.5432
13032TIP3   OH260586   0.320   1.181  17.025  0.0716 -0.0546  0.0788
13032TIP3    H160587   0.393   1.195  16.965 -0.5967  1.1413 -0.4905
13032TIP3    H260588   0.322   1.258  17.082 -1.2506  0.4349 -0.5025
13033TIP3   OH260589   3.525   1.917  15.131  0.5686 -0.2468  0.5154
13033TIP3    H160590   3.611   1.914  15.091 -0.2082 -0.9736 -1.2158
13033TIP3    H260591   3.480   1.989  15.086 -0.4509 -1.3312 -0.2866
13034TIP3   OH260592   3.041   3.880   5.914 -0.1185 -0.5230 -0.2365
13034TIP3    H160593   3.003   3.887   6.002  0.4188  1.0218 -0.1092
13034TIP3    H260594   3.118   3.824   5.925 -0.2321 -0.5918  0.2069
13035TIP3   OH260595   4.441   4.805  15.735  0.3939  0.2602  0.1036
13035TIP3    H160596   4.491   4.775  15.659  1.6260 -0.2450  1.0692
13035TIP3    H260597   4.354   4.824  15.700  0.6433 -0.8772 -1.2577
13036TIP3   OH260598   5.800   1.179  13.595  0.3944 -0.7614 -0.9963
13036TIP3    H160599   5.848   1.140  13.521 -0.9306 -2.1305 -1.1940
13036TIP3    H260600   5.714   1.138  13.591 -0.4778  0.8987 -0.0716
13037TIP3   OH260601   0.740   0.216   1.513  0.6263 -0.4485 -0.2564
13037TIP3    H160602   0.823   0.233   1.558  0.0513  2.4553 -0.0544
13037TIP3    H260603   0.766   0.179   1.428  1.9230 -2.2973  0.8667
13038TIP3   OH260604   6.816   6.616  12.357 -0.1962 -0.0674  0.2788
13038TIP3    H160605   6.876   6.547  12.385  0.1810  0.3315  0.4781
13038TIP3    H260606   6.792   6.593  12.267 -0.6162 -0.8184  0.5780
13039TIP3   OH260607   6.463   4.217   0.083  0.1086 -0.5481 -0.2664
13039TIP3    H160608   6.388   4.178   0.039 -2.2457  0.8452  2.1756
13039TIP3    H260609   6.536   4.158   0.065 -1.5308 -2.0027 -2.7173
13040TIP3   OH260610   0.980   5.062   4.364 -0.3480  0.2578 -0.3388
13040TIP3    H160611   1.043   5.112   4.415  0.1547  0.3775 -1.0595
13040TIP3    H260612   0.896   5.106   4.380 -0.5589 -0.8063  1.8298
13041TIP3   OH260613   1.521   1.549   5.798 -0.1834  0.3594  0.0379
13041TIP3    H160614   1.573   1.584   5.725  0.3229  0.8651  0.6339
13041TIP3    H260615   1.541   1.455   5.798  0.9025  0.5803  0.3855
13042TIP3   OH260616   4.825   1.711  15.092 -0.2873 -0.3112 -0.3706
13042TIP3    H160617   4.733   1.703  15.066 -0.9106  2.2220  0.7423
13042TIP3    H260618   4.832   1.662  15.174 -1.5524  2.0192  1.2588
13043TIP3   OH260619   6.781   3.684  10.245  0.3934 -0.1064 -0.4204
13043TIP3    H160620   6.787   3.775  10.273  0.1547 -0.2366  0.0846
13043TIP3    H260621   6.735   3.687  10.161 -2.6710  0.0240  1.1055
13044TIP3   OH260622   3.363   5.115   6.344  0.5486 -0.3815 -0.4468
13044TIP3    H160623   3.445   5.154   6.313  0.5790  0.0334  0.1465
13044TIP3    H260624   3.369   5.119   6.440 -0.3490  0.0434 -0.3993
13045TIP3   OH260625   5.619   5.884  12.152  0.1179  0.3142 -0.2527
13045TIP3    H160626   5.704   5.842  12.167 -0.3261 -0.8538 -0.8889
13045TIP3    H260627   5.592   5.854  12.066 -0.0326  2.2937 -0.9582
13046TIP3   OH260628   0.929   1.061  11.621 -0.7468  0.2540 -0.2314
13046TIP3    H160629   0.959   1.123  11.554 -0.0272 -0.7048 -0.8232
13046TIP3    H260630   0.841   1.091  11.643  0.2033  2.5728  0.8225
13047TIP3   OH260631   1.211   0.929  13.788 -0.1614  0.0111 -0.2320
13047TIP3    H160632   1.282   0.939  13.851 -1.1272  0.7215  0.8139
13047TIP3    H260633   1.253   0.906  13.706  1.1611 -0.7741  0.6368
13048TIP3   OH260634   5.523   4.847  11.863 -0.0818 -0.0403 -0.1693
13048TIP3    H160635   5.612   4.845  11.828 -0.3588 -1.4512 -0.8591
13048TIP3    H260636   5.482   4.922  11.820  0.5555  0.1941 -0.3840
13049TIP3   OH260637   1.514   4.691  13.716 -0.3295  0.2011 -0.3150
13049TIP3    H160638   1.510   4.604  13.757  3.4575  0.1235  0.2466
13049TIP3    H260639   1.585   4.684  13.653 -2.3520  1.9522 -2.9836
13050TIP3   OH260640   1.939   0.370   2.718  0.1382  0.1735 -0.1148
13050TIP3    H160641   1.871   0.361   2.651  0.1281 -1.8442  0.1064
13050TIP3    H260642   1.896   0.417   2.789 -0.2197  1.2456 -1.0267
13051TIP3   OH260643   0.443   3.219  16.167  0.2971  0.2350  0.0745
13051TIP3    H160644   0.362   3.205  16.118 -2.0225 -1.4504  3.9703
13051TIP3    H260645   0.510   3.176  16.114 -1.6516 -0.0942 -2.3124
13052TIP3   OH260646   5.219   1.706   5.036 -0.0015 -0.0714  0.1935
13052TIP3    H160647   5.284   1.751   5.090  0.0172  0.3956 -0.2009
13052TIP3    H260648   5.136   1.724   5.079  0.3047 -2.6787  2.0632
13053TIP3   OH260649   1.435   2.240  15.128 -0.4991 -0.2532 -0.3244
13053TIP3    H160650   1.500   2.171  15.116  0.1122  0.1343  0.6031
13053TIP3    H260651   1.428   2.250  15.223 -1.8843 -0.2402 -0.4069
13054TIP3   OH260652   1.169   0.387   4.010  1.2298  0.3182 -0.0981
13054TIP3    H160653   1.142   0.303   4.045  0.5230  0.3845 -0.4593
13054TIP3    H260654   1.179   0.444   4.087 -1.7066  0.8758 -0.0248
13055TIP3   OH260655   4.526   6.568   4.054 -0.0414  0.5873  0.4388
13055TIP3    H160656   4.458   6.554   3.988  0.2524  0.5195  0.1458
13055TIP3    H260657   4.480   6.608   4.128 -0.1459  1.8776 -0.2995
13056TIP3   OH260658   0.686   1.341   1.356  0.1908 -0.1972 -0.2621
13056TIP3    H160659   0.727   1.395   1.288 -0.4817 -0.4182 -0.8649
13056TIP3    H260660   0.674   1.400   1.430 -0.8007  0.5761 -1.0180
13057TIP3   OH260661   1.416   2.741   5.598  0.3539 -0.1331  0.3632
13057TIP3    H160662   1.504   2.704   5.595  0.8078  0.9761 -1.9715
13057TIP3    H260663   1.359   2.664   5.601  1.3575 -0.8876  0.9917
13058TIP3   OH260664   2.069   3.238  16.820  0.1917  0.1850  0.5165
13058TIP3    H160665   2.089   3.170  16.884 -0.6242 -1.1161 -0.5670
13058TIP3    H260666   1.973   3.239  16.815  0.2371  0.3398 -0.6017
13059TIP3   OH260667   0.809   5.276   1.811  0.1280  0.2747 -0.1721
13059TIP3    H160668   0.720   5.242   1.806 -0.1523  0.7824  1.1577
13059TIP3    H260669   0.798   5.371   1.814  0.6712  0.3133  0.8183
13060TIP3   OH260670   2.085   6.284  16.687 -0.5421 -0.0570 -0.2860
13060TIP3    H160671   2.181   6.293  16.687 -0.2926 -2.1120 -1.3736
13060TIP3    H260672   2.065   6.247  16.773 -0.1053 -1.3921 -0.7269
13061TIP3   OH260673   0.542   0.005  10.745 -0.3782 -0.0992 -0.4159
13061TIP3    H160674   0.635  -0.017  10.748 -0.2859  0.3800  0.9962
13061TIP3    H260675   0.497  -0.079  10.752 -0.0190 -0.1740  2.8414
13062TIP3   OH260676   0.162   4.943  11.601 -0.4101  0.4904 -0.0651
13062TIP3    H160677   0.182   5.035  11.586 -0.6001  0.5812  0.2252
13062TIP3    H260678   0.246   4.905  11.627 -0.0010  0.2605 -1.5988
13063TIP3   OH260679   1.818   1.131  11.171 -0.3840 -0.0093  0.4941
13063TIP3    H160680   1.886   1.063  11.168  0.6180  0.9202  1.3213
13063TIP3    H260681   1.743   1.091  11.128  0.1137 -1.7240  1.1237
13064TIP3   OH260682   4.791   3.313  15.475  0.3905 -0.1788  0.8683
13064TIP3    H160683   4.848   3.367  15.531  1.4835 -1.4490  1.0332
13064TIP3    H260684   4.816   3.223  15.496  0.8466 -0.7075 -1.6892
13065TIP3   OH260685   3.401   5.642  16.345  0.4645 -1.1791 -0.1373
13065TIP3    H160686   3.365   5.712  16.291 -1.4151 -1.6167  0.4691
13065TIP3    H260687   3.494   5.661  16.351  0.4509 -0.2744 -2.2406
13066TIP3   OH260688   4.437   4.084  13.218 -0.3727 -0.4421  0.1106
13066TIP3    H160689   4.516   4.117  13.177  0.2391 -1.2871  0.5835
13066TIP3    H260690   4.372   4.154  13.206  0.5204  0.3772 -0.0179
13067TIP3   OH260691   4.597   4.125   5.849  0.6895 -0.1722 -0.0962
13067TIP3    H160692   4.655   4.052   5.869  1.2981  0.2029 -0.4430
13067TIP3    H260693   4.520   4.085   5.809  0.5780 -0.7017  0.6486
13068TIP3   OH260694   4.146   0.327  12.000 -0.5883 -0.5236 -0.0772
13068TIP3    H160695   4.231   0.370  12.003  1.0666 -3.5787  1.2643
13068TIP3    H260696   4.144   0.285  11.914 -1.9746  1.6021 -1.1726
13069TIP3   OH260697   6.625   4.583   5.112 -0.8698  0.1497 -0.3184
13069TIP3    H160698   6.677   4.504   5.122 -1.0286  0.2109  1.2374
13069TIP3    H260699   6.688   4.651   5.087  0.2572  0.6492  3.3214
13070TIP3   OH260700   3.051   5.224   3.470  0.0193 -0.6313 -0.1382
13070TIP3    H160701   2.977   5.186   3.423  0.4956  1.5969 -2.9732
13070TIP3    H260702   3.074   5.303   3.420  3.5390 -0.5371  1.2976
13071TIP3   OH260703   5.237   3.295   0.057 -0.2191 -0.5518 -0.0995
13071TIP3    H160704   5.219   3.380   0.097 -0.9223  0.4935 -2.4935
13071TIP3    H260705   5.261   3.239   0.131 -0.2368  1.5645  1.6123
13072TIP3   OH260706   3.156   1.941  13.433  0.7533  0.1165 -0.2826
13072TIP3    H160707   3.078   1.990  13.406  0.8109  0.9945  1.0394
13072TIP3    H260708   3.191   1.905  13.351 -1.2956 -0.7340 -0.8461
13073TIP3   OH260709   2.274   2.773   4.589 -0.1692 -0.2895 -0.7057
13073TIP3    H160710   2.244   2.714   4.657  0.5409 -0.7838 -0.8111
13073TIP3    H260711   2.293   2.716   4.514 -0.7359  0.2185 -1.2552
13074TIP3   OH260712   4.431   4.052   1.855 -0.1734  1.0068  0.2303
13074TIP3    H160713   4.477   4.029   1.774 -0.4509 -1.3015  0.6519
13074TIP3    H260714   4.363   4.113   1.827 -0.9939 -0.5980 -1.5518
13075TIP3   OH260715   3.958   1.992   0.211  0.4052  0.1579  0.6707
13075TIP3    H160716   3.938   1.905   0.175 -2.3474  0.6619  0.7762
13075TIP3    H260717   3.965   2.049   0.135  0.8847  0.1068  0.6711
13076TIP3   OH260718   1.657   3.117  11.610 -0.5856 -0.4209  0.8196
13076TIP3    H160719   1.615   3.051  11.555  0.2470  0.3937 -0.8815
13076TIP3    H260720   1.615   3.199  11.586  0.6017  0.1168  0.5114
13077TIP3   OH260721   2.450   2.706  16.502 -0.4759  0.0091  0.7845
13077TIP3    H160722   2.405   2.640  16.553 -0.7355  0.9349  1.7891
13077TIP3    H260723   2.533   2.720  16.547  0.2962 -0.7604 -0.3286
13078TIP3   OH260724   4.933   3.176  12.410 -0.0309  0.6318 -0.3053
13078TIP3    H160725   4.850   3.191  12.363  1.3701  2.3431 -2.4035
13078TIP3    H260726   4.959   3.262  12.441  1.2911  0.2095 -0.2049
13079TIP3   OH260727   2.711   4.071  12.430  0.0467 -0.4048 -0.1233
13079TIP3    H160728   2.682   4.082  12.340 -0.9270 -3.0997 -0.2344
13079TIP3    H260729   2.630   4.059  12.481  0.5766  1.0051  1.1333
13080TIP3   OH260730   5.938   5.618  14.149 -0.3743  0.1044 -0.4103
13080TIP3    H160731   5.980   5.699  14.179 -1.1192  0.1815  0.4721
13080TIP3    H260732   5.929   5.565  14.228  0.3408 -0.9618 -1.0323
13081TIP3   OH260733   2.434   6.646   2.659 -0.1267  0.0306 -0.4663
13081TIP3    H160734   2.392   6.704   2.596 -0.3429  0.2495 -0.1266
13081TIP3    H260735   2.470   6.574   2.607 -1.6003 -0.5654 -0.7062
13082TIP3   OH260736   5.815   3.526  16.696  0.0760  0.4770  0.3795
13082TIP3    H160737   5.889   3.563  16.744 -0.3887  0.2530  1.2892
13082TIP3    H260738   5.848   3.514  16.606  0.7221  1.5918  0.4532
13083TIP3   OH260739   1.225   5.038  15.905 -0.5120  0.3335 -0.1500
13083TIP3    H160740   1.301   5.095  15.917 -1.0182  0.9426  0.2524
13083TIP3    H260741   1.150   5.097  15.910 -1.0450 -0.3533  0.1930
13084TIP3   OH260742   0.026   5.059   4.293  0.0648  0.5157  0.4162
13084TIP3    H160743  -0.048   5.116   4.315  0.7069  0.5740  2.5385
13084TIP3    H260744   0.004   5.025   4.206 -2.6877  0.1890  1.1447
13085TIP3   OH260745   6.275   4.754   1.110  0.1752  0.0537  0.2623
13085TIP3    H160746   6.245   4.733   1.198  1.7657 -1.4572  0.4952
13085TIP3    H260747   6.234   4.689   1.054  1.3421 -0.7417  0.3032
13086TIP3   OH260748   2.615   1.774  17.071 -0.1605  0.5614 -0.6661
13086TIP3    H160749   2.549   1.705  17.081 -0.4492  1.0281  1.1378
13086TIP3    H260750   2.565   1.856  17.079  0.2711  0.9758 -2.1121
13087TIP3   OH260751   5.259   3.599   3.427 -0.0965 -0.3987  0.0822
13087TIP3    H160752   5.236   3.649   3.505  1.0093  1.0763 -0.5042
13087TIP3    H260753   5.301   3.520   3.461  2.8155  1.4104  1.0329
13088TIP3   OH260754   4.006   2.409   0.055  0.1244 -0.3385 -0.0981
13088TIP3    H160755   4.002   2.417  -0.040 -1.2683  2.4589  0.1126
13088TIP3    H260756   3.947   2.336   0.075  0.9135 -1.3693 -1.3779
13089TIP3   OH260757   1.762   6.045  12.981  0.1073 -0.4478 -0.0279
13089TIP3    H160758   1.843   6.079  13.020 -0.6061  2.3999 -0.7754
13089TIP3    H260759   1.700   6.117  12.989 -1.5251 -1.5307 -2.0064
13090TIP3   OH260760   1.091   1.904   5.647 -0.0583 -0.5856 -0.0105
13090TIP3    H160761   1.161   1.964   5.621 -0.6551 -0.2300 -0.8401
13090TIP3    H260762   1.094   1.904   5.742  0.0597  0.6414  0.0063
13091TIP3   OH260763   3.020   3.883   4.827  0.2245  0.4895 -0.4433
13091TIP3    H160764   3.053   3.846   4.745  1.6632 -1.1567  0.8024
13091TIP3    H260765   3.010   3.977   4.809  1.3375  0.3054 -2.2240
13092TIP3   OH260766   3.506   3.736   0.578 -0.1539  0.2134 -0.8178
13092TIP3    H160767   3.558   3.656   0.584 -0.2701  0.2122  0.7332
13092TIP3    H260768   3.418   3.707   0.554  0.0777  0.0089 -1.4311
13093TIP3   OH260769   0.014   3.655   4.629 -0.3973  0.6114  0.8372
13093TIP3    H160770   0.012   3.588   4.560 -0.6127  0.2709  1.1714
13093TIP3    H260771   0.092   3.707   4.610  0.3555 -0.3632  1.1681
13094TIP3   OH260772   5.301   1.131  11.687 -0.3489 -0.6212 -0.0424
13094TIP3    H160773   5.382   1.088  11.661  0.4478  1.4525 -1.2104
13094TIP3    H260774   5.317   1.224  11.674 -2.0623  0.0932  2.1480
13095TIP3   OH260775   1.086   0.744  10.702 -0.6286  0.2627 -0.7248
13095TIP3    H160776   0.996   0.729  10.676 -0.3157 -2.4101 -0.5684
13095TIP3    H260777   1.099   0.687  10.778  1.3129  0.2176 -1.0265
13096TIP3   OH260778   4.068   2.535   1.044 -0.2712 -0.5422 -0.1816
13096TIP3    H160779   4.061   2.538   0.949 -1.5268 -1.0528 -0.1224
13096TIP3    H260780   4.100   2.447   1.063 -0.3738 -0.5628 -0.1056
13097TIP3   OH260781   4.444   1.636   3.759  0.1157  0.0911 -0.1060
13097TIP3    H160782   4.519   1.579   3.778  0.0607 -0.5818 -1.7496
13097TIP3    H260783   4.420   1.673   3.844  0.6090 -1.7915  0.9219
13098TIP3   OH260784   3.581   5.215  15.505  0.0135 -0.5731  0.1521
13098TIP3    H160785   3.509   5.228  15.567 -0.0556 -0.0977 -0.0243
13098TIP3    H260786   3.634   5.146  15.545  1.4001  1.4572  2.0752
13099TIP3   OH260787   5.090   1.453   3.003  0.7770  0.1196 -0.4864
13099TIP3    H160788   5.102   1.375   2.949 -0.5522 -0.1765 -0.3871
13099TIP3    H260789   5.179   1.480   3.025  1.2804 -1.1231 -0.8653
13100TIP3   OH260790   3.265   5.531  12.495 -0.2368  0.1377  0.3133
13100TIP3    H160791   3.342   5.475  12.490  1.4204  2.1243  1.8391
13100TIP3    H260792   3.225   5.526  12.408  2.4321  0.1750 -1.0096
13101TIP3   OH260793   1.433   4.684   0.105 -0.0549  0.6446 -0.3195
13101TIP3    H160794   1.354   4.669   0.158  0.2396 -0.7962 -0.2514
13101TIP3    H260795   1.411   4.649   0.019  0.7257 -0.3759 -0.1149
13102TIP3   OH260796   5.962   1.852   2.990  0.0050 -0.0161  0.3346
13102TIP3    H160797   5.954   1.894   3.076 -0.1844  0.6592 -0.0060
13102TIP3    H260798   5.963   1.925   2.928  2.7584 -0.3041 -0.0966
13103TIP3   OH260799   5.039   0.569  13.810 -0.7836 -0.4579  0.2305
13103TIP3    H160800   5.090   0.501  13.854 -0.7262  0.7663  2.1580
13103TIP3    H260801   4.967   0.587  13.869 -0.1301  1.9780  0.3764
13104TIP3   OH260802   3.368   5.770  17.123  0.2431  0.3701  0.1628
13104TIP3    H160803   3.350   5.786  17.216 -2.1255  1.5679 -0.4234
13104TIP3    H260804   3.293   5.808  17.077 -0.8372 -3.7939 -2.0491
13105TIP3   OH260805   3.782   1.947  15.980 -0.0054  0.8370 -0.5904
13105TIP3    H160806   3.855   1.976  16.034 -0.0359 -1.8107  1.0456
13105TIP3    H260807   3.818   1.943  15.891  0.8520  2.5818 -0.3722
13106TIP3   OH260808   0.770   6.073   1.779 -0.2081  0.4213  0.6078
13106TIP3    H160809   0.771   6.062   1.874  1.5985 -1.0822  0.4586
13106TIP3    H260810   0.719   5.999   1.747 -1.2964  1.2344  0.4016
13107TIP3   OH260811   2.413   6.595  13.295 -0.2774  0.3270  0.0134
13107TIP3    H160812   2.331   6.640  13.316  0.6431  1.8496  0.5415
13107TIP3    H260813   2.429   6.538  13.371 -0.7953  0.0750 -0.0606
13108TIP3   OH260814   0.960   4.849   2.277 -0.3410  0.0029  0.1579
13108TIP3    H160815   0.979   4.864   2.369  0.7486 -1.6792  0.2495
13108TIP3    H260816   1.039   4.807   2.243 -0.2125  1.7305 -1.8683
13109TIP3   OH260817   5.031   0.634   1.167  0.3168  0.4316 -0.3248
13109TIP3    H160818   4.949   0.674   1.138 -1.1484 -0.5472  2.0892
13109TIP3    H260819   5.066   0.695   1.232  0.3551 -0.1270  0.1959
13110TIP3   OH260820   0.532   5.478   4.249 -0.3069 -0.3142  0.6110
13110TIP3    H160821   0.601   5.545   4.244 -2.3161  1.7880 -0.8188
13110TIP3    H260822   0.504   5.479   4.340 -0.2983  0.8259  0.6180
13111TIP3   OH260823   1.385   5.390  13.482  0.1534 -0.4296  0.2713
13111TIP3    H160824   1.444   5.429  13.417 -0.2136 -0.2889  0.0232
13111TIP3    H260825   1.439   5.382  13.561  0.5358 -0.3943  0.0173
13112TIP3   OH260826   4.823   2.581   3.979 -0.4051  0.0898 -0.0186
13112TIP3    H160827   4.771   2.629   4.044  1.0328  1.1947  0.3580
13112TIP3    H260828   4.774   2.591   3.898 -0.4757  1.6811  0.1871
13113TIP3   OH260829   2.021   4.141   1.048  0.0835 -0.5472 -0.3910
13113TIP3    H160830   2.062   4.096   1.121 -2.2619 -0.5770  0.9807
13113TIP3    H260831   2.030   4.234   1.068  0.8790 -0.4934 -0.9292
13114TIP3   OH260832   4.485   0.771  10.612  0.4749 -0.8933 -0.0673
13114TIP3    H160833   4.418   0.757  10.545  0.4695 -1.8657  0.1289
13114TIP3    H260834   4.451   0.843  10.666 -0.1705 -1.0463 -0.2690
13115TIP3   OH260835   1.109   5.511  14.697 -0.3403 -0.0610  0.4554
13115TIP3    H160836   1.079   5.422  14.710 -1.5410  0.5778  2.3095
13115TIP3    H260837   1.157   5.508  14.614 -0.3160 -2.4101  0.5005
13116TIP3   OH260838   5.685   4.898  12.747  0.0268  0.7894  0.1000
13116TIP3    H160839   5.645   4.894  12.834  2.7491 -0.4656  1.4125
13116TIP3    H260840   5.645   4.825  12.699 -2.2156  2.0694 -0.1650
13117TIP3   OH260841   3.894   3.435  11.584  0.5824  0.4051 -0.1035
13117TIP3    H160842   3.884   3.440  11.679 -0.9084  0.0799 -0.2169
13117TIP3    H260843   3.829   3.497  11.550 -0.7796 -1.3982 -0.9432
13118TIP3   OH260844   2.890   6.164   4.069  0.6955  0.8705 -0.6346
13118TIP3    H160845   2.983   6.157   4.091  0.9601  0.4428 -1.8136
13118TIP3    H260846   2.852   6.083   4.103  1.3406 -0.4055 -2.8024
13119TIP3   OH260847   3.826   3.040  12.439  0.5817 -0.5805 -0.1607
13119TIP3    H160848   3.734   3.013  12.439 -0.1836  1.7696  0.9117
13119TIP3    H260849   3.832   3.107  12.371  1.3006 -0.1032  0.3530
13120TIP3   OH260850   2.099   0.673   2.000  0.3576  0.6252  0.0670
13120TIP3    H160851   2.094   0.582   2.029 -1.2643  0.8122  0.5049
13120TIP3    H260852   2.008   0.704   2.004  0.8773  2.2595 -0.0860
13121TIP3   OH260853   3.590   5.268  13.101  0.2245  0.0936  0.2920
13121TIP3    H160854   3.557   5.306  13.019 -1.6653  0.8782  1.3325
13121TIP3    H260855   3.512   5.231  13.143  1.4176 -1.6597  1.0495
13122TIP3   OH260856   4.272   0.795   2.455  0.1653 -0.3699 -0.1666
13122TIP3    H160857   4.299   0.887   2.451 -0.3581 -0.2515 -2.4653
13122TIP3    H260858   4.354   0.747   2.469  0.9012  0.2921 -1.9281
13123TIP3   OH260859   6.368   0.081  14.891 -0.1114 -0.2623  0.3381
13123TIP3    H160860   6.304   0.088  14.962  0.1460 -0.9921  0.6486
13123TIP3    H260861   6.364  -0.010  14.863  1.2677 -0.4994  0.8228
13124TIP3   OH260862   5.115   2.885   3.459  0.0396  0.0189  0.1848
13124TIP3    H160863   5.096   2.928   3.375  1.0294 -0.1835 -0.1482
13124TIP3    H260864   5.069   2.939   3.524 -1.6531 -0.4273 -0.5699
13125TIP3   OH260865   0.899   3.786   0.417  0.4769  0.2332  0.0255
13125TIP3    H160866   0.967   3.853   0.406  0.1452  0.6811  0.7061
13125TIP3    H260867   0.897   3.741   0.332  0.9669  0.8312 -0.3142
13126TIP3   OH260868   5.882   5.807   4.376 -0.5915 -0.3390  0.8427
13126TIP3    H160869   5.907   5.850   4.458  0.0342 -1.3008  1.1756
13126TIP3    H260870   5.912   5.717   4.386 -0.6581 -0.5161 -0.3846
13127TIP3   OH260871   3.344   4.715  11.571 -0.1671 -0.0053 -0.2453
13127TIP3    H160872   3.370   4.749  11.656 -1.2603  0.5317 -0.1104
13127TIP3    H260873   3.254   4.684  11.584 -0.4380  0.3106 -1.2618
13128TIP3   OH260874   0.068   6.493   3.214  0.6317 -0.2143 -0.0200
13128TIP3    H160875   0.094   6.585   3.215  0.0044 -0.0138 -0.9169
13128TIP3    H260876   0.026   6.479   3.299 -0.5126  0.7118 -0.4035
13129TIP3   OH260877   4.059   6.279   5.599 -0.0516  0.1040  0.3393
13129TIP3    H160878   4.097   6.310   5.517 -0.0447 -1.8257 -0.4434
13129TIP3    H260879   4.034   6.189   5.581 -2.0846  0.3031  1.8106
13130TIP3   OH260880   4.963   1.385  12.151  0.5565 -0.1065  0.4069
13130TIP3    H160881   5.019   1.459  12.171 -1.3391  1.0784  1.6823
13130TIP3    H260882   4.967   1.330  12.229  0.3103 -0.2570  0.3151
13131TIP3   OH260883   6.069   3.385   0.528  0.3397 -1.0335  0.5759
13131TIP3    H160884   6.089   3.408   0.619  0.1453  1.0703  0.1371
13131TIP3    H260885   6.117   3.450   0.476 -0.6465 -1.3535 -0.7723
13132TIP3   OH260886   4.813   3.109  16.497 -0.2212  0.4627  0.0649
13132TIP3    H160887   4.815   3.110  16.592 -0.4173  0.1342  0.0745
13132TIP3    H260888   4.786   3.020  16.474  0.4524  0.3489 -0.3138
13133TIP3   OH260889   4.595   2.773   0.410  0.5857  0.2154 -0.2710
13133TIP3    H160890   4.575   2.751   0.500  1.5412  0.7915  0.0975
13133TIP3    H260891   4.619   2.866   0.413  0.4424  0.2891 -1.1469
13134TIP3   OH260892   0.664   2.392   5.406 -0.2700  0.0897  0.2911
13134TIP3    H160893   0.605   2.468   5.400 -2.1796 -1.3757 -0.9236
13134TIP3    H260894   0.612   2.324   5.449  0.7771 -1.0560 -0.1763
13135TIP3   OH260895   6.807   3.619   1.438  0.0566 -0.0196  0.0692
13135TIP3    H160896   6.758   3.621   1.356 -0.0417  0.8184  0.1368
13135TIP3    H260897   6.774   3.541   1.484 -2.0764  1.1314  0.6102
13136TIP3   OH260898   0.507   1.680   5.950  0.0343 -0.0326  0.2169
13136TIP3    H160899   0.600   1.684   5.927  0.0228 -1.3309 -0.1859
13136TIP3    H260900   0.464   1.740   5.890  0.4277 -0.7241 -0.7750
13137TIP3   OH260901   1.414   2.071  15.598  0.2230 -0.4138  0.4246
13137TIP3    H160902   1.372   2.154  15.575 -0.8301 -1.0544 -0.0243
13137TIP3    H260903   1.363   2.005  15.551  0.4039 -1.4095  1.5904
13138TIP3   OH260904   5.761   2.153  11.808 -0.0193 -0.0727  0.3022
13138TIP3    H160905   5.765   2.141  11.713  1.2226 -0.0169  0.3365
13138TIP3    H260906   5.670   2.179  11.825 -0.3312 -0.3634 -0.8310
13139TIP3   OH260907   4.432   4.317   6.425 -0.4929  0.6518  0.4019
13139TIP3    H160908   4.482   4.374   6.483  0.1864  1.8582 -1.2836
13139TIP3    H260909   4.346   4.359   6.418 -0.0476  1.4399 -0.7028
13140TIP3   OH260910   1.500   0.386   3.572 -0.1946  0.4420  0.0516
13140TIP3    H160911   1.501   0.421   3.661  1.2612 -1.4967  0.8670
13140TIP3    H260912   1.412   0.350   3.561 -0.1668  0.0743  0.9727
13141TIP3   OH260913   5.076   4.308  12.512 -0.4427  0.9967 -0.2218
13141TIP3    H160914   5.037   4.223  12.493 -0.8581  1.2582 -0.5559
13141TIP3    H260915   5.152   4.288  12.567 -0.1340  0.3464 -0.8649
13142TIP3   OH260916   4.589   3.220   5.180  0.4096  0.1831  0.0151
13142TIP3    H160917   4.657   3.176   5.231  2.4061  1.8023 -1.1388
13142TIP3    H260918   4.510   3.168   5.198  1.4636 -0.6346  2.9179
13143TIP3   OH260919   5.607   3.834   3.013 -0.0924 -0.4775  0.4239
13143TIP3    H160920   5.684   3.882   3.044  0.5006 -1.5253  0.5825
13143TIP3    H260921   5.567   3.799   3.092  0.5095 -1.7781  0.1705
13144TIP3   OH260922   1.068   5.394   5.910 -0.3769 -0.3643  0.1562
13144TIP3    H160923   0.980   5.429   5.925 -0.3102  0.1107 -0.5073
13144TIP3    H260924   1.112   5.462   5.859  0.4304 -0.5290  0.6230
13145TIP3   OH260925   6.242   2.274  11.603  0.0014  0.2682 -0.2893
13145TIP3    H160926   6.193   2.205  11.558  0.0444 -0.1941  0.3598
13145TIP3    H260927   6.181   2.307  11.668  0.6552 -0.5689  0.7806
13146TIP3   OH260928   4.384   4.884  15.037 -0.9232  0.4188 -0.3005
13146TIP3    H160929   4.362   4.839  15.118  0.4268 -0.1080 -0.1981
13146TIP3    H260930   4.344   4.971  15.047  1.3296  1.3338  2.1325
13147TIP3   OH260931   6.637   5.462   1.315 -0.0396 -0.2848  0.1603
13147TIP3    H160932   6.593   5.503   1.390 -0.5684 -1.4038  0.4878
13147TIP3    H260933   6.646   5.533   1.251  0.7986  0.7848  1.4297
13148TIP3   OH260934   0.910   3.499   3.060 -0.1559 -0.2395  0.0091
13148TIP3    H160935   0.909   3.556   2.983 -0.0766 -0.7145 -0.3427
13148TIP3    H260936   0.854   3.545   3.123  0.5308  0.6232  0.0205
13149TIP3   OH260937   4.189   2.115  15.005  0.4751  0.2763 -0.0577
13149TIP3    H160938   4.142   2.047  14.956  1.2314  0.0071 -0.4303
13149TIP3    H260939   4.265   2.135  14.950  2.3150 -1.2510  1.7404
13150TIP3   OH260940   4.626   4.099  14.577 -0.0051 -0.2897  0.1028
13150TIP3    H160941   4.561   4.153  14.621 -0.4333  0.5912 -1.5622
13150TIP3    H260942   4.668   4.157  14.514 -1.6098 -2.1961 -2.9357
13151TIP3   OH260943   0.406   4.867  14.557 -0.8297  0.2834  0.3681
13151TIP3    H160944   0.453   4.814  14.493 -0.4663  0.0323  0.8415
13151TIP3    H260945   0.473   4.899  14.616 -0.5278  3.7265 -1.5524
13152TIP3   OH260946   6.386   2.344  11.079 -0.5891  0.5794  0.1348
13152TIP3    H160947   6.468   2.349  11.029 -0.7386  1.1657 -0.0580
13152TIP3    H260948   6.317   2.355  11.013 -0.8790 -1.0784  0.1144
13153TIP3   OH260949   2.964   2.405  16.773  0.4364  0.2652 -0.1557
13153TIP3    H160950   3.010   2.322  16.784 -0.1378  0.0804  1.1243
13153TIP3    H260951   2.965   2.421  16.679 -2.8857 -3.2574 -1.0530
13154TIP3   OH260952   1.561   5.436   5.668  1.4366  0.1331  0.5697
13154TIP3    H160953   1.505   5.393   5.733  2.1788 -2.6254 -0.4746
13154TIP3    H260954   1.500   5.489   5.616 -0.1814 -2.1345 -0.0266
13155TIP3   OH260955   1.620   6.538   1.187  0.2021 -0.6691 -0.3176
13155TIP3    H160956   1.685   6.604   1.160  2.7238 -2.3875  1.1092
13155TIP3    H260957   1.565   6.526   1.110  1.0146  1.5272 -1.3313
13156TIP3   OH260958   1.992   5.626  14.396  0.4234  0.1685  0.0845
13156TIP3    H160959   2.057   5.557  14.384  0.6183  0.6194 -1.7901
13156TIP3    H260960   1.995   5.676  14.314 -1.4976  0.8767  0.4066
13157TIP3   OH260961   2.907   1.328  13.668 -0.3380  0.0014  0.1815
13157TIP3    H160962   2.833   1.368  13.621  0.0011 -0.7815 -1.0705
13157TIP3    H260963   2.982   1.383  13.647 -0.0996 -0.5981 -0.5833
13158TIP3   OH260964   1.811   5.627   2.509 -0.2564 -0.0607  0.3934
13158TIP3    H160965   1.754   5.564   2.464  0.6583  0.1492 -1.0908
13158TIP3    H260966   1.800   5.708   2.461 -1.4229  0.9875  2.2954
13159TIP3   OH260967   3.983   5.088  12.276  0.2313 -0.2178  0.1327
13159TIP3    H160968   3.901   5.126  12.307  1.7130  3.8274 -0.3512
13159TIP3    H260969   3.972   5.084  12.181  1.1793  2.3290 -0.1664
13160TIP3   OH260970   1.633   3.569  11.712 -0.3627 -0.6631  0.2307
13160TIP3    H160971   1.579   3.630  11.764  1.2290 -0.4744  1.7471
13160TIP3    H260972   1.667   3.622  11.640 -0.2697 -0.1609  0.6384
13161TIP3   OH260973   1.778   6.231   3.170 -0.2431  0.1175 -0.1310
13161TIP3    H160974   1.860   6.183   3.162 -1.2212 -1.5969 -0.3876
13161TIP3    H260975   1.712   6.164   3.189 -1.7281  1.3379 -0.7074
13162TIP3   OH260976   0.003   4.046  12.129 -0.2359 -0.6161 -0.2783
13162TIP3    H160977   0.080   4.007  12.087 -0.8763 -1.1422 -0.9835
13162TIP3    H260978  -0.032   3.976  12.184 -0.6793 -0.6408 -0.5907
13163TIP3   OH260979   3.230   3.727   2.450 -0.3382 -0.0666 -0.1608
13163TIP3    H160980   3.276   3.672   2.387  0.8592 -1.1573  1.5856
13163TIP3    H260981   3.237   3.816   2.414  0.7497 -0.5820 -1.3030
13164TIP3   OH260982   5.168   0.196  13.671  0.0280 -0.4963 -0.5913
13164TIP3    H160983   5.120   0.228  13.595  0.6430  0.5528 -0.5515
13164TIP3    H260984   5.259   0.193  13.642  0.0648 -1.6621 -0.4006
13165TIP3   OH260985   6.419   3.358   1.648  0.4190  0.5547 -0.1128
13165TIP3    H160986   6.398   3.448   1.624  0.9973  0.4889 -0.8922
13165TIP3    H260987   6.338   3.309   1.634  0.5838  0.6227 -1.4307
13166TIP3   OH260988   4.852   3.793  15.620  0.4782  0.5682  0.0289
13166TIP3    H160989   4.867   3.701  15.640 -0.2982  0.3037 -0.5526
13166TIP3    H260990   4.846   3.796  15.524  0.2102  1.1808  0.0604
13167TIP3   OH260991   4.311   4.922   4.709  0.2188  0.3969 -0.1545
13167TIP3    H160992   4.318   4.828   4.722 -1.4475  0.0306 -1.6150
13167TIP3    H260993   4.402   4.953   4.710  0.9102 -1.4326 -1.0988
13168TIP3   OH260994   4.102   4.205   0.043 -0.3160 -0.1988  0.0208
13168TIP3    H160995   4.016   4.218   0.001 -0.6065 -0.3078  0.5697
13168TIP3    H260996   4.081   4.176   0.132  0.2973 -0.3956  0.1046
13169TIP3   OH260997   1.181   0.880   2.243  0.0142  0.1928 -0.0556
13169TIP3    H160998   1.215   0.961   2.205  1.9714 -1.5930 -2.4437
13169TIP3    H260999   1.090   0.877   2.216 -0.3642  2.0064  0.8934
13170TIP3   OH261000   0.642   0.259   2.488  0.5120 -0.2921  0.0234
13170TIP3    H161001   0.721   0.225   2.444  0.7762 -0.9219  0.9646
13170TIP3    H261002   0.598   0.181   2.521  0.1831  0.1637  0.6675
13171TIP3   OH261003   3.175   5.272  11.206  0.1901 -0.6714 -0.1482
13171TIP3    H161004   3.232   5.314  11.270 -0.3240  0.4996 -0.4476
13171TIP3    H261005   3.129   5.344  11.162  0.4783 -1.4386 -1.7963
13172TIP3   OH261006   4.806   3.240  14.088  0.2972 -0.0866 -0.3529
13172TIP3    H161007   4.809   3.331  14.060 -0.5625  0.4518  1.1667
13172TIP3    H261008   4.769   3.192  14.014 -2.5668  1.3667  0.0387
13173TIP3   OH261009   1.486   1.025  16.981 -0.3713  0.2739  0.2319
13173TIP3    H161010   1.429   0.960  17.020 -0.2175  0.5841  0.9964
13173TIP3    H261011   1.433   1.104  16.975 -0.5271  0.1195 -0.6004
13174TIP3   OH261012   3.875   5.111   5.265 -0.2306  0.0211 -0.1788
13174TIP3    H161013   3.919   5.097   5.348  0.2689 -0.0604 -0.4574
13174TIP3    H261014   3.874   5.206   5.253 -1.4032  0.1160  0.5076
13175TIP3   OH261015   2.792   5.637  14.059 -0.0080 -0.1032 -0.0572
13175TIP3    H161016   2.821   5.635  14.150 -1.1385 -1.5630  0.3147
13175TIP3    H261017   2.749   5.722  14.049 -2.4378 -1.0236  1.6792
13176TIP3   OH261018   6.799   0.578   2.972 -0.0904 -0.8222  0.0007
13176TIP3    H161019   6.757   0.623   3.045  2.9018  0.6274  1.0393
13176TIP3    H261020   6.810   0.488   3.002 -0.1536 -0.5856  0.7596
13177TIP3   OH261021   1.694   0.132  13.345  0.4001  0.0019 -0.0760
13177TIP3    H161022   1.776   0.085  13.359  0.2114 -0.6909 -1.0881
13177TIP3    H261023   1.711   0.221  13.375  1.8301  0.1213 -1.1238
13178TIP3   OH261024   6.623   3.434  13.940  0.1058  0.1643 -0.3635
13178TIP3    H161025   6.541   3.460  13.982 -0.5159  0.6001 -1.8171
13178TIP3    H261026   6.673   3.391  14.010 -0.2917  2.1193  1.2157
13179TIP3   OH261027   2.985   3.087   3.102 -0.7717  0.2406 -0.0809
13179TIP3    H161028   2.984   2.995   3.129  1.1877  0.2660  0.2408
13179TIP3    H261029   3.039   3.088   3.023 -2.3890  0.8700 -1.2048
13180TIP3   OH261030   6.449   5.444   2.736 -0.1626  0.0128  0.5399
13180TIP3    H161031   6.491   5.398   2.808 -1.1450  0.9008  1.7196
13180TIP3    H261032   6.468   5.536   2.751  0.0926  0.1835 -0.6715
13181TIP3   OH261033   5.279   6.591  14.528  0.1593  0.1318 -0.3190
13181TIP3    H161034   5.331   6.669  14.506 -0.7948  0.8350 -0.1147
13181TIP3    H261035   5.345   6.522  14.541  1.0108  0.8528 -0.6539
13182TIP3   OH261036   3.898   1.730   0.131 -0.3285 -0.0151  0.1045
13182TIP3    H161037   3.847   1.650   0.147 -0.7136  0.1101 -0.4819
13182TIP3    H261038   3.948   1.712   0.052  1.5428 -0.6093  1.3482
13183TIP3   OH261039   2.736   0.564  13.757  0.1420 -0.3770 -0.0216
13183TIP3    H161040   2.741   0.646  13.708 -1.1717 -0.7430 -0.8022
13183TIP3    H261041   2.728   0.592  13.848 -1.5537  0.4276 -0.3698
13184TIP3   OH261042   4.443   4.684   1.576  0.1096 -0.0076 -0.2514
13184TIP3    H161043   4.534   4.664   1.553  0.5060  1.1598  0.2210
13184TIP3    H261044   4.405   4.719   1.496  0.7066  1.4855  0.0736
13185TIP3   OH261045   1.594   4.544  14.683 -0.0853  0.5608 -0.2936
13185TIP3    H161046   1.582   4.492  14.762  0.7921  0.2816 -0.3298
13185TIP3    H261047   1.508   4.580  14.664 -1.1413 -2.2249 -1.1962
13186TIP3   OH261048   1.938   0.620   5.510  0.4195  0.6244  0.3014
13186TIP3    H161049   1.889   0.697   5.483  1.4620  1.5055  0.8479
13186TIP3    H261050   1.915   0.608   5.603 -0.3963 -0.2519  0.0042
13187TIP3   OH261051   6.605   5.092  10.900 -0.0743  0.6805  0.2067
13187TIP3    H161052   6.601   5.149  10.823  0.4759 -1.6325 -1.6424
13187TIP3    H261053   6.543   5.022  10.882  1.2730 -0.8192  1.0832
13188TIP3   OH261054   3.255   4.320   3.993  0.5777  0.8672  0.0760
13188TIP3    H161055   3.261   4.349   4.084 -1.0659  0.1135  0.4596
13188TIP3    H261056   3.197   4.385   3.951 -0.7836 -0.1890  0.2430
13189TIP3   OH261057   6.111   5.727  12.342 -0.1364 -0.4120  0.2409
13189TIP3    H161058   6.104   5.747  12.436  3.9638 -0.0599  0.6510
13189TIP3    H261059   6.164   5.648  12.339  0.3369 -0.0533 -1.8212
13190TIP3   OH261060   4.302   4.438   0.175 -0.1021 -0.4914 -0.3849
13190TIP3    H161061   4.371   4.373   0.165  0.1242 -0.1287 -1.2168
13190TIP3    H261062   4.229   4.405   0.122 -0.5253 -0.8070  0.3816
13191TIP3   OH261063   6.397   1.533  14.249  0.1664 -0.0469  0.7806
13191TIP3    H161064   6.477   1.483  14.262 -0.6907 -0.9918  2.8547
13191TIP3    H261065   6.339   1.474  14.200  0.8688  0.8412 -1.2226
13192TIP3   OH261066   1.535   1.279   5.829  1.1214 -0.0884  0.5043
13192TIP3    H161067   1.597   1.237   5.769  1.0197  1.2529 -0.5863
13192TIP3    H261068   1.478   1.208   5.858  0.8767 -0.7130 -1.3626
13193TIP3   OH261069   5.317   2.777  12.217  0.3365 -0.2842 -0.8227
13193TIP3    H161070   5.383   2.840  12.244  0.1796 -1.4223  2.7379
13193TIP3    H261071   5.234   2.818  12.241 -0.0236 -0.3892 -1.8500
13194TIP3   OH261072   2.258   4.363  12.770  0.0600 -0.1885 -0.2839
13194TIP3    H161073   2.210   4.367  12.853  1.9308 -1.4211  0.9362
13194TIP3    H261074   2.193   4.388  12.703 -0.9645  2.9538  1.6825
13195TIP3   OH261075   3.070   5.914  16.100 -0.3917  0.4739  0.8991
13195TIP3    H161076   3.059   5.989  16.042  0.5565 -1.7361 -2.4473
13195TIP3    H261077   3.155   5.927  16.141  0.5422  0.4972 -0.9486
13196TIP3   OH261078   5.017   5.143   5.929  1.2783  0.9562  0.2966
13196TIP3    H161079   4.953   5.202   5.889 -0.2913  1.4219  3.2018
13196TIP3    H261080   4.974   5.058   5.932  1.3484  0.9390  0.9969
13197TIP3   OH261081   4.096   0.960  15.198 -0.0054 -0.1372  0.0013
13197TIP3    H161082   4.039   0.949  15.122 -1.4802 -0.9301  1.1753
13197TIP3    H261083   4.130   0.872  15.215  0.6425  0.1124  0.0472
13198TIP3   OH261084   4.366   2.331   4.161  0.6261 -0.2121  0.0783
13198TIP3    H161085   4.320   2.398   4.210 -2.9575 -1.2640 -1.5093
13198TIP3    H261086   4.417   2.379   4.096  0.3198  1.0157  0.7215
13199TIP3   OH261087   0.528   3.757   3.026 -0.3264  0.3084 -0.1031
13199TIP3    H161088   0.576   3.780   2.946  0.8098  0.7613  0.6779
13199TIP3    H261089   0.450   3.712   2.995 -0.1661  0.9249 -1.4912
13200TIP3   OH261090   0.875   1.735   4.006 -0.0849  0.2940 -0.2960
13200TIP3    H161091   0.907   1.645   4.002 -1.9438 -0.5027  1.0664
13200TIP3    H261092   0.900   1.774   3.922  1.0717 -1.3621 -0.7647
13201TIP3   OH261093   2.547   6.026  13.775 -0.2464  0.8490 -0.5594
13201TIP3    H161094   2.467   6.077  13.765 -0.3974  1.1285  1.5038
13201TIP3    H261095   2.594   6.070  13.846  0.3269 -1.0090  0.2689
13202TIP3   OH261096   4.935   0.820   3.176  0.1865  0.1311 -0.7348
13202TIP3    H161097   4.902   0.738   3.212 -1.8343  0.7562 -1.0783
13202TIP3    H261098   4.940   0.805   3.082  1.9146 -0.2667 -0.6249
13203TIP3   OH261099   3.778   1.044  11.757  0.1729  0.1931 -0.1070
13203TIP3    H161100   3.765   1.138  11.759  1.4747  0.4093 -0.6799
13203TIP3    H261101   3.691   1.007  11.774 -0.7536  1.4701 -1.8054
13204TIP3   OH261102   6.483   0.485   2.365 -0.3189 -0.4332  1.1395
13204TIP3    H161103   6.539   0.507   2.291 -3.1862 -0.3194 -1.2135
13204TIP3    H261104   6.542   0.453   2.432  2.4334 -0.9612 -1.3536
13205TIP3   OH261105   1.798   0.582   2.914  0.2613 -0.5433  0.3678
13205TIP3    H161106   1.748   0.602   2.835  3.3412 -0.1075 -1.6578
13205TIP3    H261107   1.804   0.665   2.961  0.3854 -0.2312 -0.1888
13206TIP3   OH261108   5.251   4.202  16.171 -0.3780 -1.1914  0.2200
13206TIP3    H161109   5.203   4.285  16.171  0.0229 -0.9615  0.2369
13206TIP3    H261110   5.227   4.161  16.088  0.8392 -0.2376 -0.6343
13207TIP3   OH261111   3.391   6.736  13.766 -0.5356  0.0508 -0.0641
13207TIP3    H161112   3.370   6.656  13.717 -1.5952 -0.1835  0.7401
13207TIP3    H261113   3.449   6.706  13.837 -1.4296 -0.1172  0.6044
13208TIP3   OH261114   6.259   5.405   5.451  0.2694  0.0640  0.0935
13208TIP3    H161115   6.179   5.377   5.496  0.0516  1.4740  0.6181
13208TIP3    H261116   6.266   5.498   5.470  1.5364  0.1593 -0.7411
13209TIP3   OH261117   6.354   1.154   5.426  0.1998 -0.3152  0.3028
13209TIP3    H161118   6.355   1.233   5.372 -0.7664  0.1685  0.9612
13209TIP3    H261119   6.431   1.161   5.482  1.8456 -1.3417 -1.6767
13210TIP3   OH261120   1.064   5.893   1.927  0.1902  0.8791  0.0592
13210TIP3    H161121   1.039   5.971   1.977 -1.0396  1.2358 -1.0561
13210TIP3    H261122   1.150   5.914   1.892  0.4467  1.1924  0.8501
13211TIP3   OH261123   6.067   1.767   5.549  0.9094  0.1074  0.4394
13211TIP3    H161124   6.092   1.859   5.538  1.2942 -0.0962 -0.5073
13211TIP3    H261125   6.149   1.719   5.536  0.6055 -0.3992  0.3902
13212TIP3   OH261126   1.541   2.844   1.118 -0.3322  0.1028 -0.3315
13212TIP3    H161127   1.464   2.856   1.063 -0.6317  1.6819  0.3726
13212TIP3    H261128   1.611   2.820   1.057 -0.5273  2.2799 -1.5313
13213TIP3   OH261129   1.885   0.614   3.589 -0.3132 -1.0315 -0.5178
13213TIP3    H161130   1.888   0.586   3.680 -2.7121  2.0936  0.7275
13213TIP3    H261131   1.934   0.697   3.588  2.3347 -2.4620 -2.8651
13214TIP3   OH261132   5.293   6.576  15.984  0.3658  0.0594 -0.1193
13214TIP3    H161133   5.242   6.518  16.040  0.9747  0.9534  1.4220
13214TIP3    H261134   5.320   6.520  15.910  0.5890 -1.5132  1.0937
13215TIP3   OH261135   1.215   0.708   3.628 -0.2812 -0.1957 -0.2295
13215TIP3    H161136   1.253   0.690   3.714 -1.8372 -0.3202  0.4679
13215TIP3    H261137   1.290   0.724   3.571  0.8588 -1.8993  0.7289
13216TIP3   OH261138   3.482   5.040   0.474 -0.2789 -0.3464 -0.1161
13216TIP3    H161139   3.426   5.046   0.397 -0.5879  0.6576  0.1790
13216TIP3    H261140   3.430   4.990   0.537 -0.3445 -0.4678 -0.2637
13217TIP3   OH261141   4.523   4.902   3.777  0.0745 -0.1516  0.8626
13217TIP3    H161142   4.556   4.820   3.816  1.9410  0.1075 -0.0583
13217TIP3    H261143   4.484   4.949   3.851 -0.5318 -1.6061  1.5171
13218TIP3   OH261144   5.218   1.508   4.578  0.5761 -0.2927  0.5535
13218TIP3    H161145   5.269   1.514   4.659  1.3769 -1.5634  0.1713
13218TIP3    H261146   5.261   1.439   4.527 -1.4094 -1.2805  0.1150
13219TIP3   OH261147   3.793   1.636  15.335 -0.0755 -0.1756 -0.0831
13219TIP3    H161148   3.837   1.574  15.276  1.4629  1.9493 -1.2947
13219TIP3    H261149   3.725   1.676  15.281 -1.1998 -0.9079  0.7553
13220TIP3   OH261150   2.547   4.016   3.893 -0.2778 -0.0041  0.5844
13220TIP3    H161151   2.589   3.947   3.944  0.6954 -1.1759 -1.6719
13220TIP3    H261152   2.617   4.078   3.874 -0.5344  0.2314  0.3997
13221TIP3   OH261153   1.998   6.219   2.639  0.1727  0.4111  0.0823
13221TIP3    H161154   1.971   6.219   2.547  1.6330 -0.8925 -0.3740
13221TIP3    H261155   2.091   6.241   2.637 -0.3022  3.0434  1.4887
13222TIP3   OH261156   5.428   2.949   0.049 -0.4853 -0.8085  0.1245
13222TIP3    H161157   5.474   2.886   0.104 -0.0147  0.2225  0.9580
13222TIP3    H261158   5.408   3.022   0.108 -1.5952 -0.4618 -0.6567
13223TIP3   OH261159   2.782   6.086  13.670 -0.3201  0.2921  0.3873
13223TIP3    H161160   2.693   6.062  13.697  0.0239 -0.2545  1.0482
13223TIP3    H261161   2.780   6.080  13.575 -0.5474 -1.3349  0.4709
13224TIP3   OH261162   5.525   5.965  11.538 -0.5358 -0.1663  0.1550
13224TIP3    H161163   5.453   6.027  11.534 -0.2960  0.1040 -0.0471
13224TIP3    H261164   5.604   6.019  11.525 -0.0236  0.0710  3.3617
13225TIP3   OH261165   5.700   2.569  14.734 -0.5230  0.0696 -0.6704
13225TIP3    H161166   5.691   2.482  14.771 -2.3109  0.8973  0.9990
13225TIP3    H261167   5.634   2.573  14.665 -0.5811  0.1698 -0.6089
13226TIP3   OH261168   3.046   1.870   0.341  0.4629  0.4004  0.1894
13226TIP3    H161169   2.996   1.950   0.325 -2.0264 -0.7308  1.6641
13226TIP3    H261170   3.049   1.826   0.257  0.7547  1.4318 -0.3560
13227TIP3   OH261171   5.727   6.572  10.783 -0.0084 -0.2043  0.0101
13227TIP3    H161172   5.689   6.493  10.823  0.0013  0.8510  2.2623
13227TIP3    H261173   5.800   6.594  10.841 -0.1541  1.5786 -0.4541
13228TIP3   OH261174   6.168   5.629   3.361 -0.1343 -0.8771 -0.0761
13228TIP3    H161175   6.115   5.691   3.412  0.8211  0.5364 -0.7154
13228TIP3    H261176   6.243   5.610   3.418 -0.5857 -1.7170  0.2461
13229TIP3   OH261177   6.635   4.487  14.479  0.2569 -0.0998  0.3077
13229TIP3    H161178   6.675   4.418  14.532 -0.6046 -0.0580  1.0425
13229TIP3    H261179   6.583   4.440  14.414 -0.7378 -0.1696  1.1257
13230TIP3   OH261180   3.717   3.177  11.974 -0.0100  0.4667 -0.4314
13230TIP3    H161181   3.632   3.191  11.931 -0.7693 -1.5795  0.2710
13230TIP3    H261182   3.700   3.192  12.067  0.1745 -0.7024 -0.1918
13231TIP3   OH261183   0.974   4.699   0.065 -0.5801  0.2078 -1.1865
13231TIP3    H161184   1.009   4.610   0.065  1.3299  0.9217 -0.2281
13231TIP3    H261185   0.886   4.690   0.027 -0.1737 -1.9667 -1.7234
13232TIP3   OH261186   0.661   2.431   3.650  0.2676 -0.3622  0.4171
13232TIP3    H161187   0.613   2.482   3.585  0.5618  0.6602  0.9824
13232TIP3    H261188   0.701   2.360   3.600 -1.1519 -0.7732 -0.1917
13233TIP3   OH261189   1.445   4.992   2.515 -0.0217  0.3146 -0.0510
13233TIP3    H161190   1.487   5.018   2.433  0.9332  1.0212  0.6433
13233TIP3    H261191   1.452   5.069   2.571  0.0831 -0.4300  0.9758
13234TIP3   OH261192   3.334   2.715  14.293 -0.1376 -0.1122  0.5151
13234TIP3    H161193   3.331   2.666  14.376 -0.4083 -0.4932  0.2818
13234TIP3    H261194   3.264   2.677  14.241 -0.4955  0.6819  0.4143
13235TIP3   OH261195   2.450   1.063   3.695  0.0311 -0.0600 -0.3764
13235TIP3    H161196   2.478   1.090   3.782 -2.1089  1.5537 -0.0967
13235TIP3    H261197   2.528   1.074   3.640  0.7459  1.4515  0.8502
13236TIP3   OH261198   1.412   5.839  13.654 -0.3859  0.2235 -0.2478
13236TIP3    H161199   1.363   5.911  13.694  0.8416  0.4624  0.8829
13236TIP3    H261200   1.397   5.764  13.712  0.0164  0.1182 -0.2775
13237TIP3   OH261201   0.771   1.371  16.173  0.1573 -0.6047 -0.0229
13237TIP3    H161202   0.723   1.342  16.095  0.9338  0.7040 -1.0408
13237TIP3    H261203   0.855   1.325  16.167  1.0918  1.1645 -1.2246
13238TIP3   OH261204   5.719   4.372   4.210 -0.1392  0.4619 -0.3040
13238TIP3    H161205   5.640   4.425   4.217 -0.3367  0.2533 -0.8590
13238TIP3    H261206   5.687   4.283   4.195  0.0877 -0.4226  3.5267
13239TIP3   OH261207   0.939   0.603   4.761 -0.1508  0.1449 -0.0430
13239TIP3    H161208   0.916   0.535   4.825 -0.4807  1.0462  0.8292
13239TIP3    H261209   0.919   0.685   4.806 -1.0806  0.7920 -1.5764
13240TIP3   OH261210   6.006   2.681  15.326 -0.0630  0.0846  0.2559
13240TIP3    H161211   5.926   2.639  15.294 -0.1909 -0.2043  0.9321
13240TIP3    H261212   5.986   2.775  15.322  0.2833  0.1167 -1.4100
13241TIP3   OH261213   5.554   3.687   0.176  0.1753 -0.3566 -0.2855
13241TIP3    H161214   5.615   3.626   0.218  0.0904  0.0903  0.5036
13241TIP3    H261215   5.526   3.745   0.247 -0.1099  0.3030 -0.9306
13242TIP3   OH261216   0.353   0.894   3.301  0.3137 -0.1363  0.3739
13242TIP3    H161217   0.326   0.808   3.333  1.4408 -0.9246 -0.7386
13242TIP3    H261218   0.337   0.892   3.207  0.2854  0.9017  0.3399
13243TIP3   OH261219   4.293   6.676  16.980 -0.0130  0.3448  0.1662
13243TIP3    H161220   4.279   6.769  16.995  0.4187  0.1869  1.7428
13243TIP3    H261221   4.347   6.647  17.054  0.1561 -1.0830 -0.4739
13244TIP3   OH261222   5.104   4.158  10.611 -0.1935 -0.3385 -0.7005
13244TIP3    H161223   5.164   4.125  10.544  1.3117  1.6211 -0.4115
13244TIP3    H261224   5.105   4.253  10.599 -1.7953 -0.1240  0.5561
13245TIP3   OH261225   2.528   2.805   2.177 -0.1721  0.6405  0.4896
13245TIP3    H161226   2.582   2.726   2.186 -1.2298 -0.1938 -0.2606
13245TIP3    H261227   2.554   2.842   2.093 -0.7495  0.2439  0.1328
13246TIP3   OH261228   6.160   0.121  15.053  0.2243 -0.1104  0.3868
13246TIP3    H161229   6.106   0.086  14.982 -1.0608  0.1749  1.1922
13246TIP3    H261230   6.100   0.175  15.105  0.7456 -1.4695  2.5400
13247TIP3   OH261231   4.343   5.298  13.868 -0.3411 -0.2251  0.1306
13247TIP3    H161232   4.408   5.290  13.799  0.6407  0.4291  0.9344
13247TIP3    H261233   4.351   5.389  13.898 -2.8439  0.4111 -0.8901
13248TIP3   OH261234   2.131   1.952   2.255  0.2459  0.2479 -0.4553
13248TIP3    H161235   2.203   1.899   2.289  0.3995  0.1722 -0.8912
13248TIP3    H261236   2.080   1.891   2.201  0.0826  0.3991 -0.4742
13249TIP3   OH261237   4.093   6.428   3.334 -0.0111  0.4914  0.0737
13249TIP3    H161238   4.054   6.418   3.247 -0.5302 -0.5361  0.4064
13249TIP3    H261239   4.057   6.355   3.384 -0.8934  1.8945  1.5849
13250TIP3   OH261240   0.716   6.411   5.674  0.2011  0.1623 -0.0330
13250TIP3    H161241   0.778   6.462   5.726  0.2434 -0.9509  1.0740
13250TIP3    H261242   0.630   6.432   5.711  0.2652 -0.9174  0.7981
13251TIP3   OH261243   3.366   3.214   4.222 -1.1156 -0.0684 -0.4600
13251TIP3    H161244   3.286   3.161   4.215 -0.7252 -0.9273  1.0259
13251TIP3    H261245   3.342   3.299   4.188 -2.5779 -0.4260 -0.3757
13252TIP3   OH261246   4.546   0.988  15.074  0.0220 -0.2408  0.0066
13252TIP3    H161247   4.530   0.934  14.997  2.7824 -0.7837 -0.2770
13252TIP3    H261248   4.624   1.039  15.053 -0.3594  1.1513  1.6814
13253TIP3   OH261249   5.875   5.838   0.310  0.1281  0.3572 -0.3160
13253TIP3    H161250   5.959   5.868   0.345 -0.7291 -1.3676  3.8328
13253TIP3    H261251   5.898   5.782   0.236  2.5466  0.7906  0.0297
13254TIP3   OH261252   4.130   5.967   3.346 -0.4053  0.1502  0.3450
13254TIP3    H161253   4.100   6.056   3.365 -1.0398 -0.1674  0.8892
13254TIP3    H261254   4.094   5.948   3.260  0.9672  0.9468 -0.4222
13255TIP3   OH261255   1.556   4.468   1.651  0.1820  0.0601 -0.2444
13255TIP3    H161256   1.537   4.509   1.566  0.9122 -0.2264 -0.5554
13255TIP3    H261257   1.550   4.540   1.714 -1.5753  0.0511 -0.3474
13256TIP3   OH261258   6.332   6.155   0.542 -0.4317  0.5719 -0.0898
13256TIP3    H161259   6.295   6.085   0.595  0.8655 -0.3491 -0.3508
13256TIP3    H261260   6.427   6.142   0.546 -0.2030  1.7234 -0.9420
13257TIP3   OH261261   6.044   5.569   4.358 -0.1577 -0.8838 -0.1006
13257TIP3    H161262   6.087   5.522   4.286  2.1022  0.9562 -0.0951
13257TIP3    H261263   6.069   5.520   4.437 -0.2254 -1.2909 -0.3284
13258TIP3   OH261264   4.670   3.294  15.764  0.0846  0.2500 -0.0306
13258TIP3    H161265   4.641   3.383  15.786  1.3761  0.2410  1.9994
13258TIP3    H261266   4.753   3.306  15.719 -0.3282  0.0915 -0.8514
13259TIP3   OH261267   4.425   1.533  16.463  0.0271  0.6887 -0.6309
13259TIP3    H161268   4.330   1.541  16.450 -0.0600 -1.6899 -2.1261
13259TIP3    H261269   4.442   1.581  16.543 -2.9219 -0.9800  1.1995
13260TIP3   OH261270   6.141   5.888  13.749 -0.3702  0.0176  0.3409
13260TIP3    H161271   6.217   5.925  13.795 -0.5791 -1.0227  1.6011
13260TIP3    H261272   6.069   5.899  13.811 -0.8592 -0.6212 -0.1116
13261TIP3   OH261273   2.939   1.585  12.530  0.4947 -0.6847 -0.3335
13261TIP3    H161274   2.941   1.591  12.434  0.4212 -2.3698 -0.4675
13261TIP3    H261275   2.888   1.661  12.557 -0.2532 -0.6660 -1.6911
13262TIP3   OH261276   3.594   2.562  16.724  0.5720 -0.9247  0.6264
13262TIP3    H161277   3.555   2.570  16.637  2.5951 -0.1155 -0.2657
13262TIP3    H261278   3.546   2.624  16.778 -0.5102 -1.2184  0.0322
13263TIP3   OH261279   3.259   5.441  16.233 -0.0290 -0.2761  0.0996
13263TIP3    H161280   3.298   5.507  16.290 -0.3253 -0.7176  0.8228
13263TIP3    H261281   3.315   5.441  16.155 -0.5066  1.4184 -0.2944
13264TIP3   OH261282   0.289   3.393  10.246 -0.4207 -0.2424  0.2937
13264TIP3    H161283   0.310   3.479  10.283 -0.3377  0.9748 -2.3032
13264TIP3    H261284   0.374   3.350  10.236 -0.3880 -0.3253  0.8872
13265TIP3   OH261285   0.119   0.747  15.750 -0.2859  0.2240  0.5208
13265TIP3    H161286   0.151   0.714  15.834 -1.4634  0.5082  1.0970
13265TIP3    H261287   0.148   0.839  15.749  1.4357 -0.2804 -0.2913
13266TIP3   OH261288   4.741   3.188   1.733 -0.3517  0.0067 -0.4221
13266TIP3    H161289   4.723   3.099   1.763 -0.1153 -0.0451 -0.4308
13266TIP3    H261290   4.775   3.233   1.810  0.7065 -0.2581 -0.7169
13267TIP3   OH261291   4.086   6.376  13.485  0.3943  0.2964  0.4530
13267TIP3    H161292   4.127   6.322  13.553  0.1603  0.8128  1.0073
13267TIP3    H261293   4.160   6.406  13.431  0.4867 -0.9833 -0.1831
13268TIP3   OH261294   0.298   5.048  17.119  0.3881 -0.2142  0.3477
13268TIP3    H161295   0.355   4.980  17.082  2.0976  2.0141 -1.3579
13268TIP3    H261296   0.276   5.015  17.207  0.7442 -3.1370 -0.5357
13269TIP3   OH261297   2.143   4.463  12.338 -0.5578 -0.4008  0.5305
13269TIP3    H161298   2.073   4.438  12.277  0.1285 -0.7221 -0.1420
13269TIP3    H261299   2.099   4.467  12.423 -0.7810 -4.1478  0.7839
13270TIP3   OH261300   1.690   1.723   3.659  0.5384 -0.0940  0.3899
13270TIP3    H161301   1.609   1.761   3.695 -0.5778 -2.1495  0.1759
13270TIP3    H261302   1.747   1.714   3.735 -0.1736 -0.4207  0.8973
13271TIP3   OH261303   4.201   1.673   4.986  0.0813 -0.2402  0.2273
13271TIP3    H161304   4.207   1.603   5.051  0.1657 -0.9096 -0.4879
13271TIP3    H261305   4.279   1.663   4.932 -0.9472 -0.9288 -1.1831
13272TIP3   OH261306   3.191   0.063   1.429 -0.1413 -0.5684  0.2739
13272TIP3    H161307   3.285   0.048   1.422  0.0418  0.5426  0.1049
13272TIP3    H261308   3.182   0.159   1.427 -1.1278 -0.5777  2.1465
13273TIP3   OH261309   3.150   2.360  16.127  0.1082  0.5044 -0.1278
13273TIP3    H161310   3.128   2.422  16.196 -1.1868  0.1995 -0.2397
13273TIP3    H261311   3.073   2.302  16.121  1.4954 -1.5227  0.4163
13274TIP3   OH261312   2.147   2.595  15.425 -0.0697  0.2532  0.2891
13274TIP3    H161313   2.070   2.623  15.476  0.1931  0.2084  0.7169
13274TIP3    H261314   2.115   2.589  15.335  0.1566  3.1082 -0.0630
13275TIP3   OH261315   4.247   0.590  16.031  0.0856 -0.2294  0.0072
13275TIP3    H161316   4.308   0.532  15.986  0.6050 -0.1942  0.6632
13275TIP3    H261317   4.239   0.666  15.973 -0.3059 -0.7743 -0.6729
13276TIP3   OH261318   5.804   2.889  12.800  0.0036  0.4093 -0.2037
13276TIP3    H161319   5.736   2.897  12.867 -0.1775  1.9732 -0.5307
13276TIP3    H261320   5.877   2.942  12.833  1.6064 -2.2002  0.7165
13277TIP3   OH261321   3.588   3.793  13.883 -0.4757 -0.4293  0.3397
13277TIP3    H161322   3.544   3.708  13.880  0.1818 -0.7576 -0.2546
13277TIP3    H261323   3.518   3.856  13.901 -0.7418 -1.2681  2.6371
13278TIP3   OH261324   5.749   3.741  16.266 -0.1370  0.0189  1.1266
13278TIP3    H161325   5.692   3.664  16.279 -0.0771  0.0826  1.7862
13278TIP3    H261326   5.688   3.814  16.255 -0.2126  0.3746  3.5481
13279TIP3   OH261327   6.649   6.199   4.245  0.7979  0.0888 -0.1186
13279TIP3    H161328   6.721   6.252   4.280  0.9967 -0.7588  0.8200
13279TIP3    H261329   6.657   6.115   4.291 -0.0400 -0.4500 -0.9237
13280TIP3   OH261330   6.323   3.586   1.547  0.4109  0.3918  0.0418
13280TIP3    H161331   6.329   3.579   1.452 -1.2456  2.1151 -0.2358
13280TIP3    H261332   6.346   3.677   1.567 -0.6600  0.4592  1.1308
13281TIP3   OH261333   6.625   5.957   5.093 -0.2834 -0.3053 -0.0959
13281TIP3    H161334   6.637   5.916   5.179  2.0230  0.8072  0.1774
13281TIP3    H261335   6.682   6.034   5.095 -0.2561 -0.1973 -2.5970
13282TIP3   OH261336   6.000   4.227   3.393  0.5020  0.2727 -0.0803
13282TIP3    H161337   6.013   4.272   3.477 -1.7996  0.4692  0.2434
13282TIP3    H261338   6.037   4.140   3.407  0.3396  0.3702  1.0953
13283TIP3   OH261339   4.103   0.973  14.328 -0.4701  0.1262  0.3589
13283TIP3    H161340   4.026   1.025  14.305 -1.4732 -0.6531  1.7998
13283TIP3    H261341   4.077   0.883  14.310  0.0534 -0.1559  0.9924
13284TIP3   OH261342   5.544   4.300  16.981 -0.1752  0.0874 -0.1870
13284TIP3    H161343   5.571   4.379  16.933 -0.6853  0.7350  0.5836
13284TIP3    H261344   5.492   4.251  16.917 -0.0785  0.4956 -0.5903
13285TIP3   OH261345   5.270   4.520   1.968  0.1854  0.2896 -0.1017
13285TIP3    H161346   5.183   4.532   2.005 -0.7265 -1.1352 -1.6236
13285TIP3    H261347   5.319   4.471   2.035 -0.3140  0.7309  0.5877
13286TIP3   OH261348   3.256   4.016  13.655 -0.2287 -0.2596  0.1550
13286TIP3    H161349   3.184   4.077  13.668 -1.3894 -1.6248  0.4185
13286TIP3    H261350   3.324   4.045  13.715  0.0126  1.8502 -1.0440
13287TIP3   OH261351   3.052   3.627  13.694  0.2228  0.7511 -0.1613
13287TIP3    H161352   3.134   3.647  13.649  0.0359  1.5380 -0.1689
13287TIP3    H261353   3.063   3.663  13.782 -0.5514  1.9463 -0.5259
13288TIP3   OH261354   6.344   6.313  17.049 -0.0352 -0.3518  0.8200
13288TIP3    H161355   6.430   6.280  17.071 -0.8184 -2.8193  0.4644
13288TIP3    H261356   6.360   6.399  17.010  2.2843 -0.9194  0.4179
13289TIP3   OH261357   5.256   1.832   5.834 -0.9217 -0.1815 -0.4556
13289TIP3    H161358   5.299   1.749   5.852 -1.1127 -0.2483 -0.2892
13289TIP3    H261359   5.276   1.851   5.742 -0.1232  0.0428 -0.2415
13290TIP3   OH261360   3.370   1.749   3.228 -0.1904  0.3368  0.1428
13290TIP3    H161361   3.348   1.813   3.160 -1.0142  0.6610  0.7079
13290TIP3    H261362   3.419   1.799   3.293  1.8684 -0.2658 -0.8499
13291TIP3   OH261363   5.367   1.347  14.933  0.1211  0.9479  0.5413
13291TIP3    H161364   5.307   1.313  14.867 -1.0712  1.6720  1.2304
13291TIP3    H261365   5.427   1.404  14.884  0.8061 -0.4174 -0.2776
13292TIP3   OH261366   0.793   3.714   0.858  0.0711  0.2952  0.2396
13292TIP3    H161367   0.788   3.619   0.869  1.2401  0.2899  0.8645
13292TIP3    H261368   0.839   3.745   0.936 -0.6587  1.4311  0.2440
13293TIP3   OH261369   2.928   4.640   3.338  0.3716  0.5711 -0.6518
13293TIP3    H161370   2.931   4.692   3.258 -1.0316 -1.3582 -2.0562
13293TIP3    H261371   2.865   4.570   3.319 -0.3937  0.3175  2.3388
13294TIP3   OH261372   0.313   6.369  14.054  0.0545 -0.1790 -0.5531
13294TIP3    H161373   0.402   6.340  14.033 -0.2607 -0.8725 -0.9628
13294TIP3    H261374   0.279   6.404  13.972  0.3858  1.2757 -0.0931
13295TIP3   OH261375   0.917   0.115  14.729 -0.1157 -0.1141  0.2321
13295TIP3    H161376   0.918   0.181  14.799  2.5285  2.1548 -1.7018
13295TIP3    H261377   0.943   0.034  14.772 -1.3658  0.5152  2.3340
13296TIP3   OH261378   4.829   0.924  14.606  0.1353  0.5443  0.5425
13296TIP3    H161379   4.743   0.891  14.577  0.0346  1.1634  0.1162
13296TIP3    H261380   4.873   0.847  14.642 -0.3795  0.0992  0.2421
13297TIP3   OH261381   0.179   2.076   4.531  0.3093  0.1825  0.0353
13297TIP3    H161382   0.271   2.059   4.512  0.7011  1.0580  1.0703
13297TIP3    H261383   0.151   2.001   4.584 -0.0093 -0.8388 -1.5265
13298TIP3   OH261384   4.481   0.270   0.627  0.1078 -0.5238  0.2188
13298TIP3    H161385   4.471   0.339   0.561  0.7287  0.1407  0.7935
13298TIP3    H261386   4.403   0.216   0.617 -0.6129  0.5044  0.0298
13299TIP3   OH261387   1.559   6.353   4.050  0.4259  0.4575  0.2592
13299TIP3    H161388   1.599   6.311   3.973  1.3134  0.6837  0.5799
13299TIP3    H261389   1.567   6.447   4.033 -1.2692  0.5214 -0.3125
13300TIP3   OH261390   1.001   3.691  11.623 -0.1456 -0.5896  0.0760
13300TIP3    H161391   0.949   3.695  11.703  1.1577  0.3142  0.9132
13300TIP3    H261392   1.086   3.655  11.651  0.1900 -0.6560 -0.9706
13301TIP3   OH261393   6.783   2.979   2.466  0.1246  0.1645  0.1447
13301TIP3    H161394   6.700   2.932   2.465 -0.7091  1.5472 -1.7634
13301TIP3    H261395   6.791   3.017   2.379  3.0386 -0.3341  0.0719
13302TIP3   OH261396   6.480   0.894  16.101  0.1048 -0.4661  0.4380
13302TIP3    H161397   6.533   0.939  16.035  2.5841 -0.3119  2.3592
13302TIP3    H261398   6.483   0.802  16.076  1.4940 -0.4842  0.5722
13303TIP3   OH261399   5.248   4.182   3.340 -0.2728 -0.1362 -0.1954
13303TIP3    H161400   5.341   4.181   3.317 -0.1413  1.5231  0.1279
13303TIP3    H261401   5.206   4.226   3.266 -0.8240 -0.8822 -0.3425
13304TIP3   OH261402   2.264   1.364  14.675  0.1494  0.7002  0.4260
13304TIP3    H161403   2.260   1.441  14.732  0.9435 -0.0397  1.4990
13304TIP3    H261404   2.291   1.292  14.732 -1.5245 -0.6062 -0.3556
13305TIP3   OH261405   3.577   1.432  12.161 -0.2843 -0.2471  0.3885
13305TIP3    H161406   3.562   1.348  12.205 -0.7990 -1.1132 -1.3373
13305TIP3    H261407   3.620   1.409  12.079 -2.4444  0.8979 -1.1812
13306TIP3   OH261408   3.336   5.580   1.132  0.2059 -0.1470  0.8614
13306TIP3    H161409   3.373   5.538   1.055 -0.5048 -2.0038  1.4688
13306TIP3    H261410   3.250   5.611   1.105  1.4960  2.9471 -0.1674
13307TIP3   OH261411   4.444   2.229  16.525  0.0479 -0.0801 -0.1045
13307TIP3    H161412   4.350   2.245  16.530  0.3424  1.7325  0.3536
13307TIP3    H261413   4.456   2.144  16.569 -1.4453 -0.8179 -1.0204
13308TIP3   OH261414   2.677   2.513  15.980  0.2831  0.7738 -0.3015
13308TIP3    H161415   2.658   2.466  16.062 -1.5999  2.0797  0.0724
13308TIP3    H261416   2.753   2.567  16.001  1.0532 -0.3792 -0.0429
13309TIP3   OH261417   0.475   5.355  12.504  0.0898 -0.1366 -0.3272
13309TIP3    H161418   0.449   5.398  12.585  0.5503 -2.0167  0.8751
13309TIP3    H261419   0.469   5.261  12.523  0.5960 -0.6361 -2.3481
13310TIP3   OH261420   6.295   2.527   3.086  0.0862 -0.5044  0.3339
13310TIP3    H161421   6.314   2.436   3.062  0.5349 -0.7656  1.6288
13310TIP3    H261422   6.320   2.534   3.178  1.5047  1.3470 -0.1311
13311TIP3   OH261423   5.981   1.892  14.292  0.6768  0.3331 -0.2015
13311TIP3    H161424   5.916   1.874  14.224  0.2975  3.2394 -0.7403
13311TIP3    H261425   6.063   1.857  14.257  0.4926  1.7587 -2.2400
13312TIP3   OH261426   0.070   3.158   4.342 -0.2917  0.1484  0.0823
13312TIP3    H161427   0.136   3.089   4.350 -0.0377  0.4018  0.1899
13312TIP3    H261428   0.064   3.175   4.247 -0.0720  0.2496  0.0862
13313TIP3   OH261429   0.812   3.365   2.548  0.0453  0.2304  0.4678
13313TIP3    H161430   0.905   3.371   2.570  0.0409 -0.2457  0.6216
13313TIP3    H261431   0.767   3.408   2.621  0.2586  3.0287 -0.8954
13314TIP3   OH261432   1.449   3.184   1.518 -0.2944  0.0052  0.2709
13314TIP3    H161433   1.505   3.128   1.464 -0.8823 -0.5994  0.2665
13314TIP3    H261434   1.392   3.229   1.455 -2.0969 -1.9141  0.3939
13315TIP3   OH261435   5.453   0.820  13.223 -0.2742  0.6403 -0.4585
13315TIP3    H161436   5.430   0.727  13.230 -1.8931  0.9275 -1.2862
13315TIP3    H261437   5.458   0.851  13.313  0.9822 -0.3790 -0.1455
13316TIP3   OH261438   0.080   1.191   5.035 -0.1228  0.0102 -0.1893
13316TIP3    H161439   0.174   1.192   5.018 -0.3631  1.6300 -1.6440
13316TIP3    H261440   0.070   1.248   5.112  0.0333  0.3837 -0.4396
13317TIP3   OH261441   0.030   2.436  11.468  0.4911  0.0826 -0.5979
13317TIP3    H161442   0.024   2.514  11.413 -0.3653  0.2373 -0.2900
13317TIP3    H261443  -0.059   2.403  11.473  0.1933  1.0284  2.0884
13318TIP3   OH261444   6.556   6.794  16.874 -0.2572  0.2229 -0.0114
13318TIP3    H161445   6.502   6.718  16.893 -0.4028 -0.0036 -1.2956
13318TIP3    H261446   6.591   6.819  16.959 -2.9331  0.8158  1.0454
13319TIP3   OH261447   3.947   0.438  11.725  0.2255 -0.2236  0.3641
13319TIP3    H161448   3.880   0.432  11.657 -0.3202 -0.1467  0.8937
13319TIP3    H261449   3.985   0.351  11.729  1.3378  0.1324 -1.1093
13320TIP3   OH261450   4.508   6.472   3.037  0.1541 -0.4125  0.7472
13320TIP3    H161451   4.575   6.473   3.106  0.8415  0.5879  0.1019
13320TIP3    H261452   4.547   6.524   2.966 -0.5997 -1.2819 -0.3306
13321TIP3   OH261453   2.877   1.731  12.007 -0.2729  0.5626 -0.3255
13321TIP3    H161454   2.918   1.656  11.965  0.7429  1.8490 -1.7510
13321TIP3    H261455   2.787   1.730  11.974 -0.3225 -0.1310 -0.1803
13322TIP3   OH261456   2.147   4.955   5.477 -0.5748  0.1838 -0.5501
13322TIP3    H161457   2.146   4.897   5.552 -1.6473 -0.5454 -1.0935
13322TIP3    H261458   2.174   4.900   5.404  3.4905  1.5324 -0.3054
13323TIP3   OH261459   1.003   6.562   0.277 -0.4496  0.3083  0.3491
13323TIP3    H161460   0.996   6.485   0.333  1.6913 -0.8613 -0.9128
13323TIP3    H261461   0.924   6.559   0.222 -0.4484 -0.8818  0.4028
13324TIP3   OH261462   6.300   6.709  12.709  0.4736  0.1876 -0.4599
13324TIP3    H161463   6.323   6.641  12.772  0.5441  1.7204  1.2575
13324TIP3    H261464   6.382   6.727  12.662  1.4034  1.5321  1.5632
13325TIP3   OH261465   6.339   5.451  16.219  0.0206  0.1582  0.2326
13325TIP3    H161466   6.431   5.455  16.192 -0.0103 -1.5635 -0.2831
13325TIP3    H261467   6.294   5.411  16.144 -0.6278 -1.7329  1.5444
13326TIP3   OH261468   4.737   4.672   3.809  0.3040 -0.0422  0.3738
13326TIP3    H161469   4.670   4.648   3.873 -0.9376 -0.1945 -0.9353
13326TIP3    H261470   4.803   4.719   3.860 -0.6950 -0.0585  1.7379
13327TIP3   OH261471   3.748   3.387  15.432 -0.1477  0.1976  0.0292
13327TIP3    H161472   3.725   3.467  15.385  2.1406  0.3882 -0.9270
13327TIP3    H261473   3.843   3.393  15.445  0.1744 -2.4817 -0.3808
13328TIP3   OH261474   6.186   4.569  11.280 -0.9426  0.1483 -0.7064
13328TIP3    H161475   6.229   4.635  11.225 -2.4329  0.5287 -1.4823
13328TIP3    H261476   6.126   4.620  11.335  1.2675 -0.0907  2.1671
13329TIP3   OH261477   5.177   2.674  16.870  0.0216 -0.3521 -0.2153
13329TIP3    H161478   5.182   2.718  16.955  3.7280  1.7745 -1.2856
13329TIP3    H261479   5.218   2.736  16.809 -1.2399 -2.3553 -3.3367
13330TIP3   OH261480   3.712   2.466   2.659 -0.0788 -0.1510 -0.2687
13330TIP3    H161481   3.619   2.456   2.640 -0.6205  3.5643 -0.2805
13330TIP3    H261482   3.719   2.447   2.753 -1.7600  3.3693  0.7349
13331TIP3   OH261483   4.895   0.075  13.754 -0.1374  0.7657  0.0564
13331TIP3    H161484   4.863   0.015  13.822  0.4175 -0.6359 -0.8717
13331TIP3    H261485   4.945   0.141  13.802 -1.3224  0.8970  1.1791
13332TIP3   OH261486   3.382   4.406  14.211 -1.0865 -0.0208 -0.0324
13332TIP3    H161487   3.344   4.494  14.206  1.2081  1.0461 -0.0130
13332TIP3    H261488   3.458   4.410  14.152 -0.6166 -1.8185  0.4109
13333TIP3   OH261489   3.425   3.352  14.475 -0.1039 -0.3122 -0.2403
13333TIP3    H161490   3.363   3.281  14.459 -0.9212 -0.0770  1.5994
13333TIP3    H261491   3.507   3.309  14.500  0.3532 -0.6174 -2.1642
13334TIP3   OH261492   2.429   4.386  11.753 -0.6377  0.1953  0.6530
13334TIP3    H161493   2.462   4.317  11.810 -0.8384 -0.2278  0.2591
13334TIP3    H261494   2.394   4.340  11.677  1.0107  0.8250 -0.5295
13335TIP3   OH261495   5.683   5.599  13.410  0.3445 -0.1578 -0.1005
13335TIP3    H161496   5.762   5.640  13.446  0.0426  1.9676 -1.6649
13335TIP3    H261497   5.714   5.515  13.376  2.2167  1.0591 -1.6226
13336TIP3   OH261498   3.693   3.957   6.431  0.1947  0.0692  0.1202
13336TIP3    H161499   3.734   3.968   6.346 -1.5975 -0.6873 -0.9074
13336TIP3    H261500   3.601   3.981   6.417  0.0637  0.9162  2.1004
13337TIP3   OH261501   4.082   2.408   2.908  0.1172 -0.2016 -0.1739
13337TIP3    H161502   4.089   2.352   2.831 -1.8112 -0.3686 -0.2883
13337TIP3    H261503   4.078   2.348   2.982  0.8235 -0.0866 -0.0360
13338TIP3   OH261504   4.359   5.787   3.827  0.2402 -0.7130 -0.1533
13338TIP3    H161505   4.270   5.769   3.857  0.3801 -1.7147 -0.3266
13338TIP3    H261506   4.414   5.724   3.873  0.6541 -1.2294 -1.3141
13339TIP3   OH261507   1.257   6.028   4.338 -0.1597  0.4517  0.1358
13339TIP3    H161508   1.339   6.066   4.307  0.5819  0.6912  2.2037
13339TIP3    H261509   1.194   6.047   4.269  1.0482  2.0833 -0.5966
13340TIP3   OH261510   5.334   1.610   3.917  0.2447 -0.6115 -0.2622
13340TIP3    H161511   5.300   1.665   3.988  0.0774  1.2100 -1.6585
13340TIP3    H261512   5.428   1.605   3.933  0.1995 -0.2594  0.1235
13341TIP3   OH261513   2.664   0.113   5.793 -0.0624  0.2079  0.3732
13341TIP3    H161514   2.600   0.155   5.849 -0.9348  1.2373 -1.3294
13341TIP3    H261515   2.697   0.183   5.737 -0.2553 -1.0154 -1.3371
13342TIP3   OH261516   4.242   5.750  12.966  0.2636 -0.1480  0.0792
13342TIP3    H161517   4.197   5.668  12.950  0.8262 -0.7079  1.2000
13342TIP3    H261518   4.271   5.780  12.880  0.2423 -1.2344 -0.3160
13343TIP3   OH261519   5.782   4.392   2.469  0.0910 -0.2963  0.2942
13343TIP3    H161520   5.730   4.315   2.446  0.7342 -1.2900  2.0459
13343TIP3    H261521   5.717   4.457   2.498 -0.3967 -0.4085 -0.5152
13344TIP3   OH261522   5.373   0.032  14.196  0.0415  0.5475 -0.4956
13344TIP3    H161523   5.459   0.028  14.154  0.4984  2.0763  0.2215
13344TIP3    H261524   5.311   0.042  14.124  0.3842 -1.0876 -1.0578
13345TIP3   OH261525   1.872   3.894   1.453  0.1775 -0.2592  0.1747
13345TIP3    H161526   1.943   3.833   1.433 -0.7808 -0.8016 -1.9846
13345TIP3    H261527   1.797   3.859   1.404 -0.8550  1.7416  0.2238
13346TIP3   OH261528   3.243   2.536   6.390  0.0194  0.0764  0.1129
13346TIP3    H161529   3.163   2.485   6.382 -0.2704  0.3707  1.0831
13346TIP3    H261530   3.213   2.624   6.412  0.5785  0.3539 -0.2233
13347TIP3   OH261531   5.097   0.189   1.795 -0.1176 -0.4162  0.6050
13347TIP3    H161532   5.170   0.167   1.853  0.9785  1.3795  0.0088
13347TIP3    H261533   5.019   0.164   1.844  0.6165  2.5887  3.7247
13348TIP3   OH261534   1.998   5.314  11.262 -0.4719 -0.1963  0.3711
13348TIP3    H161535   2.075   5.259  11.249 -0.0279  0.5537 -0.2697
13348TIP3    H261536   2.023   5.399  11.226 -1.6136  0.0440  0.0977
13349TIP3   OH261537   3.838   3.423  11.848  0.0373  0.2945  0.6190
13349TIP3    H161538   3.802   3.476  11.919 -1.0186 -0.1638  0.4441
13349TIP3    H261539   3.778   3.349  11.840  1.7457 -1.2412  1.1923
13350TIP3   OH261540   5.943   5.489  16.826 -0.0482  0.2761 -0.0268
13350TIP3    H161541   5.954   5.406  16.780 -1.3351 -0.1776  0.4403
13350TIP3    H261542   6.006   5.547  16.785 -0.1818 -0.5049 -1.4150
13351TIP3   OH261543   0.516   5.385   0.613 -0.1837  0.0659  0.1711
13351TIP3    H161544   0.602   5.346   0.594 -0.2653  0.2893 -0.6740
13351TIP3    H261545   0.531   5.479   0.610 -0.5174  0.1076 -0.2661
13352TIP3   OH261546   1.003   4.574   4.844 -0.7792  0.1851  0.0664
13352TIP3    H161547   0.913   4.544   4.835 -0.4023 -0.8160 -0.6525
13352TIP3    H261548   1.010   4.647   4.783 -0.9219 -0.2091 -0.4362
13353TIP3   OH261549   6.255   2.050   2.692 -0.0984  0.4423 -0.4204
13353TIP3    H161550   6.318   2.004   2.749  0.0033  2.3552  1.1236
13353TIP3    H261551   6.191   2.087   2.753 -0.7379  1.4872 -1.6838
13354TIP3   OH261552   3.116   3.875  12.869 -0.1053  0.4521  0.1481
13354TIP3    H161553   3.122   3.782  12.847 -1.8576  0.5668 -0.9699
13354TIP3    H261554   3.200   3.912  12.841  0.1732 -0.5868 -0.4315
13355TIP3   OH261555   0.345   5.187  11.281  0.1355  0.0941  0.2143
13355TIP3    H161556   0.382   5.261  11.233 -0.2801 -0.0744 -0.3844
13355TIP3    H261557   0.251   5.202  11.280  0.1043 -0.0501  0.7604
13356TIP3   OH261558   0.152   4.828  16.434 -0.1833 -0.1737 -0.2656
13356TIP3    H161559   0.062   4.797  16.444 -1.3390  2.6396 -1.0641
13356TIP3    H261560   0.157   4.861  16.344  1.7865 -0.6237 -0.3677
13357TIP3   OH261561   3.950   5.768   0.228  0.2110 -0.5319 -0.0570
13357TIP3    H161562   3.929   5.725   0.311  0.0677  0.0937  0.2363
13357TIP3    H261563   3.967   5.696   0.167 -1.7469 -1.0778 -0.0389
13358TIP3   OH261564   6.014   0.314  14.374 -0.3661  0.1666 -0.8180
13358TIP3    H161565   5.983   0.296  14.286 -0.0273  1.5482 -1.2468
13358TIP3    H261566   6.083   0.379  14.362  0.1573 -0.1255  0.4174
13359TIP3   OH261567   0.424   3.466   2.195  0.0882  0.9003  0.2371
13359TIP3    H161568   0.365   3.494   2.126  0.1069 -0.0724 -0.1738
13359TIP3    H261569   0.509   3.454   2.152 -0.1569 -0.8329  0.1649
13360TIP3   OH261570   1.617   1.584  11.610 -1.1571  0.3203  0.3103
13360TIP3    H161571   1.537   1.533  11.602 -0.8506 -0.0758 -0.2858
13360TIP3    H261572   1.595   1.670  11.574 -1.4599  0.3729  0.6231
13361TIP3   OH261573   2.700   3.778  12.268 -0.0569 -0.1552 -0.1704
13361TIP3    H161574   2.608   3.802  12.263 -0.2138 -0.7334 -0.1516
13361TIP3    H261575   2.713   3.716  12.196 -0.3910 -2.2858  1.4806
13362TIP3   OH261576   6.146   3.168  14.844 -0.9741 -0.1309  0.0266
13362TIP3    H161577   6.097   3.123  14.914 -0.4703 -1.6261 -0.5365
13362TIP3    H261578   6.127   3.117  14.765  1.1220 -0.5312 -0.2893
13363TIP3   OH261579   2.228   3.028   0.714 -0.2524  0.7283 -0.0737
13363TIP3    H161580   2.184   3.015   0.630  0.8198  0.7195 -0.6546
13363TIP3    H261581   2.163   3.071   0.769 -1.4056 -0.4447 -0.4787
13364TIP3   OH261582   3.527   2.308  16.782 -0.4689  0.4870 -0.6777
13364TIP3    H161583   3.435   2.331  16.790 -0.4839  0.5540 -1.0249
13364TIP3    H261584   3.571   2.391  16.759 -0.5665  0.1302 -2.2324
13365TIP3   OH261585   0.991   5.865   3.171  0.2497 -0.2729 -0.1485
13365TIP3    H161586   0.912   5.815   3.190  0.2573 -0.0117  0.5688
13365TIP3    H261587   1.011   5.912   3.252  2.7686 -2.5374  0.6835
13366TIP3   OH261588   1.360   5.263  15.055  0.3927 -0.5050 -0.7344
13366TIP3    H161589   1.410   5.227  15.128  0.2823 -2.6239 -1.6465
13366TIP3    H261590   1.424   5.318  15.008  0.3514  1.2329  1.1101
13367TIP3   OH261591   4.200   3.559   3.273 -0.3158  0.2998  0.1485
13367TIP3    H161592   4.252   3.512   3.207  0.9125 -0.3353  1.4946
13367TIP3    H261593   4.181   3.643   3.233  0.4778 -0.0240 -0.9799
13368TIP3   OH261594   5.608   0.850   6.319  0.1235 -0.7461  0.0989
13368TIP3    H161595   5.637   0.921   6.262  0.5550  1.1776  2.5707
13368TIP3    H261596   5.549   0.798   6.264  0.7064  0.8249 -2.1406
13369TIP3   OH261597   0.990   3.399   4.566  0.1938  0.0232  0.3199
13369TIP3    H161598   1.049   3.468   4.536  1.6918 -0.9344  0.9917
13369TIP3    H261599   0.913   3.407   4.509  0.7136  1.6511 -0.2001
13370TIP3   OH261600   2.093   4.303   2.055  0.7915  0.0019 -0.3086
13370TIP3    H161601   2.022   4.250   2.020 -0.3533  1.6045 -0.5183
13370TIP3    H261602   2.074   4.392   2.024  2.6722  0.5340 -0.0248
13371TIP3   OH261603   0.253   6.789  13.941  0.3510  0.7500 -0.3433
13371TIP3    H161604   0.199   6.724  13.898  2.7038 -1.2484 -0.5055
13371TIP3    H261605   0.192   6.842  13.992 -1.7487 -1.1122 -0.8017
13372TIP3   OH261606   1.819   2.430   4.620  0.2791 -0.2756 -0.2953
13372TIP3    H161607   1.803   2.430   4.714  0.0314 -0.2880 -0.3366
13372TIP3    H261608   1.745   2.480   4.583  0.5518  0.0148 -0.4514
13373TIP3   OH261609   3.066   5.847   5.721  0.1198  0.0005 -0.3058
13373TIP3    H161610   3.011   5.799   5.659 -1.3212 -0.0038  0.9043
13373TIP3    H261611   3.051   5.939   5.700  2.0646  0.0060 -1.9397
13374TIP3   OH261612   3.315   6.134  14.665 -0.6713 -0.1680 -0.1440
13374TIP3    H161613   3.275   6.059  14.708 -0.6176 -2.4849 -3.6565
13374TIP3    H261614   3.248   6.166  14.605 -0.7449  2.8315  1.3545
13375TIP3   OH261615   3.665   3.824  13.324 -0.4988  0.2809  0.1175
13375TIP3    H161616   3.713   3.903  13.349  0.1236 -0.6402  2.0342
13375TIP3    H261617   3.578   3.836  13.364 -1.1321  0.9143 -1.3930
13376TIP3   OH261618   5.297   5.790  15.313  0.1393  0.7285  0.1111
13376TIP3    H161619   5.355   5.804  15.388 -0.5654 -1.4947  1.1573
13376TIP3    H261620   5.327   5.854  15.248  1.6183  1.8528  1.7867
13377TIP3   OH261621   1.782   6.101  16.280 -0.5553 -0.4478  0.0431
13377TIP3    H161622   1.717   6.171  16.273  0.3378  0.2584 -3.0812
13377TIP3    H261623   1.840   6.129  16.351 -0.9971  1.3221 -0.2400
13378TIP3   OH261624   1.069   1.150  11.096  0.1088  0.7734 -0.3267
13378TIP3    H161625   1.105   1.077  11.146 -0.0534  1.2802  0.5460
13378TIP3    H261626   1.014   1.108  11.030 -0.6864  0.1120  0.7180
13379TIP3   OH261627   5.037   0.270   6.430 -0.3939  0.1489  0.2426
13379TIP3    H161628   5.111   0.329   6.440  0.5072 -0.7841 -0.6460
13379TIP3    H261629   5.039   0.215   6.508 -2.0786  2.1282  1.7698
13380TIP3   OH261630   2.183   3.996   4.093  0.2033  0.2973 -0.1321
13380TIP3    H161631   2.157   3.988   4.185  1.8677  0.3615  0.3915
13380TIP3    H261632   2.102   3.986   4.043 -0.8543  1.0548  1.3727
13381TIP3   OH261633   2.370   2.505   0.309 -0.3102  0.5829 -0.2376
13381TIP3    H161634   2.452   2.513   0.357 -0.4936  1.6065 -0.0744
13381TIP3    H261635   2.385   2.552   0.227 -1.6516  3.4878  1.0332
13382TIP3   OH261636   2.625   6.837  11.353 -0.2507  0.2591  0.0428
13382TIP3    H161637   2.697   6.779  11.378 -1.8276 -2.1121 -0.5703
13382TIP3    H261638   2.628   6.839  11.258  1.8653  4.1728 -0.0437
13383TIP3   OH261639   1.237   2.866  11.977 -0.6567  0.0575 -0.0795
13383TIP3    H161640   1.172   2.798  11.958 -2.4351  2.1734 -2.1517
13383TIP3    H261641   1.188   2.934  12.024 -0.3232  2.1521 -2.5560
13384TIP3   OH261642   4.871   6.438  17.138 -0.6712  0.4189 -0.7605
13384TIP3    H161643   4.947   6.457  17.083 -0.0092  2.7242  0.8065
13384TIP3    H261644   4.842   6.524  17.170 -4.0031 -0.3603 -1.3149
13385TIP3   OH261645   6.502   5.333  11.088 -0.5917  0.1585 -0.2271
13385TIP3    H161646   6.552   5.295  11.016  0.1946 -1.0310  0.8952
13385TIP3    H261647   6.423   5.280  11.093  0.2479 -1.0816  0.9760
13386TIP3   OH261648   2.836   2.905  12.822  0.2538  0.2204  0.2460
13386TIP3    H161649   2.793   2.834  12.869  0.4377 -0.1465 -0.1238
13386TIP3    H261650   2.897   2.943  12.885  0.2410 -0.0333  0.4111
13387TIP3   OH261651   1.753   4.174   5.638  0.1244 -0.1297 -0.2478
13387TIP3    H161652   1.823   4.141   5.693  1.1728  1.1078 -0.7906
13387TIP3    H261653   1.673   4.157   5.688  0.8301 -1.1620  0.5784
13388TIP3   OH261654   5.970   4.397   1.215  0.2406 -0.3442  0.5551
13388TIP3    H161655   6.036   4.449   1.261  3.0047 -0.8684 -2.4853
13388TIP3    H261656   5.952   4.447   1.136  0.7880 -2.5451 -1.0403
13389TIP3   OH261657   0.536   3.889   3.547  0.2462 -0.5707  0.3158
13389TIP3    H161658   0.571   3.952   3.609 -0.0609  0.1110 -0.1920
13389TIP3    H261659   0.538   3.934   3.463 -1.2590 -0.7401  0.1612
13390TIP3   OH261660   1.196   4.625  13.190 -0.1587 -0.1593  0.0325
13390TIP3    H161661   1.210   4.719  13.204 -0.6817  0.0781 -0.9187
13390TIP3    H261662   1.242   4.606  13.108  1.5164 -1.1557  1.1415
13391TIP3   OH261663   4.160   4.975   6.422  0.0381 -0.2139  0.4648
13391TIP3    H161664   4.098   4.986   6.494 -0.6506  0.5048 -0.2149
13391TIP3    H261665   4.238   4.939   6.464 -1.0871 -1.9633  1.2197
13392TIP3   OH261666   2.581   2.312  11.271  0.0545 -0.1634  1.1128
13392TIP3    H161667   2.554   2.223  11.248  0.4211 -0.0674  0.2757
13392TIP3    H261668   2.529   2.369  11.214 -0.0139  0.1539  1.4831
13393TIP3   OH261669   1.716   6.090  14.256 -0.1511  0.3045 -0.0897
13393TIP3    H161670   1.707   6.072  14.350  0.8887  0.1378  0.0001
13393TIP3    H261671   1.658   6.027  14.214  1.3137 -1.4448  0.3478
13394TIP3   OH261672   2.682   5.355  15.471  0.0882 -0.0288  0.4406
13394TIP3    H161673   2.632   5.358  15.553 -0.9766 -0.7361 -0.1535
13394TIP3    H261674   2.773   5.367  15.498 -0.0064 -2.1102  1.9782
13395TIP3   OH261675   3.143   0.767  16.013 -0.2491 -0.4424 -0.0586
13395TIP3    H161676   3.101   0.694  15.968 -1.1483  0.0240  0.0072
13395TIP3    H261677   3.176   0.730  16.095 -0.3325 -0.8600 -0.2099
13396TIP3   OH261678   5.723   2.564   2.183 -0.5085 -0.1814  0.4784
13396TIP3    H161679   5.801   2.617   2.202 -0.7869 -0.3966  2.4227
13396TIP3    H261680   5.651   2.612   2.224 -1.2078 -0.5994 -0.2490
13397TIP3   OH261681   2.537   6.439  16.320  0.1589  0.0572 -0.4634
13397TIP3    H161682   2.551   6.355  16.365  0.3580  0.1634 -0.3258
13397TIP3    H261683   2.563   6.505  16.384 -1.1518  0.2770 -0.1313
13398TIP3   OH261684   6.295   3.227   0.787  0.1571 -0.1673  0.1912
13398TIP3    H161685   6.284   3.148   0.733  1.4950  1.1100 -2.0691
13398TIP3    H261686   6.372   3.209   0.841 -0.2082 -0.8066  0.5190
13399TIP3   OH261687   5.694   2.528  12.424  0.1885  0.5963  0.1207
13399TIP3    H161688   5.762   2.493  12.366 -0.8909 -3.2459  0.8821
13399TIP3    H261689   5.637   2.578  12.366  1.6423  0.7963 -1.2040
13400TIP3   OH261690   2.066   4.248  10.790  0.1722 -0.3083 -0.2974
13400TIP3    H161691   2.022   4.310  10.733  0.9700 -2.1819 -3.2322
13400TIP3    H261692   1.996   4.193  10.825 -0.2347 -0.3578 -1.1510
13401TIP3   OH261693   5.758   3.581   2.828 -0.7335  0.5967  0.4295
13401TIP3    H161694   5.819   3.631   2.882  1.4249  1.5774 -2.6602
13401TIP3    H261695   5.791   3.491   2.832 -0.3860  0.7245  0.4980
13402TIP3   OH261696   6.748   4.944   5.861  0.0349 -0.0741 -0.1541
13402TIP3    H161697   6.809   4.880   5.825 -0.1865 -0.6841  0.5045
13402TIP3    H261698   6.785   5.029   5.840 -0.1993 -0.3997 -1.9839
13403TIP3   OH261699   4.332   3.138   3.133 -0.0339 -0.4015 -0.5032
13403TIP3    H161700   4.359   3.046   3.139 -0.5913 -0.7728 -2.6716
13403TIP3    H261701   4.321   3.153   3.039 -0.5187  1.7336 -0.1510
13404TIP3   OH261702   6.803   6.452  12.135  0.0617 -0.1590 -0.0816
13404TIP3    H161703   6.821   6.443  12.042 -1.0541  1.3079 -0.4771
13404TIP3    H261704   6.779   6.364  12.164  1.0862 -0.7675 -1.0043
13405TIP3   OH261705   1.284   2.439  16.485 -0.6851 -0.4222  0.2598
13405TIP3    H161706   1.368   2.482  16.470 -0.9136 -0.1603 -0.2973
13405TIP3    H261707   1.221   2.511  16.490 -1.1738 -0.6901 -1.3298
13406TIP3   OH261708   4.262   4.725  16.401 -0.1202  0.0401 -0.9077
13406TIP3    H161709   4.231   4.647  16.355 -1.6709 -0.0238  0.1980
13406TIP3    H261710   4.201   4.794  16.374 -0.9787  0.0315  0.8927
13407TIP3   OH261711   6.432   4.094   2.858 -0.6011  0.3833  0.7178
13407TIP3    H161712   6.353   4.112   2.909 -1.0646 -1.0908  0.5660
13407TIP3    H261713   6.494   4.060   2.921 -0.5562  0.2664  0.6115
13408TIP3   OH261714   2.638   1.558  14.316 -0.2160 -0.3016  0.0729
13408TIP3    H161715   2.569   1.604  14.267  0.2934 -0.0238 -0.3941
13408TIP3    H261716   2.591   1.500  14.375 -0.9199  1.3481  1.2003
13409TIP3   OH261717   1.583   5.898   5.621  0.0758 -0.2927  0.8668
13409TIP3    H161718   1.596   5.986   5.658  1.4658 -1.2278  2.8258
13409TIP3    H261719   1.489   5.892   5.604 -0.1441  1.3201  1.3866
13410TIP3   OH261720   6.675   0.377  10.747 -0.5804 -1.0279 -0.2260
13410TIP3    H161721   6.646   0.324  10.672 -0.4138 -0.2768 -0.8382
13410TIP3    H261722   6.713   0.455  10.707 -0.5073 -0.6066  0.6543
13411TIP3   OH261723   5.563   5.417   2.610 -0.6706 -0.5053 -0.1722
13411TIP3    H161724   5.559   5.512   2.623 -0.6147 -0.3100 -1.4069
13411TIP3    H261725   5.475   5.386   2.628 -0.6795 -0.2298  0.2811
13412TIP3   OH261726   2.928   1.594   5.389  0.0801  0.0733  0.2982
13412TIP3    H161727   2.893   1.556   5.309  1.2445  0.7597 -0.5694
13412TIP3    H261728   2.983   1.525   5.426 -0.2725 -0.1625  0.3854
13413TIP3   OH261729   5.639   3.257   1.073  0.5334  0.1998  0.0865
13413TIP3    H161730   5.575   3.285   1.007  2.0331  1.1148 -1.0429
13413TIP3    H261731   5.586   3.221   1.144 -1.3741  3.0546  0.2639
13414TIP3   OH261732   2.840   6.099  15.660  0.0680  0.4851  0.6446
13414TIP3    H161733   2.910   6.147  15.617  0.3779  0.6430  1.3142
13414TIP3    H261734   2.788   6.062  15.588  0.4081  0.9789  0.1393
13415TIP3   OH261735   0.323   5.195  14.751 -0.1483 -0.2619  0.6623
13415TIP3    H161736   0.297   5.259  14.818 -0.1812  0.0472  0.3578
13415TIP3    H261737   0.330   5.112  14.799  0.3035  0.0440  1.1473
13416TIP3   OH261738   1.098   2.455   4.603  0.2884  0.7051  0.3008
13416TIP3    H161739   1.046   2.381   4.572  1.6297 -0.6164  1.0913
13416TIP3    H261740   1.079   2.526   4.541 -2.4337  0.3081  0.5750
13417TIP3   OH261741   5.725   1.593  12.467  0.6421 -0.2062 -0.3372
13417TIP3    H161742   5.763   1.506  12.454 -0.2324 -0.4709 -1.3453
13417TIP3    H261743   5.767   1.647  12.400 -0.1091 -0.2993 -0.8967
13418TIP3   OH261744   5.061   5.842  14.729  0.7326  0.6875  0.3152
13418TIP3    H161745   5.095   5.756  14.754  0.1518 -0.1916 -1.6979
13418TIP3    H261746   5.109   5.864  14.649 -1.0905  0.8956 -0.7843
13419TIP3   OH261747   0.018   0.138   1.277  0.0099  0.1732  0.3334
13419TIP3    H161748   0.072   0.194   1.220 -0.2706 -1.1163 -1.2701
13419TIP3    H261749  -0.054   0.195   1.304  1.0230  1.2996  0.7710
13420TIP3   OH261750   0.615   5.388   2.303  0.4445  0.3461 -0.0563
13420TIP3    H161751   0.570   5.416   2.383 -0.9618 -2.1270  0.1146
13420TIP3    H261752   0.681   5.326   2.333  1.1064  0.7430 -0.6842
13421TIP3   OH261753   2.420   1.400  13.154  0.1463 -0.3020  0.0002
13421TIP3    H161754   2.503   1.360  13.129  0.0414 -0.6441  0.1958
13421TIP3    H261755   2.442   1.493  13.168 -0.2153  0.4364 -3.4882
13422TIP3   OH261756   5.982   4.673   4.305 -0.5061  0.2758  0.3400
13422TIP3    H161757   6.061   4.720   4.277 -2.0233  2.6882 -0.1531
13422TIP3    H261758   5.932   4.738   4.354 -2.1148 -1.2669  0.8309
13423TIP3   OH261759   5.143   2.323  12.901 -0.2386 -0.1506 -0.5678
13423TIP3    H161760   5.230   2.288  12.878 -0.0709 -0.3511  0.3231
13423TIP3    H261761   5.121   2.279  12.983 -0.9462  0.3064 -0.5074
13424TIP3   OH261762   3.916   6.167   2.631 -0.4826  0.3669 -0.5464
13424TIP3    H161763   3.881   6.079   2.635 -2.6673  1.2192  0.9129
13424TIP3    H261764   4.002   6.161   2.672 -1.8151 -0.6138  2.3583
13425TIP3   OH261765   1.743   5.879   3.333 -0.1319  0.2669 -0.1757
13425TIP3    H161766   1.727   5.916   3.246 -1.8173 -0.0043 -0.0200
13425TIP3    H261767   1.725   5.785   3.322  0.6907  0.0569  0.2247
13426TIP3   OH261768   0.331   0.325   3.662  0.0186 -0.0995 -0.3648
13426TIP3    H161769   0.249   0.374   3.672  0.5623  0.4542  2.1590
13426TIP3    H261770   0.305   0.233   3.665 -0.5461  0.0714  0.1614
13427TIP3   OH261771   3.396   4.735  14.898  0.5432  1.1064 -0.4714
13427TIP3    H161772   3.402   4.766  14.807 -1.2103 -0.3178 -1.1288
13427TIP3    H261773   3.345   4.802  14.943 -0.0290  1.0033 -0.9563
13428TIP3   OH261774   3.452   6.100   6.214  0.3905  0.1778  0.2652
13428TIP3    H161775   3.487   6.012   6.200 -0.3452  0.0972 -1.2763
13428TIP3    H261776   3.392   6.090   6.289  0.0039 -0.7330 -0.1476
13429TIP3   OH261777   5.062   4.323  11.064 -0.3913  0.0370 -0.0569
13429TIP3    H161778   5.093   4.245  11.019  1.6784  0.7416  0.0456
13429TIP3    H261779   4.979   4.344  11.020  0.6151 -0.3523 -2.3163
13430TIP3   OH261780   5.623   1.130  15.428  0.8190 -0.0405 -0.4983
13430TIP3    H161781   5.658   1.219  15.423  1.4236 -0.2793 -0.6456
13430TIP3    H261782   5.700   1.073  15.417  0.3692 -0.5768 -0.9847
13431TIP3   OH261783   0.946   6.430  12.403  0.1797  0.3564 -0.7531
13431TIP3    H161784   0.983   6.384  12.479  0.4563  1.8163  0.0340
13431TIP3    H261785   0.893   6.364  12.358 -1.4889 -0.1084  1.7183
13432TIP3   OH261786   0.553   1.307  13.579  0.2149 -0.2964  0.8887
13432TIP3    H161787   0.574   1.399  13.594  2.9869 -0.3562 -1.6479
13432TIP3    H261788   0.458   1.302  13.590 -0.3835  3.3752 -0.9748
13433TIP3   OH261789   3.046   1.769  15.229 -0.1727 -0.0739 -0.1992
13433TIP3    H161790   3.004   1.853  15.211  0.6542  0.4210  0.1449
13433TIP3    H261791   3.008   1.709  15.164  0.0955  0.8302 -1.2140
13434TIP3   OH261792   0.666   1.131   1.786  0.0549 -0.5396 -0.6838
13434TIP3    H161793   0.713   1.114   1.705 -1.8758  0.4379 -2.0875
13434TIP3    H261794   0.611   1.054   1.799  0.1771 -0.5866 -0.4353
13435TIP3   OH261795   1.690   0.051  15.947 -0.5355  0.3396  0.0134
13435TIP3    H161796   1.676   0.010  15.862 -0.3910  0.3189 -0.0006
13435TIP3    H261797   1.776   0.093  15.940 -0.9371  1.1571 -0.1766
13436TIP3   OH261798   1.137   3.577   1.619  0.8077  0.0684  0.9378
13436TIP3    H161799   1.137   3.589   1.524 -0.2837 -1.9180  0.6426
13436TIP3    H261800   1.126   3.666   1.654 -2.3495  0.5554 -0.9071
13437TIP3   OH261801   2.010   4.274  14.403  0.8265 -0.1430  0.5046
13437TIP3    H161802   2.028   4.359  14.362 -0.2787 -0.5629 -0.9467
13437TIP3    H261803   2.012   4.212  14.330 -2.3803 -0.7746  0.8382
13438TIP3   OH261804   3.098   6.408  11.925  0.1992 -0.2448 -0.5317
13438TIP3    H161805   3.128   6.356  11.999  0.8580 -0.6533 -1.0727
13438TIP3    H261806   3.166   6.397  11.858 -1.2706 -1.4309 -1.9106
13439TIP3   OH261807   5.971   2.276   2.049  0.0285 -0.1085  0.8774
13439TIP3    H161808   5.933   2.264   1.962  0.0080 -2.9511  1.1738
13439TIP3    H261809   5.896   2.281   2.108  0.0557  1.0524  0.8285
13440TIP3   OH261810   0.837   3.355   6.503  0.2994 -0.8192 -0.5076
13440TIP3    H161811   0.872   3.283   6.449  1.5728  0.4392 -1.4283
13440TIP3    H261812   0.781   3.404   6.443 -0.4086 -0.9151  0.0650
13441TIP3   OH261813   3.749   5.347  16.100  0.2621  0.4539  0.4809
13441TIP3    H161814   3.783   5.420  16.152  1.4853 -1.0518  1.9342
13441TIP3    H261815   3.712   5.387  16.022 -0.7523  2.7672  2.0485
13442TIP3   OH261816   0.972   3.180   5.433 -0.0262 -0.3682 -0.1367
13442TIP3    H161817   0.884   3.188   5.471 -1.7368 -2.0680 -3.3230
13442TIP3    H261818   1.012   3.106   5.480 -0.1842  0.5023  1.4340
13443TIP3   OH261819   0.104   0.279   2.842 -0.4166  0.2547 -0.5086
13443TIP3    H161820   0.193   0.281   2.878 -1.3281  0.0690  1.9574
13443TIP3    H261821   0.114   0.307   2.751  2.1178  0.4809 -0.2310
13444TIP3   OH261822   2.279   6.842   2.454  0.1585 -0.2500  0.7565
13444TIP3    H161823   2.199   6.796   2.427 -0.2167 -0.7689  2.5766
13444TIP3    H261824   2.308   6.888   2.375 -1.0054 -1.3808 -0.3896
13445TIP3   OH261825   5.427   6.725   5.669  0.1366  0.2704  0.6862
13445TIP3    H161826   5.410   6.711   5.762  0.5675 -0.5834  0.6453
13445TIP3    H261827   5.356   6.677   5.625  0.6715 -0.4193  0.5632
13446TIP3   OH261828   1.113   0.192   0.773  0.5114 -0.5043  0.8160
13446TIP3    H161829   1.185   0.204   0.712  0.4533 -0.9723  0.6497
13446TIP3    H261830   1.147   0.224   0.857 -0.5220  3.4081 -0.0769
13447TIP3   OH261831   0.997   3.868  11.932 -0.5699  0.1602 -0.3060
13447TIP3    H161832   0.967   3.922  12.005 -1.3546 -0.4513 -0.1567
13447TIP3    H261833   1.090   3.854  11.949 -1.1905 -2.0218  1.9951
13448TIP3   OH261834   3.944   1.823   0.493  0.1855  0.1072  0.0505
13448TIP3    H161835   3.897   1.789   0.416  1.2634 -0.1903 -0.4971
13448TIP3    H261836   3.974   1.910   0.466 -1.9398  1.2694  1.1940
13449TIP3   OH261837   1.907   4.266  14.667 -0.5465 -0.5627  0.5546
13449TIP3    H161838   1.891   4.359  14.688 -0.7492 -0.6262  0.6893
13449TIP3    H261839   1.926   4.266  14.573 -1.5610 -0.5014  0.3379
13450TIP3   OH261840   2.307   2.165  16.316  0.3880  0.1172  0.0122
13450TIP3    H161841   2.399   2.174  16.341  0.4271 -0.9207  0.2996
13450TIP3    H261842   2.304   2.084  16.264 -0.1310  0.8719 -1.1826
13451TIP3   OH261843   2.746   3.326   3.609  0.0935 -0.5359  0.4131
13451TIP3    H161844   2.816   3.388   3.629 -1.2702  1.6186 -1.0483
13451TIP3    H261845   2.791   3.244   3.588  2.0117  0.1474  1.6356
13452TIP3   OH261846   3.428   5.501  17.115  0.2656  0.4388  0.0848
13452TIP3    H161847   3.416   5.592  17.089  0.7938  0.7943  1.0390
13452TIP3    H261848   3.458   5.457  17.035 -1.6230  0.7108 -0.8385
13453TIP3   OH261849   3.911   3.014   5.386  0.1617  0.6293  0.2158
13453TIP3    H161850   3.965   2.943   5.350 -0.4427 -0.5997  1.5991
13453TIP3    H261851   3.854   3.040   5.314  0.1187 -0.5930 -0.2156
13454TIP3   OH261852   0.453   3.603   2.630  0.0645  0.0806  0.3804
13454TIP3    H161853   0.434   3.543   2.703 -0.0168  1.9775  2.0144
13454TIP3    H261854   0.381   3.666   2.633  0.6660  0.8367 -0.6329
13455TIP3   OH261855   4.209   6.370  14.898  0.6404  0.1774 -0.0191
13455TIP3    H161856   4.134   6.327  14.858  1.2614  0.0398 -1.0704
13455TIP3    H261857   4.272   6.380  14.827  1.4622  0.6565  0.7517
13456TIP3   OH261858   1.712   0.165   5.151 -0.6892 -0.2153 -0.3752
13456TIP3    H161859   1.750   0.248   5.122  0.7266  0.2208  2.3617
13456TIP3    H261860   1.638   0.191   5.206  0.2108 -0.6674  1.1048
13457TIP3   OH261861   2.257   1.393   4.953  0.2955  0.3657 -0.0935
13457TIP3    H161862   2.229   1.481   4.929  0.2263  0.3882  0.0652
13457TIP3    H261863   2.184   1.359   5.005  0.5680  0.4246  0.3244
13458TIP3   OH261864   6.697   5.370   3.517  0.2870 -0.1323  0.0163
13458TIP3    H161865   6.616   5.348   3.564  0.6465 -1.2615  0.1266
13458TIP3    H261866   6.681   5.339   3.428  0.0536  0.9597 -0.3344
13459TIP3   OH261867   4.535   3.314  14.195 -0.4540  0.1323 -0.1177
13459TIP3    H161868   4.495   3.267  14.122 -0.3368  1.3538 -0.9984
13459TIP3    H261869   4.624   3.334  14.165 -0.4241  0.7008  0.3192
13460TIP3   OH261870   0.906   4.521  14.056  0.2302 -0.1990  0.5881
13460TIP3    H161871   0.858   4.487  13.981  1.3405 -0.9345  0.1930
13460TIP3    H261872   0.853   4.594  14.088 -0.9985 -0.8142 -0.0023
13461TIP3   OH261873   3.080   4.752   2.173 -0.0475  0.5217 -0.1702
13461TIP3    H161874   3.081   4.792   2.260 -0.3694 -0.4688  0.3026
13461TIP3    H261875   3.021   4.808   2.122  0.0991  1.0789  0.2654
13462TIP3   OH261876   5.388   5.867  14.054 -0.3797  0.7536  0.0308
13462TIP3    H161877   5.382   5.936  14.119  0.1248  0.6785  0.1645
13462TIP3    H261878   5.356   5.907  13.973  1.1100  1.5626 -0.2006
13463TIP3   OH261879   3.599   6.354  14.146  0.0711  0.5023 -0.1955
13463TIP3    H161880   3.596   6.263  14.175  0.7563  0.7555  0.7226
13463TIP3    H261881   3.545   6.356  14.067  1.4935 -1.0850 -1.3055
13464TIP3   OH261882   0.291   1.523   3.354  0.3722 -0.1648  0.1146
13464TIP3    H161883   0.259   1.456   3.293  0.2585  0.0362 -0.0461
13464TIP3    H261884   0.352   1.576   3.303 -0.0979  0.3051  0.0357
13465TIP3   OH261885   2.616   6.703   4.830  0.1138 -0.1998  0.0693
13465TIP3    H161886   2.535   6.746   4.858 -0.4922 -0.3178 -1.4016
13465TIP3    H261887   2.686   6.762   4.859 -0.6283  1.0495 -0.5791
13466TIP3   OH261888   2.963   5.784  15.755 -0.3558 -0.0781  0.1747
13466TIP3    H161889   2.892   5.832  15.713 -0.5846 -0.0867  0.5443
13466TIP3    H261890   3.042   5.832  15.731 -0.2346 -1.2082 -1.9062
13467TIP3   OH261891   3.330   3.432   5.927 -0.4525  0.2198  0.6105
13467TIP3    H161892   3.254   3.445   5.869 -0.0165 -2.4784 -0.6951
13467TIP3    H261893   3.403   3.472   5.881 -0.6077  0.5924  0.6809
13468TIP3   OH261894   1.057   0.332   4.365  0.3556  0.2656  0.3404
13468TIP3    H161895   0.962   0.321   4.372  0.2832  0.8564  0.3837
13468TIP3    H261896   1.093   0.259   4.414 -0.0803 -0.0030  0.2669
13469TIP3   OH261897   6.182   1.522  12.704 -0.3751  0.5278  0.0867
13469TIP3    H161898   6.245   1.473  12.651 -1.7056 -0.6725 -0.4815
13469TIP3    H261899   6.149   1.590  12.645 -1.5765 -0.5709 -0.5714
13470TIP3   OH261900   1.554   5.498  16.888  0.3873 -0.2726  0.2626
13470TIP3    H161901   1.575   5.405  16.883 -0.2704 -0.4404  0.5394
13470TIP3    H261902   1.614   5.540  16.826  2.6490 -0.5334  2.1343
13471TIP3   OH261903   6.450   1.798   5.882  0.4608 -0.1780  0.2666
13471TIP3    H161904   6.523   1.851   5.849 -0.2111  0.3877 -0.3469
13471TIP3    H261905   6.372   1.849   5.862 -0.1301 -0.8968  0.6695
13472TIP3   OH261906   0.997   2.882  10.442 -0.0867 -0.3023  0.2554
13472TIP3    H161907   0.989   2.952  10.507 -0.8926  0.9220 -1.0867
13472TIP3    H261908   0.977   2.925  10.359 -0.4149 -2.1015 -0.6445
13473TIP3   OH261909   2.305   2.508   1.785  0.4473 -0.8058  0.1718
13473TIP3    H161910   2.361   2.546   1.717 -0.6968 -3.0546 -2.1810
13473TIP3    H261911   2.347   2.535   1.867  3.4885 -0.2417 -1.3991
13474TIP3   OH261912   1.102   0.956   4.867 -0.7552  0.3584  1.3596
13474TIP3    H161913   1.097   0.950   4.963 -0.5821 -2.7728  1.2962
13474TIP3    H261914   1.017   0.924   4.837 -0.3225 -0.0311  0.5043
13475TIP3   OH261915   4.917   5.791   0.999 -0.5785  0.2108  0.0909
13475TIP3    H161916   4.857   5.754   1.064 -0.1117  0.3633  0.6187
13475TIP3    H261917   4.989   5.729   0.995 -0.4576  0.3605 -0.0525
13476TIP3   OH261918   1.669   3.782   5.014 -0.4044 -0.5790 -0.0244
13476TIP3    H161919   1.657   3.859   5.070  0.1643  2.4404 -3.6532
13476TIP3    H261920   1.585   3.737   5.018 -1.2874  1.0388  1.1461
13477TIP3   OH261921   4.328   3.452  13.314 -0.2766 -0.4536  0.3657
13477TIP3    H161922   4.339   3.420  13.224  1.4139 -1.7738  0.9685
13477TIP3    H261923   4.254   3.513  13.310 -0.0099 -0.2049 -1.9716
13478TIP3   OH261924   3.641   5.333  11.762  0.0642 -0.0515 -0.8497
13478TIP3    H161925   3.702   5.364  11.828 -0.4653 -2.0131  0.6534
13478TIP3    H261926   3.691   5.333  11.680  2.7691 -3.2699  0.5866
13479TIP3   OH261927   5.656   2.615   1.243  0.1300 -0.1392  0.2860
13479TIP3    H161928   5.740   2.643   1.279  0.0403  0.0558  0.3405
13479TIP3    H261929   5.606   2.586   1.319  0.8598 -2.1521  0.0770
13480TIP3   OH261930   4.319   0.378   1.961 -0.3685  0.1010  0.4308
13480TIP3    H161931   4.247   0.375   2.025  2.3503 -0.1641  3.7314
13480TIP3    H261932   4.348   0.287   1.953  0.5414  0.3931  0.3098
13481TIP3   OH261933   1.770   1.023   2.253 -0.3319  0.0063 -0.3137
13481TIP3    H161934   1.790   0.984   2.339  1.6673 -0.6737 -1.0316
13481TIP3    H261935   1.712   1.097   2.274  0.9582  0.5399  1.7692
13482TIP3   OH261936   2.670   4.508   3.379 -0.2988  0.3555  0.4060
13482TIP3    H161937   2.585   4.522   3.337  0.2897  0.3551 -0.8101
13482TIP3    H261938   2.660   4.425   3.425 -0.8854  0.2511  0.1049
13483TIP3   OH261939   0.527   3.346  10.857  1.2362 -0.9200 -0.5229
13483TIP3    H161940   0.563   3.417  10.911 -1.3087 -0.5055  0.7508
13483TIP3    H261941   0.584   3.344  10.780  3.1276  0.5384  0.7333
13484TIP3   OH261942   0.619   2.659  15.920  0.2211 -0.2129  0.7227
13484TIP3    H161943   0.596   2.715  15.846  2.1772  3.1649  2.4018
13484TIP3    H261944   0.679   2.594  15.884  3.0050  2.7372 -0.4977
13485TIP3   OH261945   5.272   5.182   3.960  0.1838 -0.1927 -0.0900
13485TIP3    H161946   5.324   5.117   3.914 -0.9210 -0.6716 -0.7122
13485TIP3    H261947   5.192   5.136   3.984 -0.1998  0.6673  0.3391
13486TIP3   OH261948   6.371   2.925  12.247 -0.6581  0.0981  0.3566
13486TIP3    H161949   6.382   2.840  12.204 -0.6745 -0.1466  0.8242
13486TIP3    H261950   6.307   2.908  12.316 -0.3975  0.4065  0.6765
13487TIP3   OH261951   6.750   6.066  13.231  0.6509  0.0103  0.0298
13487TIP3    H161952   6.724   5.981  13.267  1.7839 -0.3811 -0.0384
13487TIP3    H261953   6.821   6.046  13.171  1.4847  1.0807  0.6266
13488TIP3   OH261954   0.772   1.635   0.690 -0.2252  0.4248 -0.1404
13488TIP3    H161955   0.714   1.561   0.709 -1.8459  1.9060  1.0388
13488TIP3    H261956   0.817   1.653   0.772 -0.4594  1.2228 -0.1713
13489TIP3   OH261957   3.803   6.413   2.588 -0.0360 -0.1165  0.0979
13489TIP3    H161958   3.722   6.406   2.538 -0.1740  0.5226  0.2245
13489TIP3    H261959   3.833   6.323   2.598 -0.9496 -0.3927  0.4137
13490TIP3   OH261960   0.988   5.538  12.703 -0.2746  0.4660 -0.5046
13490TIP3    H161961   1.056   5.595  12.740 -0.5468  1.7549 -1.8611
13490TIP3    H261962   1.014   5.527  12.612 -1.0871 -0.3036 -0.6537
13491TIP3   OH261963   4.460   1.177  14.591 -0.2226  0.4029 -0.2703
13491TIP3    H161964   4.417   1.256  14.558 -1.1256  0.2086  0.4025
13491TIP3    H261965   4.427   1.106  14.536 -1.4247  0.1372  0.7394
13492TIP3   OH261966   6.214   1.017  15.103  0.1807  0.3390 -0.4975
13492TIP3    H161967   6.256   1.090  15.058  1.2892  0.1803  0.2246
13492TIP3    H261968   6.135   0.999  15.052 -0.2046  2.1267 -0.6164
13493TIP3   OH261969   6.752   2.385   4.921  0.6540  0.1388 -0.3242
13493TIP3    H161970   6.815   2.377   4.993  0.3140 -0.6988 -0.1155
13493TIP3    H261971   6.740   2.479   4.911  0.6812  0.2688  0.7396
13494TIP3   OH261972   5.443   4.704   1.655 -0.5646 -0.0288 -0.5335
13494TIP3    H161973   5.455   4.657   1.737 -2.1292  1.4292  0.6046
13494TIP3    H261974   5.348   4.717   1.649 -0.5541 -0.6143 -2.9049
13495TIP3   OH261975   1.110   1.611   4.242 -0.2428 -0.5815 -0.1898
13495TIP3    H161976   1.076   1.569   4.162  0.8238 -1.4818 -0.1985
13495TIP3    H261977   1.175   1.549   4.275 -1.3690 -0.7058  1.9677
13496TIP3   OH261978   4.336   1.867  13.993 -0.4355  0.8784  0.3586
13496TIP3    H161979   4.429   1.856  13.978 -0.6724 -0.4390 -0.3307
13496TIP3    H261980   4.295   1.798  13.941 -1.9740  3.0629 -1.5175
13497TIP3   OH261981   4.729   0.293   2.575 -0.0585 -0.2687 -0.0801
13497TIP3    H161982   4.635   0.314   2.572  0.0822  0.3192 -0.6578
13497TIP3    H261983   4.771   0.377   2.595  0.4254 -0.2507 -1.1182
13498TIP3   OH261984   1.077   2.064   3.955 -0.0266 -0.1102 -0.8100
13498TIP3    H161985   0.991   2.067   3.996  0.2267  0.6945 -0.2999
13498TIP3    H261986   1.079   1.982   3.907 -0.1958 -1.2795  1.0891
13499TIP3   OH261987   1.106   1.873   5.929  0.6980 -0.3315 -0.2255
13499TIP3    H161988   1.026   1.920   5.952  1.5858  2.2468 -1.8631
13499TIP3    H261989   1.171   1.905   5.992  0.5872 -2.1631  0.8936
13500TIP3   OH261990   6.707   0.747  12.576 -0.8538  0.0024  0.1060
13500TIP3    H161991   6.703   0.842  12.586 -0.8054  0.0238 -0.0714
13500TIP3    H261992   6.700   0.713  12.665 -0.5988  0.1806  0.1947
13501TIP3   OH261993   3.063   6.226   5.857 -0.1992  0.0098 -0.4757
13501TIP3    H161994   3.111   6.224   5.774 -1.0441  0.5377 -0.9955
13501TIP3    H261995   3.055   6.319   5.878 -0.6362 -0.0879 -0.1915
13502TIP3   OH261996   5.857   0.286  16.649 -0.6578 -0.0420  0.0748
13502TIP3    H161997   5.932   0.260  16.595  0.0637 -0.3156  1.1857
13502TIP3    H261998   5.878   0.375  16.678 -0.4207 -0.3625  0.9327
13503TIP3   OH261999   3.910   6.438   3.825 -0.6317 -0.3828  0.2015
13503TIP3    H162000   3.987   6.387   3.851 -1.3147 -2.0874 -0.9094
13503TIP3    H262001   3.855   6.439   3.904 -0.0269 -0.2457  0.6244
13504TIP3   OH262002   4.767   0.012   6.314  0.2174  0.2942 -0.1303
13504TIP3    H162003   4.803  -0.013   6.399  0.8087 -1.7109 -0.9127
13504TIP3    H262004   4.676   0.038   6.333  0.7565  1.2828  1.2718
13505TIP3   OH262005   5.706   6.226  13.879 -0.3156  0.5786 -0.0315
13505TIP3    H162006   5.764   6.236  13.955  1.0513  0.7288 -1.0525
13505TIP3    H262007   5.755   6.168  13.820 -2.0972 -0.9550 -0.1012
13506TIP3   OH262008   5.721   6.587   1.773 -0.1075 -0.4275 -0.0627
13506TIP3    H162009   5.655   6.585   1.703  0.0677  0.5600 -0.2740
13506TIP3    H262010   5.696   6.662   1.827  1.8632  1.1316 -1.1916
13507TIP3   OH262011   0.635   2.708  12.229 -0.0926 -0.0440  0.1832
13507TIP3    H162012   0.686   2.785  12.253 -2.0196  0.8100  1.9028
13507TIP3    H262013   0.564   2.706  12.293 -1.4863 -1.8675 -1.3005
13508TIP3   OH262014   6.624   4.936   0.059 -0.3794  0.0710 -0.5385
13508TIP3    H162015   6.596   4.859   0.010  0.5551 -1.3449  1.0298
13508TIP3    H262016   6.705   4.964   0.016 -0.1414 -0.4986 -0.4660
13509TIP3   OH262017   6.385   1.916   3.454 -0.0644 -0.0792 -0.2483
13509TIP3    H162018   6.399   1.964   3.372 -0.4592  0.5253  0.0276
13509TIP3    H262019   6.458   1.854   3.458  1.2507  1.4144  0.0429
13510TIP3   OH262020   5.817   5.813   3.694  0.2218  0.6777 -0.0909
13510TIP3    H162021   5.785   5.899   3.719 -0.9466  0.9705 -2.3297
13510TIP3    H262022   5.814   5.762   3.775 -1.0095  2.1693  0.8581
13511TIP3   OH262023   0.796   4.520  10.148  0.2041 -0.1650  0.8827
13511TIP3    H162024   0.727   4.474  10.099  0.9728 -0.6569  0.2395
13511TIP3    H262025   0.845   4.450  10.191 -0.7189  0.2799  2.7572
13512TIP3   OH262026   4.741   1.088  15.484  0.3245 -0.1926 -0.6051
13512TIP3    H162027   4.652   1.104  15.452 -0.1085  0.1916  0.7369
13512TIP3    H262028   4.765   1.003  15.445 -0.7324 -0.4403 -0.7574
13513TIP3   OH262029   0.035   1.060  12.085 -0.2120  0.0880  0.0618
13513TIP3    H162030  -0.027   1.030  12.019 -0.1139  0.5388 -0.2432
13513TIP3    H262031   0.067   1.144  12.052 -0.5295  0.5575  0.9174
13514TIP3   OH262032   6.235   0.620   5.231  0.0930  0.0744  0.0708
13514TIP3    H162033   6.215   0.529   5.256  1.5469 -0.5916 -0.9957
13514TIP3    H262034   6.163   0.671   5.267 -1.3548 -1.6314 -0.2135
13515TIP3   OH262035   5.113   1.337  12.476 -0.1662  0.2966  0.0747
13515TIP3    H162036   5.095   1.363  12.566 -0.1459 -0.2643  0.2432
13515TIP3    H262037   5.204   1.308  12.478  1.0545  3.5428 -0.8577
13516TIP3   OH262038   1.519   4.816  12.920 -0.5575  0.6880 -0.6804
13516TIP3    H162039   1.534   4.907  12.945 -0.1650  0.4722 -0.1288
13516TIP3    H262040   1.468   4.822  12.839 -0.0370  1.4016 -0.9666
13517TIP3   OH262041   3.853   6.561  13.463  0.1339 -0.2004  0.3267
13517TIP3    H162042   3.768   6.552  13.420 -0.1019 -1.2378  0.9724
13517TIP3    H262043   3.915   6.571  13.391 -0.6006  1.4625 -0.1297
13518TIP3   OH262044   6.098   2.082   0.716 -0.2355  0.4138  0.8647
13518TIP3    H162045   6.015   2.092   0.761 -0.0573 -1.5762  1.7633
13518TIP3    H262046   6.160   2.060   0.786  0.9451  1.3369  0.1465
13519TIP3   OH262047   2.212   1.666  16.939 -0.3859 -0.1905 -0.5084
13519TIP3    H162048   2.215   1.758  16.915  0.5824 -0.5169 -1.7308
13519TIP3    H262049   2.213   1.619  16.856 -3.6133 -1.3149 -0.0542
13520TIP3   OH262050   3.344   4.828   6.200 -0.4399 -0.8857  0.2868
13520TIP3    H162051   3.395   4.763   6.150  0.7591 -0.4706  0.9446
13520TIP3    H262052   3.385   4.829   6.286  1.0915  2.3381 -0.3048
13521TIP3   OH262053   4.096   4.863  13.010 -0.4924 -0.0501  0.0747
13521TIP3    H162054   4.040   4.793  12.976 -0.1622 -1.0019  1.4109
13521TIP3    H262055   4.058   4.884  13.095 -0.3936  1.1992 -0.1717
13522TIP3   OH262056   4.688   6.708   3.222 -0.1847 -0.2981 -0.1462
13522TIP3    H162057   4.738   6.723   3.142 -1.8920 -0.5115 -1.3127
13522TIP3    H262058   4.656   6.795   3.247 -1.1084 -0.4544 -0.7296
13523TIP3   OH262059   6.221   3.996   6.212  0.4384 -0.0317  0.0890
13523TIP3    H162060   6.150   3.938   6.241  0.3482  0.0363  0.0046
13523TIP3    H262061   6.295   3.937   6.196  0.0631 -0.2534 -0.9292
13524TIP3   OH262062   0.487   6.518  12.435 -0.7208  0.6216  0.1248
13524TIP3    H162063   0.457   6.448  12.377  2.5549 -0.6999 -0.2300
13524TIP3    H262064   0.421   6.587  12.427 -2.9798 -1.5546 -1.1818
13525TIP3   OH262065   3.515   0.707   0.692  0.3448  0.3647 -0.5300
13525TIP3    H162066   3.459   0.764   0.640  0.7167  0.6070 -0.6661
13525TIP3    H262067   3.542   0.760   0.767  1.2537  0.5995 -1.0163
13526TIP3   OH262068   6.604   2.180  10.915  0.6174 -0.2069 -0.6035
13526TIP3    H162069   6.581   2.149  10.827 -0.5858  0.4995 -0.5523
13526TIP3    H262070   6.621   2.274  10.903  2.1925 -0.4331 -0.3809
13527TIP3   OH262071   4.946   3.843  15.924  0.3078  0.0065 -0.0081
13527TIP3    H162072   4.971   3.880  16.009 -1.4844 -2.4753  1.7567
13527TIP3    H262073   4.854   3.869  15.913  0.6006  0.5353 -1.3820
13528TIP3   OH262074   2.666   2.203   2.254 -0.1575  0.3608  1.1619
13528TIP3    H162075   2.741   2.159   2.294  0.4571  1.3992  1.1748
13528TIP3    H262076   2.597   2.197   2.320  0.1008 -0.0619  1.4002
13529TIP3   OH262077   5.980   0.621  11.988  0.4959 -0.2566 -0.1886
13529TIP3    H162078   6.019   0.703  11.956 -1.2269  0.6727 -0.0362
13529TIP3    H262079   5.971   0.567  11.909  0.7733  0.0712 -0.4500
13530TIP3   OH262080   0.210   3.723  10.305  0.3246  0.3354  0.4688
13530TIP3    H162081   0.242   3.769  10.227  0.8505  1.0716  1.1097
13530TIP3    H262082   0.118   3.704  10.285  0.5137  0.2895 -0.4288
13531TIP3   OH262083   3.569   3.728   3.922  0.1666 -0.2651  0.0540
13531TIP3    H162084   3.505   3.790   3.886 -0.7605 -0.3039  1.5156
13531TIP3    H262085   3.561   3.651   3.867  1.0106  0.7175 -1.5195
13532TIP3   OH262086   3.498   2.379  13.014  0.0131 -0.0156  0.3052
13532TIP3    H162087   3.543   2.343  12.937  0.0558 -0.3672  0.4924
13532TIP3    H262088   3.405   2.376  12.991  0.1306  2.0900 -0.6773
13533TIP3   OH262089   5.764   4.565  15.519  0.3105 -0.1879 -0.4570
13533TIP3    H162090   5.714   4.563  15.601  1.2756  2.5119  0.2961
13533TIP3    H262091   5.845   4.519  15.540  0.5887  0.5658  0.1498
13534TIP3   OH262092   1.828   3.578   3.989 -0.1716  0.3038 -0.0350
13534TIP3    H162093   1.792   3.651   3.938 -2.2714  0.1864  1.1817
13534TIP3    H262094   1.752   3.540   4.033  1.0501 -1.9133  0.2689
13535TIP3   OH262095   4.645   2.101   0.827 -0.3337 -0.5972  0.1794
13535TIP3    H162096   4.677   2.011   0.828  2.7021  0.3784  0.8385
13535TIP3    H262097   4.603   2.113   0.913  0.7100 -0.9322  0.7475
13536TIP3   OH262098   0.767   1.358   4.929  0.1022 -0.2905  0.4107
13536TIP3    H162099   0.789   1.340   4.838 -1.1382 -2.0624  0.4085
13536TIP3    H262100   0.679   1.322   4.940  0.7159 -1.2520  2.6329
13537TIP3   OH262101   1.780   3.977  15.200 -0.0395  0.4949  0.3090
13537TIP3    H162102   1.737   3.981  15.115  2.6201 -0.9636 -1.2416
13537TIP3    H262103   1.732   3.910  15.249 -1.2544  0.9450 -0.2348
13538TIP3   OH262104   4.847   4.496   5.050  0.5852 -0.5460 -0.5937
13538TIP3    H162105   4.768   4.442   5.059  0.3851  0.0228  1.9784
13538TIP3    H262106   4.821   4.568   4.992 -0.8447 -0.3672  0.2166
13539TIP3   OH262107   3.664   5.500  13.819 -0.3602 -0.5144 -0.4962
13539TIP3    H162108   3.627   5.478  13.904  0.6715  0.9485  0.3661
13539TIP3    H262109   3.731   5.433  13.804  0.2907 -0.0836  0.4192
13540TIP3   OH262110   5.757   2.425   2.489  0.5826 -0.9405 -0.2192
13540TIP3    H162111   5.833   2.431   2.431 -0.3860  1.0663 -1.3841
13540TIP3    H262112   5.783   2.474   2.567 -0.2962  2.0816 -1.6622
13541TIP3   OH262113   2.651   1.716  15.604 -0.1434 -0.0975  0.5307
13541TIP3    H162114   2.653   1.805  15.639 -1.5036  0.9166 -1.7208
13541TIP3    H262115   2.730   1.710  15.550 -0.2213 -0.1304  0.4207
13542TIP3   OH262116   6.509   2.923  14.866 -0.2198  0.0434 -0.0888
13542TIP3    H162117   6.544   2.908  14.954  2.5276 -0.8020 -1.2158
13542TIP3    H262118   6.483   2.837  14.835 -0.0852  0.1467 -0.5012
13543TIP3   OH262119   2.076   4.426   4.038 -0.3800  0.1272  0.1056
13543TIP3    H162120   2.033   4.363   3.981  0.0598 -0.0313 -0.0522
13543TIP3    H262121   2.092   4.378   4.120 -1.6866  0.5677  0.6557
13544TIP3   OH262122   4.815   0.943   4.975  0.5338  0.0505 -0.0804
13544TIP3    H162123   4.859   0.932   4.890 -0.3132  1.9815 -0.8188
13544TIP3    H262124   4.726   0.970   4.952 -0.0103 -0.3639  1.4437
13545TIP3   OH262125   2.819   4.751   6.103 -0.3231 -0.4076 -0.3806
13545TIP3    H162126   2.725   4.732   6.106 -0.2397 -1.1116 -1.6104
13545TIP3    H262127   2.831   4.801   6.022  0.4314 -0.7542 -0.4930
13546TIP3   OH262128   0.724   2.247  16.389  0.1240  0.0594 -0.0620
13546TIP3    H162129   0.780   2.200  16.451  3.0671  1.1466 -1.7069
13546TIP3    H262130   0.734   2.198  16.307  0.0182  1.2367 -0.7929
13547TIP3   OH262131   0.372   0.009  12.944  0.1226  0.3793 -0.7498
13547TIP3    H162132   0.449  -0.046  12.959 -0.0025  0.3246 -0.2920
13547TIP3    H262133   0.349  -0.006  12.852 -0.5817 -1.1991 -0.3448
13548TIP3   OH262134   6.784   3.365  10.835 -0.2945 -0.3068  0.1840
13548TIP3    H162135   6.696   3.402  10.838  0.4932  1.6332  0.6998
13548TIP3    H262136   6.794   3.332  10.746 -0.9983  0.8599 -0.3358
13549TIP3   OH262137   1.534   4.591  11.100  0.3430 -0.0269  0.2824
13549TIP3    H162138   1.573   4.676  11.081 -0.0274  0.4628  1.5796
13549TIP3    H262139   1.464   4.610  11.162 -0.5969 -1.1418 -0.4079
13550TIP3   OH262140   4.772   4.065  16.110 -0.4807  0.3877 -0.7759
13550TIP3    H162141   4.786   4.160  16.105 -0.3595  0.4794  0.7311
13550TIP3    H262142   4.823   4.038  16.186 -0.6423 -0.8711 -1.0981
13551TIP3   OH262143   2.039   4.275   6.078  0.2957 -0.5157 -0.7675
13551TIP3    H162144   1.967   4.338   6.078  0.1946 -0.5415 -3.0753
13551TIP3    H262145   1.999   4.193   6.105 -0.1584 -0.1510 -0.3175
13552TIP3   OH262146   3.287   3.581  16.474  0.1518 -0.3363  0.5798
13552TIP3    H162147   3.267   3.613  16.386 -0.6725 -1.0173  0.5062
13552TIP3    H262148   3.322   3.657  16.520 -2.2600  0.8540  0.5891
13553TIP3   OH262149   4.938   5.399  10.851  0.2639  0.3529 -0.1635
13553TIP3    H162150   4.958   5.488  10.824 -0.0970  0.1127 -1.2726
13553TIP3    H262151   4.973   5.343  10.782 -1.6910 -0.2160 -0.7797
13554TIP3   OH262152   4.265   0.212  10.373 -0.1018 -0.3087  0.3770
13554TIP3    H162153   4.179   0.239  10.341  0.9867  1.5463 -1.2094
13554TIP3    H262154   4.255   0.119  10.393 -1.5986 -1.0516 -3.0581
13555TIP3   OH262155   4.122   0.928   3.389 -0.1345  0.1711 -0.5299
13555TIP3    H162156   4.131   0.834   3.405 -0.6752  0.4427  1.8068
13555TIP3    H262157   4.035   0.937   3.350  0.3746 -0.3750 -1.8370
13556TIP3   OH262158   0.448   6.788   4.038  0.6927 -0.1022 -0.0382
13556TIP3    H162159   0.543   6.785   4.046  0.6607 -1.8224  0.1553
13556TIP3    H262160   0.416   6.731   4.108 -0.4540 -0.0573 -0.4988
13557TIP3   OH262161   1.024   2.919   5.001 -0.4531  0.0316  0.7169
13557TIP3    H162162   0.957   2.857   5.031 -0.5198  0.3957  1.3387
13557TIP3    H262163   0.981   3.004   5.002  0.3776  0.4787  2.4463
13558TIP3   OH262164   3.055   2.896  17.099  0.1243 -0.3967  0.0178
13558TIP3    H162165   3.004   2.857  17.170  0.3979  1.0221  1.0524
13558TIP3    H262166   3.044   2.836  17.026 -2.4657 -0.5044  0.3894
13559TIP3   OH262167   5.379   5.361  11.086  0.2311 -0.8707 -0.2451
13559TIP3    H162168   5.344   5.385  11.171 -1.3303  2.6030 -1.6994
13559TIP3    H262169   5.466   5.402  11.083 -0.6233  1.0044 -1.0548
13560TIP3   OH262170   0.571   2.582   1.379 -0.0655 -0.8036  0.1549
13560TIP3    H162171   0.578   2.491   1.409  0.5361 -0.8347 -0.0704
13560TIP3    H262172   0.640   2.591   1.314  2.3652  0.8333  2.7478
13561TIP3   OH262173   3.544   6.190  14.795  0.5483 -0.0252 -0.0625
13561TIP3    H162174   3.459   6.206  14.753  0.6402 -0.1830 -0.3041
13561TIP3    H262175   3.546   6.253  14.868 -0.5276 -1.1796  1.0224
13562TIP3   OH262176   3.241   4.994   2.827  0.2044 -0.3382 -0.1858
13562TIP3    H162177   3.334   5.018   2.827  0.0220  0.4435  0.9137
13562TIP3    H262178   3.195   5.078   2.821 -0.4525 -0.3498  3.1037
13563TIP3   OH262179   2.266   6.310  16.426 -0.6638  0.8632 -0.5166
13563TIP3    H162180   2.304   6.398  16.420  0.1172  0.5498 -0.2363
13563TIP3    H262181   2.174   6.322  16.401 -0.5033  1.7145 -0.7245
13564TIP3   OH262182   2.114   2.214  13.367  0.7907  0.4020 -0.0567
13564TIP3    H162183   2.052   2.144  13.387  2.0028 -1.0589 -1.1327
13564TIP3    H262184   2.136   2.252  13.451 -1.3329  0.7925  0.3785
13565TIP3   OH262185   0.193   0.745  15.006  0.1970 -0.0938 -0.7106
13565TIP3    H162186   0.210   0.663  14.961 -0.0857  0.0059 -1.0046
13565TIP3    H262187   0.149   0.720  15.087  0.0821 -0.2294 -0.8147
13566TIP3   OH262188   2.731   3.027   5.713  0.1252  0.6366  0.0129
13566TIP3    H162189   2.718   3.060   5.802  0.9773 -0.2993  0.4975
13566TIP3    H262190   2.821   3.050   5.691 -0.5332  2.2717 -1.2508
13567TIP3   OH262191   4.596   6.018   5.957 -0.4793 -0.1534  0.3924
13567TIP3    H162192   4.577   6.039   6.048 -0.5576 -1.7333  0.7648
13567TIP3    H262193   4.606   6.104   5.914 -1.0569  0.6145  1.7344
13568TIP3   OH262194   6.220   2.674  11.630  0.0783  0.7387 -0.0128
13568TIP3    H162195   6.129   2.655  11.650  0.4142  1.9287  3.1340
13568TIP3    H262196   6.217   2.747  11.568 -1.0362 -0.5829 -1.6093
13569TIP3   OH262197   3.122   2.824   1.688  0.3326 -0.2049  0.2509
13569TIP3    H162198   3.151   2.811   1.778  1.0689 -0.0649  0.0400
13569TIP3    H262199   3.203   2.824   1.637 -0.0402  0.2770 -0.3417
13570TIP3   OH262200   1.097   5.146   3.948 -0.2449  0.7438  0.5574
13570TIP3    H162201   1.047   5.217   3.990 -0.0193 -0.0439  2.2321
13570TIP3    H262202   1.102   5.078   4.015 -1.0233 -1.1508 -1.2208
13571TIP3   OH262203   4.732   5.132  16.493 -0.6538 -0.5569 -0.1187
13571TIP3    H162204   4.703   5.224  16.489 -2.4091 -1.0552  0.2854
13571TIP3    H262205   4.686   5.096  16.568 -0.0634 -1.8112 -0.3411
13572TIP3   OH262206   3.745   0.245  17.065 -0.0681  0.2448 -0.1375
13572TIP3    H162207   3.771   0.325  17.111  0.3814  1.0776 -1.7584
13572TIP3    H262208   3.703   0.192  17.132  1.0516  1.1517  1.3577
13573TIP3   OH262209   1.947   1.800   0.528  0.3618  0.3965 -0.3584
13573TIP3    H162210   1.978   1.710   0.537  0.9191  0.6706  0.6468
13573TIP3    H262211   2.027   1.853   0.529 -0.0290  1.0437  1.2036
13574TIP3   OH262212   1.099   1.437   5.461  0.2696 -0.4322  0.2932
13574TIP3    H162213   1.051   1.486   5.527 -0.3202  0.1393 -0.5500
13574TIP3    H262214   1.191   1.454   5.482  0.1209 -1.0252  1.5272
13575TIP3   OH262215   6.552   4.740  17.028  0.4996  0.0194 -0.1986
13575TIP3    H162216   6.494   4.669  17.056  0.2641  0.4532  0.4240
13575TIP3    H262217   6.501   4.789  16.964  0.3213  0.1806  0.0692
13576TIP3   OH262218   5.962   5.184   4.750 -0.3243  0.2614 -0.1014
13576TIP3    H162219   5.941   5.100   4.710 -0.1455  0.8000 -1.3699
13576TIP3    H262220   5.931   5.176   4.841  1.1704 -1.7703  0.3151
13577TIP3   OH262221   4.286   0.745   3.848 -0.7069 -0.4130  0.3019
13577TIP3    H162222   4.282   0.823   3.793 -0.8135  0.4826  1.5256
13577TIP3    H262223   4.198   0.709   3.847 -0.7863 -0.2115  0.1576
13578TIP3   OH262224   6.214   1.224  14.321 -0.5200 -0.1687  0.1937
13578TIP3    H162225   6.135   1.178  14.295  0.2474 -0.5291 -1.6647
13578TIP3    H262226   6.264   1.235  14.240  0.6068  1.4816  1.0344
13579TIP3   OH262227   2.355   2.084  10.873 -0.3247  0.3376  0.4183
13579TIP3    H162228   2.404   2.069  10.792 -2.3496 -1.7254 -0.5276
13579TIP3    H262229   2.339   1.997  10.908 -2.2168  1.0038  1.3279
13580TIP3   OH262230   4.605   3.025  11.588  0.0175 -0.4386  0.7297
13580TIP3    H162231   4.516   3.052  11.607  0.8242  1.1763  2.5789
13580TIP3    H262232   4.638   3.090  11.525  0.1715 -0.4693  0.7764
13581TIP3   OH262233   5.486   6.322   2.241  0.8408  0.3753  0.7620
13581TIP3    H162234   5.475   6.417   2.242 -2.0538  0.1485  1.8633
13581TIP3    H262235   5.510   6.300   2.331  1.5279  0.0369  0.5049
13582TIP3   OH262236   3.814   6.485  14.242 -0.7267 -0.4452  0.5038
13582TIP3    H162237   3.825   6.549  14.172  0.2297  0.0501  1.0976
13582TIP3    H262238   3.735   6.437  14.217  0.1823 -1.0273 -1.5072
13583TIP3   OH262239   0.924   2.592   2.938 -0.1466  0.0943 -0.5294
13583TIP3    H162240   1.008   2.612   2.980 -0.5197  0.5072  0.0220
13583TIP3    H262241   0.939   2.612   2.846  0.3495  0.1922 -0.4323
13584TIP3   OH262242   5.430   1.903  13.194 -0.4537 -0.7731  0.5102
13584TIP3    H162243   5.483   1.871  13.121 -2.6921  0.1560 -1.6358
13584TIP3    H262244   5.489   1.898  13.269  2.2494 -0.9961 -1.4559
13585TIP3   OH262245   6.178   5.546   1.608  0.8924 -0.5304 -0.1503
13585TIP3    H162246   6.182   5.484   1.681 -1.0426 -1.4134 -0.7417
13585TIP3    H262247   6.179   5.632   1.650  0.0736 -1.0148  0.9026
13586TIP3   OH262248   3.812   0.499   2.117  0.1484  0.6690  0.3895
13586TIP3    H162249   3.764   0.581   2.131  0.0404  0.4254  1.5156
13586TIP3    H262250   3.759   0.432   2.161  0.4400  0.0571 -0.1739
13587TIP3   OH262251   3.061   6.431  15.845  0.2129  0.4361  0.6498
13587TIP3    H162252   3.026   6.490  15.778  2.2198  0.8433 -0.0838
13587TIP3    H262253   3.095   6.489  15.913  2.5041  0.2051 -0.2305
13588TIP3   OH262254   4.694   3.006  11.918 -0.5655  0.3561  0.3970
13588TIP3    H162255   4.682   2.917  11.885  0.0860  0.2282  0.4989
13588TIP3    H262256   4.730   2.995  12.006 -0.0636  0.7211  0.2423
13589TIP3   OH262257   2.309   0.910  11.403 -0.4767  0.0852  0.7050
13589TIP3    H162258   2.372   0.901  11.474 -0.1054 -0.1265  0.3590
13589TIP3    H262259   2.332   0.840  11.342  0.0586  1.0686 -0.2580
13590TIP3   OH262260   5.449   6.570   2.093  0.5631 -0.0866  0.0960
13590TIP3    H162261   5.358   6.549   2.075  0.4618  0.3127  0.1301
13590TIP3    H262262   5.445   6.641   2.157  0.9150 -1.0889  1.2675
13591TIP3   OH262263   4.754   0.486  13.513  0.7609 -0.3147 -0.0523
13591TIP3    H162264   4.681   0.546  13.530  0.9143  0.2141 -1.1491
13591TIP3    H262265   4.792   0.518  13.431  2.4521 -0.3638  0.6812
13592TIP3   OH262266   2.746   1.335   4.237 -0.0130  0.0551 -0.3878
13592TIP3    H162267   2.707   1.401   4.295 -1.2715 -0.4724 -0.6011
13592TIP3    H262268   2.724   1.364   4.149  0.5751  0.0441 -0.5422
13593TIP3   OH262269   6.004   2.423   2.349  0.5858  0.9063  0.1024
13593TIP3    H162270   6.084   2.456   2.391  0.4632  1.0925  0.1905
13593TIP3    H262271   6.005   2.461   2.262  1.5037 -0.5057 -0.5336
13594TIP3   OH262272   2.421   6.043  11.558 -0.0246 -0.2927  0.8185
13594TIP3    H162273   2.419   6.128  11.601  0.1892  0.3057 -0.3153
13594TIP3    H262274   2.339   6.039  11.508  1.3251  0.6815 -1.6981
13595TIP3   OH262275   1.807   5.476  16.098  0.2798 -0.5096  0.3657
13595TIP3    H162276   1.787   5.382  16.098  0.9188 -0.6799  2.1455
13595TIP3    H262277   1.777   5.506  16.012 -1.5740 -1.9882  0.4131
13596TIP3   OH262278   3.421   6.514   0.072  0.4902 -0.0291 -0.0319
13596TIP3    H162279   3.384   6.599   0.045  1.8405  0.8950  0.8882
13596TIP3    H262280   3.363   6.449   0.032 -0.6376  1.3213 -0.6956
13597TIP3   OH262281   6.618   6.145   2.397  0.2922  0.1452  0.2703
13597TIP3    H162282   6.589   6.132   2.487 -0.6175  0.5600  0.0478
13597TIP3    H262283   6.663   6.063   2.375 -1.1336 -0.7368  0.4789
13598TIP3   OH262284   4.641   4.736  10.327 -0.2122  0.4978 -0.3128
13598TIP3    H162285   4.563   4.756  10.274  0.3433  0.6431 -1.0857
13598TIP3    H262286   4.626   4.647  10.359 -0.4978  0.3623 -0.8176
13599TIP3   OH262287   2.633   2.449  10.882 -0.5329 -0.3310  0.3168
13599TIP3    H162288   2.673   2.368  10.912 -0.3103 -0.9015 -1.4035
13599TIP3    H262289   2.554   2.421  10.836  0.9156  0.0854 -2.6994
13600TIP3   OH262290   2.385   6.542  15.496  0.0693  0.0997  0.3196
13600TIP3    H162291   2.333   6.563  15.573 -1.9787 -1.2154 -0.6015
13600TIP3    H262292   2.415   6.452  15.511  1.0118  0.3897  0.2569
13601TIP3   OH262293   0.497   3.493   1.913 -0.6321  0.2171  0.6815
13601TIP3    H162294   0.525   3.504   1.822  0.6926  0.0347  1.0337
13601TIP3    H262295   0.503   3.399   1.929 -1.5897  0.1581  0.7526
13602TIP3   OH262296   6.800   2.243  11.210 -0.3996  0.5389 -0.5982
13602TIP3    H162297   6.735   2.307  11.182  1.0063  1.6937 -1.3659
13602TIP3    H262298   6.760   2.158  11.190 -2.1867  1.1481  0.1678
13603TIP3   OH262299   1.478   5.099  12.498  0.1771 -0.5093 -0.1692
13603TIP3    H162300   1.401   5.117  12.443 -1.7441 -0.7684  2.2311
13603TIP3    H262301   1.498   5.184  12.538  3.2827  0.3258 -3.1256
13604TIP3   OH262302   6.242   5.937   6.359 -0.3115  0.8784  0.2142
13604TIP3    H162303   6.304   6.002   6.326  0.2295  1.3102  1.9576
13604TIP3    H262304   6.277   5.853   6.330  1.3609  1.0830  1.4746
13605TIP3   OH262305   2.934   3.253   0.266  0.3315  0.1221 -0.1785
13605TIP3    H162306   2.933   3.172   0.214  1.2924 -1.0973  1.5926
13605TIP3    H262307   3.022   3.255   0.304 -0.6235  0.3718  2.1984
13606TIP3   OH262308   3.990   1.855   4.387  0.1975  0.3359 -0.2553
13606TIP3    H162309   4.004   1.834   4.479  2.5425  1.7853 -0.2200
13606TIP3    H262310   4.017   1.946   4.378 -0.8492  0.5128 -2.2265
13607TIP3   OH262311   0.939   2.416   5.348 -0.1002 -0.2351  0.0638
13607TIP3    H162312   0.855   2.398   5.306 -0.6487  1.5524  0.3001
13607TIP3    H262313   0.936   2.368   5.431  0.4204 -2.6580 -1.2477
13608TIP3   OH262314   0.423   0.187   2.770 -0.5409  0.4200 -0.0510
13608TIP3    H162315   0.369   0.214   2.696 -1.1891 -0.4766  0.0700
13608TIP3    H262316   0.429   0.265   2.826 -1.7075  0.5523 -0.0803
13609TIP3   OH262317   2.228   0.115  15.264 -0.0831  0.3656 -0.3207
13609TIP3    H162318   2.255   0.183  15.326  1.7305 -0.4810 -0.1205
13609TIP3    H262319   2.191   0.046  15.319  1.7640 -0.4981 -0.0889
13610TIP3   OH262320   6.706   2.637   4.836  0.2819  0.0742  0.3767
13610TIP3    H162321   6.653   2.715   4.856 -0.0128 -0.1453  0.4628
13610TIP3    H262322   6.776   2.669   4.779  0.7823  0.6020  1.2681
13611TIP3   OH262323   6.539   4.322  12.535  0.0468  0.1535  0.5607
13611TIP3    H162324   6.600   4.354  12.601  1.1017  1.5251 -1.0047
13611TIP3    H262325   6.468   4.282  12.586  2.0411 -1.2360  2.4529
13612TIP3   OH262326   3.410   6.704  11.795  0.4104 -0.1180  0.4842
13612TIP3    H162327   3.419   6.659  11.711  1.0399 -0.2515  0.6140
13612TIP3    H262328   3.402   6.633  11.859 -0.2481 -0.0148  0.5239
13613TIP3   OH262329   2.468   5.437  15.669  0.1257  0.3982  0.4018
13613TIP3    H162330   2.545   5.477  15.709  1.4148 -1.5399  0.0045
13613TIP3    H262331   2.428   5.508  15.617  1.7336  1.4062  0.4774
13614TIP3   OH262332   1.605   2.556  13.434  0.4959 -0.3792  0.1630
13614TIP3    H162333   1.672   2.623  13.450  1.8019 -1.7267  0.6360
13614TIP3    H262334   1.523   2.597  13.461  1.6217  0.0311  3.5166
13615TIP3   OH262335   2.145   2.207  12.184 -0.2311 -0.3616  0.0384
13615TIP3    H162336   2.152   2.112  12.190 -0.4131 -0.6214 -2.5577
13615TIP3    H262337   2.229   2.236  12.150 -0.9605  0.1044 -1.4402
13616TIP3   OH262338   2.113   0.420  16.469  0.0116 -0.0669 -0.0726
13616TIP3    H162339   2.103   0.347  16.409  0.4090 -0.4849  0.3625
13616TIP3    H262340   2.104   0.498  16.413 -0.8375 -0.4319 -0.4627
13617TIP3   OH262341   0.792   0.460  10.626  0.6120 -0.5113  0.7715
13617TIP3    H162342   0.866   0.401  10.611  1.4744  1.0852 -1.8996
13617TIP3    H262343   0.828   0.547  10.613 -1.5855  0.3656  0.1927
13618TIP3   OH262344   5.562   1.523  14.380 -0.3605  0.4051  0.4230
13618TIP3    H162345   5.585   1.611  14.411  0.0282  0.8080 -0.9412
13618TIP3    H262346   5.568   1.468  14.458  1.7851  1.1430  0.8667
13619TIP3   OH262347   6.613   5.303   2.906  0.0676 -0.1351  0.2480
13619TIP3    H162348   6.575   5.314   2.994  0.6842  0.3795  0.4567
13619TIP3    H262349   6.686   5.364   2.904  0.7640 -0.9643 -0.2231
13620TIP3   OH262350   5.670   5.723   5.520  0.0927 -0.2748 -0.0523
13620TIP3    H162351   5.590   5.775   5.529  1.1352  1.9868 -2.4280
13620TIP3    H262352   5.675   5.672   5.600 -1.7797  2.2762  1.8533
13621TIP3   OH262353   6.193   3.253  16.928 -0.0072  0.0040 -0.5822
13621TIP3    H162354   6.153   3.330  16.968  2.4833  1.3168 -0.4329
13621TIP3    H262355   6.243   3.288  16.854  0.6607 -1.5618 -0.9127
13622TIP3   OH262356   1.821   5.347  11.927 -0.0308 -0.3085  0.3978
13622TIP3    H162357   1.914   5.329  11.910  0.1694  1.6643 -0.9904
13622TIP3    H262358   1.775   5.269  11.893  1.0405 -0.6668 -0.2853
13623TIP3   OH262359   2.065   0.937   3.956 -0.1215  0.5597 -0.2963
13623TIP3    H162360   2.033   0.919   4.044  2.4499  1.8062  0.9870
13623TIP3    H262361   2.134   0.872   3.942  0.1428  0.9794 -1.0079
13624TIP3   OH262362   6.046   0.972  16.606 -0.0471  0.7549  0.2671
13624TIP3    H162363   6.083   1.057  16.631  0.6411  0.6832 -0.4641
13624TIP3    H262364   6.121   0.912  16.609 -0.9328 -0.3778  3.1273
13625TIP3   OH262365   3.697   3.476  14.378 -0.0896 -0.0999  0.2622
13625TIP3    H162366   3.763   3.421  14.334  0.6807  0.7246  0.3479
13625TIP3    H262367   3.709   3.457  14.471 -0.5633 -0.5789  0.2319
13626TIP3   OH262368   5.278   3.363   6.037  0.1713  0.0616 -0.4605
13626TIP3    H162369   5.253   3.455   6.043  0.6601  0.1841 -0.2910
13626TIP3    H262370   5.256   3.327   6.123  0.0341  0.0307 -0.5077
13627TIP3   OH262371   3.293   6.267  14.292  0.1807 -0.1393  0.2147
13627TIP3    H162372   3.243   6.215  14.356 -1.9131  0.5414 -0.8010
13627TIP3    H262373   3.360   6.311  14.345  0.1847 -1.6125  1.5287
13628TIP3   OH262374   6.556   1.678   3.289  0.3975  0.0462 -0.2072
13628TIP3    H162375   6.506   1.599   3.310  1.2547 -0.7985 -1.2671
13628TIP3    H262376   6.634   1.673   3.343  0.4800  0.1510 -0.3163
13629TIP3   OH262377   5.016   6.043  14.465 -0.1918  0.6662  0.2190
13629TIP3    H162378   4.956   5.970  14.448 -1.0172  1.2295  0.6358
13629TIP3    H262379   5.098   6.002  14.492  0.2274 -0.1832 -2.1156
13630TIP3   OH262380   6.648   5.883   0.616  0.1924 -0.5836 -0.4615
13630TIP3    H162381   6.626   5.951   0.553 -1.4695 -1.2341 -0.6302
13630TIP3    H262382   6.731   5.911   0.654 -0.3252  1.3952 -0.7014
13631TIP3   OH262383   2.538   5.163   4.599  0.6416  0.3375  0.2299
13631TIP3    H162384   2.544   5.081   4.649 -1.4783  0.7441  1.2569
13631TIP3    H262385   2.511   5.136   4.512 -0.9735 -0.0428  0.8136
13632TIP3   OH262386   0.302   5.145  16.293 -0.0141  0.1181 -0.6499
13632TIP3    H162387   0.374   5.208  16.292  0.9768 -0.8329  2.0989
13632TIP3    H262388   0.329   5.078  16.355 -3.5798  0.0858  1.1326
13633TIP3   OH262389   3.313   0.862   2.632  0.1765 -0.5135 -0.0107
13633TIP3    H162390   3.360   0.929   2.683  1.1734 -0.8026 -0.5227
13633TIP3    H262391   3.227   0.900   2.616  1.0371  1.0951 -1.1119
13634TIP3   OH262392   1.872   5.180  13.746  0.2570 -0.0734 -0.0988
13634TIP3    H162393   1.902   5.230  13.671 -0.3226 -0.4366 -0.5830
13634TIP3    H262394   1.822   5.108  13.708  0.4342 -0.5780  0.6169
13635TIP3   OH262395   5.702   2.656   3.580  0.0766 -0.3978  0.7736
13635TIP3    H162396   5.701   2.660   3.676  3.6592  2.3858  0.8981
13635TIP3    H262397   5.787   2.620   3.558 -0.8634 -1.4363 -1.4707
13636TIP3   OH262398   0.093   5.550  13.821 -0.1216  0.4757  0.2962
13636TIP3    H162399   0.027   5.574  13.756  0.6542  0.9915 -0.3294
13636TIP3    H262400   0.081   5.613  13.892  0.0507  0.9271 -0.0679
13637TIP3   OH262401   0.003   5.743  12.715 -0.3954 -0.4544  1.1805
13637TIP3    H162402  -0.001   5.675  12.648 -0.5725 -0.3925  1.1295
13637TIP3    H262403   0.091   5.779  12.706 -0.8460  0.4515  0.0915
13638TIP3   OH262404   1.759   6.556   0.358 -0.2538 -0.5947 -0.5915
13638TIP3    H162405   1.690   6.616   0.331 -0.2566  0.1890  1.0438
13638TIP3    H262406   1.715   6.489   0.410  0.3696  1.1916  2.5057
13639TIP3   OH262407   2.798   1.491   5.196 -0.4201 -0.2383 -0.0353
13639TIP3    H162408   2.848   1.503   5.115  0.7154  1.0355  0.8171
13639TIP3    H262409   2.758   1.404   5.186  0.1402 -0.3499 -1.7115
13640TIP3   OH262410   6.027   2.400  16.170  0.0181  0.1384  0.2198
13640TIP3    H162411   6.023   2.305  16.185 -0.0293  0.0115 -0.5353
13640TIP3    H262412   5.939   2.431  16.190  0.0227  0.0168  0.4328
13641TIP3   OH262413   0.971   3.695   3.488  0.0295  0.2610 -0.2650
13641TIP3    H162414   0.890   3.645   3.496  0.9170 -1.1803 -0.0498
13641TIP3    H262415   0.951   3.779   3.531 -1.2820 -0.1294 -0.0639
13642TIP3   OH262416   1.336   3.898   4.641  0.3270 -0.0234 -0.2354
13642TIP3    H162417   1.403   3.840   4.606 -1.3122 -1.3211 -1.3802
13642TIP3    H262418   1.344   3.891   4.736  1.1348 -0.9662 -0.3665
13643TIP3   OH262419   1.238   5.308  16.952  0.4507 -0.3395 -0.2463
13643TIP3    H162420   1.271   5.234  16.900  1.6901  0.1581 -0.1922
13643TIP3    H262421   1.292   5.308  17.031  0.6613  0.8061 -0.3733
13644TIP3   OH262422   6.604   3.356  17.018 -0.2193 -0.0704 -0.1834
13644TIP3    H162423   6.693   3.324  17.032 -0.8935 -0.7763  3.7140
13644TIP3    H262424   6.616   3.443  16.980  1.9551 -1.1559 -2.2875
13645TIP3   OH262425   5.655   5.337  14.757  1.0121 -0.2243 -0.5293
13645TIP3    H162426   5.566   5.307  14.775 -0.1611  2.6657 -1.0795
13645TIP3    H262427   5.701   5.327  14.841  0.0616 -1.3153 -0.1144
13646TIP3   OH262428   1.212   3.556   3.492  0.2530  0.2840 -0.2680
13646TIP3    H162429   1.270   3.597   3.428  0.3464 -2.0219 -1.7985
13646TIP3    H262430   1.132   3.608   3.488  0.7582  1.0357 -1.2300
13647TIP3   OH262431   1.088   0.051  15.444 -0.7524 -0.3102 -0.0167
13647TIP3    H162432   1.122  -0.030  15.407  1.3303  0.2601  0.5207
13647TIP3    H262433   1.091   0.037  15.539 -0.2073  0.4450  0.0852
13648TIP3   OH262434   2.463   6.044  14.233  0.7671 -0.1307 -0.5200
13648TIP3    H162435   2.551   6.060  14.267  0.7000  0.8580 -0.7678
13648TIP3    H262436   2.443   6.122  14.181 -0.1322 -0.4854 -0.7267
13649TIP3   OH262437   2.710   1.496  17.040 -0.4889 -0.3874  0.4652
13649TIP3    H162438   2.696   1.461  17.128 -1.8186 -0.9389  0.0515
13649TIP3    H262439   2.721   1.590  17.053 -1.5775 -0.3369  1.1361
13650TIP3   OH262440   2.159   2.375   2.813 -0.3923  0.0965  0.1751
13650TIP3    H162441   2.099   2.418   2.752  0.0706  0.6136  0.0647
13650TIP3    H262442   2.165   2.435   2.887  0.1648  0.1784  0.0756
13651TIP3   OH262443   1.224   1.928  13.331  0.0679 -0.1850 -0.2053
13651TIP3    H162444   1.299   1.930  13.273  0.7754  0.1293  0.6843
13651TIP3    H262445   1.168   2.000  13.302  1.7263  1.7584  1.1377
13652TIP3   OH262446   5.211   1.021   5.634 -0.0842 -0.1150  0.2893
13652TIP3    H162447   5.201   1.092   5.571  1.4683  0.5451  0.7300
13652TIP3    H262448   5.289   1.046   5.685 -0.8935 -0.9576  2.0109
13653TIP3   OH262449   6.511   6.075  12.464 -0.9923 -0.1136  0.0850
13653TIP3    H162450   6.524   6.003  12.403 -1.0836 -0.3953  0.3956
13653TIP3    H262451   6.417   6.096  12.457 -0.6660  1.0951 -1.2385
13654TIP3   OH262452   0.815   2.866  13.325  0.0605  0.5264  0.3870
13654TIP3    H162453   0.771   2.921  13.260  0.8970 -1.3319 -1.8870
13654TIP3    H262454   0.905   2.899  13.328  0.7365 -0.9943 -1.4542
13655TIP3   OH262455   5.884   1.526   4.749 -0.0324 -0.2754 -0.1160
13655TIP3    H162456   5.926   1.440   4.747  2.6307  0.9069 -0.4885
13655TIP3    H262457   5.915   1.566   4.831 -1.5235  0.2248  0.2429
13656TIP3   OH262458   4.746   0.816   5.665  0.0327 -0.1115  0.2495
13656TIP3    H162459   4.812   0.875   5.629  1.9628 -2.8320 -0.9859
13656TIP3    H262460   4.697   0.785   5.589  1.2493 -2.5626  0.3830
13657TIP3   OH262461   3.620   3.063   2.417  0.4058 -0.7299  0.0141
13657TIP3    H162462   3.626   2.971   2.441  0.7286 -0.4488  1.0591
13657TIP3    H262463   3.708   3.087   2.390 -0.3677 -1.6120 -3.7877
13658TIP3   OH262464   1.064   5.602  15.946  0.0880 -0.1584  0.0659
13658TIP3    H162465   1.102   5.666  15.885  0.1328  1.6234  1.8807
13658TIP3    H262466   0.997   5.650  15.993  0.3982 -1.3331  1.7930
13659TIP3   OH262467   5.608   4.613  17.121  0.0364  0.0491 -0.4313
13659TIP3    H162468   5.623   4.601  17.028 -1.9370  0.7557 -0.9001
13659TIP3    H262469   5.548   4.688  17.126  3.0921  2.6428  1.6519
13660TIP3   OH262470   4.642   6.703  12.940 -0.0063  0.7359 -0.5135
13660TIP3    H162471   4.643   6.751  12.857 -2.1150 -0.7088 -1.4606
13660TIP3    H262472   4.718   6.645  12.936  0.8244  1.7996 -0.6849
13661TIP3   OH262473   2.213   4.193   0.072  0.2295  0.3557 -0.4449
13661TIP3    H162474   2.202   4.098   0.077 -1.6934  0.6086  2.0658
13661TIP3    H262475   2.138   4.224   0.021  1.0662  0.5482 -1.6024
13662TIP3   OH262476   3.171   0.241   1.791  0.2403  0.3442  0.3755
13662TIP3    H162477   3.165   0.174   1.722 -0.4495 -0.2921  1.0413
13662TIP3    H262478   3.172   0.324   1.743 -0.4849 -0.0729 -0.3966
13663TIP3   OH262479   4.713   5.342   1.390 -0.2304 -0.0431 -0.6145
13663TIP3    H162480   4.765   5.404   1.441  0.2651 -0.6638 -0.3514
13663TIP3    H262481   4.658   5.397   1.334  0.5517  0.6240 -0.7403
13664TIP3   OH262482   3.356   4.363  11.141 -0.0157  0.2708 -0.0229
13664TIP3    H162483   3.378   4.419  11.067 -0.9632  0.6810 -0.0132
13664TIP3    H262484   3.405   4.399  11.214  1.9177 -0.8876 -0.6745
13665TIP3   OH262485   0.985   1.971   2.482  0.2761  0.2821 -0.0966
13665TIP3    H162486   0.998   1.931   2.396 -0.4108 -1.2281  0.4678
13665TIP3    H262487   0.898   1.942   2.509  0.0929  1.4973  0.7270
13666TIP3   OH262488   0.636   5.802  11.115 -0.2139 -0.3241 -0.4678
13666TIP3    H162489   0.633   5.818  11.209  1.6954 -1.6864 -0.1189
13666TIP3    H262490   0.565   5.741  11.098  0.7779 -1.8219  0.5264
13667TIP3   OH262491   1.832   1.339   5.359 -0.6192 -0.1645  0.2874
13667TIP3    H162492   1.892   1.366   5.429 -0.3946  0.1354 -0.0152
13667TIP3    H262493   1.769   1.411   5.353 -0.3231  0.0636 -0.1760
13668TIP3   OH262494   3.294   6.183  11.512  0.8509 -0.1085 -0.6180
13668TIP3    H162495   3.311   6.144  11.426 -0.8950  0.1471 -1.1117
13668TIP3    H262496   3.199   6.177  11.523  0.8888  1.1586  0.6747
13669TIP3   OH262497   5.358   0.738  16.951  0.7096  0.1763  0.1966
13669TIP3    H162498   5.400   0.772  16.872  0.5526  0.1451  0.0993
13669TIP3    H262499   5.301   0.668  16.919  2.1638 -1.2305  0.5426
13670TIP3   OH262500   4.341   1.100  13.574  0.2798 -0.0803 -0.0115
13670TIP3    H162501   4.423   1.095  13.623 -0.4350  2.1376  1.5702
13670TIP3    H262502   4.283   1.038  13.619  0.9134 -1.3504 -0.8819
13671TIP3   OH262503   2.791   1.072   6.442 -0.4772 -0.4528 -0.5397
13671TIP3    H162504   2.881   1.055   6.470  0.0784 -0.3463 -2.1389
13671TIP3    H262505   2.738   1.057   6.520  0.9795  0.0303  0.5941
13672TIP3   OH262506   0.188   6.578   3.972 -0.3328  0.5385  0.1602
13672TIP3    H162507   0.277   6.543   3.961 -1.0302 -0.9425 -1.0497
13672TIP3    H262508   0.166   6.558   4.063  1.4085  3.0822  1.2776
13673TIP3   OH262509   1.730   1.068   0.846  0.1185 -0.6816 -0.3190
13673TIP3    H162510   1.677   1.044   0.769 -1.1851  0.4546  0.1936
13673TIP3    H262511   1.743   1.162   0.837  0.4773 -0.6462  0.5529
13674TIP3   OH262512   1.386   1.664   1.561 -0.1705 -0.4762  0.5077
13674TIP3    H162513   1.321   1.649   1.629 -1.0714 -0.7510 -0.3943
13674TIP3    H262514   1.436   1.583   1.557 -0.5398 -0.7000  0.4000
13675TIP3   OH262515   2.732   5.283   2.198 -0.5278  0.4658 -0.6378
13675TIP3    H162516   2.663   5.328   2.248  0.3407 -0.0444  1.1118
13675TIP3    H262517   2.734   5.328   2.114 -1.5765  1.8672  0.0403
13676TIP3   OH262518   2.339   4.644   2.172 -0.3251 -0.0396 -0.8217
13676TIP3    H162519   2.416   4.690   2.139 -0.7405  0.0013 -1.7728
13676TIP3    H262520   2.337   4.562   2.122  0.0818 -0.8593  0.4447
13677TIP3   OH262521   1.592   2.483   3.545  0.6880 -0.2925 -0.6227
13677TIP3    H162522   1.660   2.433   3.501  0.2599  0.2615 -1.9559
13677TIP3    H262523   1.511   2.453   3.505  0.2852  0.2345 -0.2118
13678TIP3   OH262524   3.067   4.938   6.173  0.0212  0.4829  0.1685
13678TIP3    H162525   3.005   4.866   6.185 -0.8186  1.2054  0.2879
13678TIP3    H262526   3.152   4.900   6.190 -0.6341  0.2527  3.7037
13679TIP3   OH262527   1.537   0.498   3.808  0.1524  0.0648  0.1584
13679TIP3    H162528   1.455   0.541   3.834  0.0867  1.3197 -1.9293
13679TIP3    H262529   1.596   0.513   3.882 -1.0656  0.2970  1.1293
13680TIP3   OH262530   1.917   2.413  14.914  0.1988  0.2062 -0.1497
13680TIP3    H162531   1.821   2.410  14.907  0.1948 -0.1936  0.0705
13680TIP3    H262532   1.948   2.373  14.832  0.1598 -1.8459  0.7785
13681TIP3   OH262533   6.072   4.552   2.833  0.3820  0.0241 -0.5726
13681TIP3    H162534   6.002   4.550   2.899  0.6913 -0.3171 -0.2512
13681TIP3    H262535   6.122   4.630   2.855  0.8804 -0.4540  0.0150
13682TIP3   OH262536   5.291   2.594   5.981 -0.2250  0.1279  1.0409
13682TIP3    H162537   5.293   2.604   6.076  0.6727 -0.3975  1.0925
13682TIP3    H262538   5.302   2.500   5.967 -1.3683  0.0706  0.4311
13683TIP3   OH262539   0.885   6.649  16.396 -0.1949  0.1644  0.5391
13683TIP3    H162540   0.868   6.621  16.306  1.3800 -0.3052  0.3669
13683TIP3    H262541   0.811   6.707  16.416 -0.5999  0.2576 -1.0369
13684TIP3   OH262542   5.760   5.079  11.005 -0.7945  0.0672  0.2027
13684TIP3    H162543   5.771   5.093  10.911  1.8415 -2.6164 -0.0402
13684TIP3    H262544   5.761   5.167  11.043  0.3359  1.1217 -2.0953
13685TIP3   OH262545   0.427   3.170   5.123 -0.1390  0.2539 -0.4134
13685TIP3    H162546   0.454   3.135   5.208  1.2623  1.8914 -0.1229
13685TIP3    H262547   0.356   3.113   5.095 -0.5268 -0.4405  1.7823
13686TIP3   OH262548   3.867   1.373  13.711  0.2714  0.3963 -0.6716
13686TIP3    H162549   3.957   1.339  13.704  0.0545 -0.2165 -0.4977
13686TIP3    H262550   3.875   1.447  13.772  0.0299 -2.0674  2.6248
13687TIP3   OH262551   2.600   0.103   2.685 -0.5305  0.4033  0.0391
13687TIP3    H162552   2.687   0.139   2.668  0.6879 -2.2733 -0.0452
13687TIP3    H262553   2.572   0.146   2.766  1.6065  0.2209  0.9600
13688TIP3   OH262554   4.637   0.213   1.815 -0.1620 -0.1399 -0.0261
13688TIP3    H162555   4.598   0.300   1.804 -0.3258 -0.2540 -0.3830
13688TIP3    H262556   4.616   0.167   1.734  0.2608 -0.3841 -0.0035
13689TIP3   OH262557   5.390   4.634  16.641 -0.3142  0.3131 -0.0583
13689TIP3    H162558   5.381   4.623  16.736 -0.3460  0.0553 -0.0924
13689TIP3    H262559   5.482   4.657  16.628 -0.3850  0.6825  0.0670
13690TIP3   OH262560   6.518   1.622   4.070 -0.5177 -0.4024  0.3082
13690TIP3    H162561   6.541   1.696   4.126  0.5516 -0.4233 -0.0835
13690TIP3    H262562   6.525   1.655   3.981 -0.9242 -0.7288  0.1492
13691TIP3   OH262563   4.204   1.127  14.061  0.2421  0.2857  0.4867
13691TIP3    H162564   4.127   1.084  14.024 -0.3075 -0.2602  2.1748
13691TIP3    H262565   4.177   1.217  14.075  0.5045  0.5380 -0.5209
13692TIP3   OH262566   0.382   4.374  13.138  0.1710  1.1670  0.2940
13692TIP3    H162567   0.348   4.314  13.205  0.8725 -0.2185 -0.5497
13692TIP3    H262568   0.375   4.325  13.056  5.2135  0.1803  0.1425
13693TIP3   OH262569   3.124   3.145   0.072 -0.3673  0.0187  0.1978
13693TIP3    H162570   3.185   3.145   0.146 -2.9893  3.7339  2.6798
13693TIP3    H262571   3.068   3.069   0.087 -1.8784  1.5780  3.1733
13694TIP3   OH262572   3.983   0.599  13.372 -0.5472 -0.3801 -0.8674
13694TIP3    H162573   4.079   0.598  13.379 -0.4752 -0.1798 -1.6874
13694TIP3    H262574   3.957   0.509  13.392 -0.4434  0.1298  2.1144
13695TIP3   OH262575   6.582   6.132  11.930 -0.2767 -0.3146 -0.5623
13695TIP3    H162576   6.636   6.058  11.957  1.3973  0.6444 -1.1268
13695TIP3    H262577   6.597   6.139  11.835 -1.5771 -0.1506 -0.7670
13696TIP3   OH262578   4.578   0.241  12.393  0.1494 -0.4551  0.3896
13696TIP3    H162579   4.630   0.243  12.312  1.5742 -3.3490  1.1144
13696TIP3    H262580   4.488   0.258  12.364  0.7140 -0.7452 -1.7089
13697TIP3   OH262581   1.332   1.622  11.742 -0.9080 -0.0736  0.2564
13697TIP3    H162582   1.379   1.705  11.736 -1.1925  0.1453  0.8681
13697TIP3    H262583   1.273   1.635  11.817 -1.7639 -0.4169 -0.3450
13698TIP3   OH262584   3.147   6.114   0.151  0.2877 -0.4423 -0.1436
13698TIP3    H162585   3.199   6.152   0.080  0.2191  0.6045  0.3421
13698TIP3    H262586   3.152   6.179   0.222  0.6037 -1.5998  0.9283
13699TIP3   OH262587   2.960   6.349  12.523 -0.4173  0.3700 -0.5772
13699TIP3    H162588   2.868   6.336  12.544  0.0374 -3.3292 -0.0736
13699TIP3    H262589   2.998   6.384  12.604 -0.6109 -3.1861  1.2601
13700TIP3   OH262590   0.151   6.020  13.891  0.1157  0.0267  0.1318
13700TIP3    H162591   0.192   6.030  13.977 -0.0649  0.7099  0.1428
13700TIP3    H262592   0.216   6.053  13.830 -0.4431  1.2622  0.1607
13701TIP3   OH262593   0.287   2.382   4.528 -0.7191 -0.0083  0.5382
13701TIP3    H162594   0.241   2.298   4.522  1.3919 -1.1643 -0.7067
13701TIP3    H262595   0.245   2.436   4.461  0.0378 -1.2370 -1.0111
13702TIP3   OH262596   2.029   5.265  13.165 -0.6238  0.0679 -0.3767
13702TIP3    H162597   2.120   5.257  13.192 -0.7673 -0.3296  0.0054
13702TIP3    H262598   2.031   5.254  13.069 -0.1736  0.9736 -0.4822
13703TIP3   OH262599   0.873   4.834  16.537  0.2481  0.1778 -0.0043
13703TIP3    H162600   0.893   4.910  16.482  0.2584 -0.1295 -0.4376
13703TIP3    H262601   0.945   4.830  16.600  0.4076  0.3537 -0.1726
13704TIP3   OH262602   2.141   6.006  14.751 -0.2840  0.0823 -0.5705
13704TIP3    H162603   2.136   5.998  14.846  1.0581  0.2250 -0.4745
13704TIP3    H262604   2.164   6.097  14.735 -0.1646 -0.0234 -1.0135
13705TIP3   OH262605   4.103   3.532   4.761  1.0617 -0.3516 -0.0302
13705TIP3    H162606   4.052   3.518   4.841  2.1392 -1.0227  0.5556
13705TIP3    H262607   4.037   3.552   4.694  0.1358  0.1655  0.9951
13706TIP3   OH262608   1.310   3.382   1.360 -0.5317 -0.1213  0.1325
13706TIP3    H162609   1.267   3.341   1.285  0.6683  0.4671 -0.9111
13706TIP3    H262610   1.394   3.412   1.327  0.4169 -0.6257  1.9429
13707TIP3   OH262611   0.070   3.120  13.681  0.1368  0.6907  0.5260
13707TIP3    H162612  -0.009   3.067  13.692  0.6233  0.1076  1.3098
13707TIP3    H262613   0.134   3.061  13.642  1.0706  0.2828  2.5397
13708TIP3   OH262614   4.299   1.828   3.331  0.9871 -0.1493  0.0233
13708TIP3    H162615   4.393   1.810   3.343  1.2772  0.5982 -0.9870
13708TIP3    H262616   4.255   1.760   3.382  2.0720 -1.2720 -0.4764
13709TIP3   OH262617   6.458   4.509   2.941  0.2434  0.4506 -0.4570
13709TIP3    H162618   6.396   4.446   2.906 -1.4174  0.4887  2.1399
13709TIP3    H262619   6.534   4.457   2.967  0.7723  0.2043 -2.3622
13710TIP3   OH262620   6.440   3.585  12.809  0.5622 -0.9363  0.1403
13710TIP3    H162621   6.422   3.591  12.903  2.2302 -0.6958  0.4863
13710TIP3    H262622   6.425   3.673  12.775  1.7620 -0.5415  0.5718
13711TIP3   OH262623   2.268   6.311  11.446 -0.4824 -0.0002  0.4878
13711TIP3    H162624   2.298   6.401  11.429 -1.4847  0.1523 -0.6041
13711TIP3    H262625   2.280   6.300  11.540  3.3345 -0.1162  0.1480
13712TIP3   OH262626   0.098   1.490   3.902  0.3129  0.5543  0.1690
13712TIP3    H162627   0.175   1.535   3.937  0.2346 -0.2986  1.5065
13712TIP3    H262628   0.084   1.417   3.962 -0.6852 -0.1437 -0.8819
13713TIP3   OH262629   0.121   4.254  15.547 -0.1509 -0.0875 -0.4727
13713TIP3    H162630   0.186   4.290  15.487  0.4113 -1.2806 -0.6023
13713TIP3    H262631   0.167   4.186  15.595 -0.8374  0.2404  0.7024
13714TIP3   OH262632   5.343   5.914  15.744 -0.2690 -0.0892  0.1617
13714TIP3    H162633   5.371   5.960  15.823 -0.4376  0.9924 -0.3858
13714TIP3    H262634   5.248   5.925  15.743 -0.3387 -0.6872  0.1646
13715TIP3   OH262635   0.159   2.284   3.217 -0.4577  0.1201 -0.2199
13715TIP3    H162636   0.125   2.234   3.142  0.2939  0.9036 -1.1157
13715TIP3    H262637   0.164   2.220   3.288  0.2616 -1.0497 -1.2760
13716TIP3   OH262638   6.498   3.591   6.220  0.1288  0.8478 -0.0408
13716TIP3    H162639   6.511   3.506   6.263  0.6474  1.0751  0.2702
13716TIP3    H262640   6.481   3.569   6.128 -0.8237  0.3622  0.2357
13717TIP3   OH262641   3.596   6.588  14.618 -0.1387  0.1097 -0.0825
13717TIP3    H162642   3.671   6.616  14.670 -0.0433 -0.5600  0.1509
13717TIP3    H262643   3.537   6.663  14.618  0.4031  0.5460 -0.0377
13718TIP3   OH262644   0.711   1.465   5.965  0.4855  0.3200 -0.0782
13718TIP3    H162645   0.739   1.473   5.874  1.4308 -2.5859 -0.1474
13718TIP3    H262646   0.735   1.548   6.005  0.4154  1.5237 -2.3450
13719TIP3   OH262647   1.225   1.280   1.042 -0.5409 -0.5519  0.4575
13719TIP3    H162648   1.302   1.292   1.099  0.1346 -1.8853 -0.1231
13719TIP3    H262649   1.261   1.247   0.960 -1.7378 -1.1513  0.1501
13720TIP3   OH262650   1.312   3.895  16.603 -0.7726 -0.4184 -0.6938
13720TIP3    H162651   1.363   3.953  16.546 -1.0935  1.6241  0.9827
13720TIP3    H262652   1.229   3.941  16.616 -1.2737 -1.5296  0.2720
13721TIP3   OH262653   3.074   3.412  16.490  0.4177 -0.2159 -0.2049
13721TIP3    H162654   2.999   3.446  16.441  0.1587  1.6624  1.3681
13721TIP3    H262655   3.150   3.450  16.446  0.3078 -0.1359 -0.3283
13722TIP3   OH262656   6.047   3.033   0.179  0.8149 -0.1366 -0.2231
13722TIP3    H162657   6.112   2.968   0.155  1.8309  0.1180  1.6635
13722TIP3    H262658   5.963   2.988   0.169  1.3599 -1.0241 -0.9938
13723TIP3   OH262659   5.883   1.718   6.292  0.0033  0.0448 -0.3465
13723TIP3    H162660   5.961   1.716   6.347  0.9198  0.5301 -1.5950
13723TIP3    H262661   5.810   1.706   6.354  1.0360 -0.2655  0.8559
13724TIP3   OH262662   6.361   1.808   0.204  0.0399 -0.2951 -0.8269
13724TIP3    H162663   6.283   1.847   0.244 -0.0424 -1.4326  0.1934
13724TIP3    H262664   6.343   1.714   0.207  2.0876 -0.6866  0.7968
13725TIP3   OH262665   3.369   2.147   1.355  0.0965  0.2364 -0.2794
13725TIP3    H162666   3.314   2.155   1.433 -1.4600 -0.8467 -1.2050
13725TIP3    H262667   3.449   2.195   1.377 -0.6754  0.7543  1.6155
13726TIP3   OH262668   0.284   4.173  16.255 -0.3524  0.3109 -0.4661
13726TIP3    H162669   0.191   4.191  16.243 -1.4611 -3.8626  0.4671
13726TIP3    H262670   0.308   4.225  16.332 -1.8430  1.4626 -0.7196
13727TIP3   OH262671   2.394   3.723  11.182 -0.4881 -0.4087  0.2505
13727TIP3    H162672   2.471   3.755  11.134 -1.5495  0.0811 -1.2116
13727TIP3    H262673   2.322   3.733  11.120 -1.7639 -0.7358  1.6259
13728TIP3   OH262674   1.948   0.139  11.269  0.6116  0.1428  0.7954
13728TIP3    H162675   1.926   0.226  11.303  0.5718  0.3697  0.2171
13728TIP3    H262676   1.889   0.128  11.194  0.9473 -0.1831  0.5799
13729TIP3   OH262677   4.043   6.611   5.601  0.5428 -0.0311  0.5908
13729TIP3    H162678   4.003   6.698   5.608 -0.2024 -0.2740 -0.5037
13729TIP3    H262679   3.971   6.554   5.576  1.5010 -0.5386 -1.1436
13730TIP3   OH262680   0.966   3.230  12.395  0.6885 -0.3980  0.3243
13730TIP3    H162681   0.884   3.279  12.405 -0.1652 -1.4394 -1.1696
13730TIP3    H262682   1.030   3.296  12.367 -0.9526 -0.3179 -3.9337
13731TIP3   OH262683   6.771   5.150  14.157 -0.3827  0.1179  0.0613
13731TIP3    H162684   6.790   5.133  14.064 -0.3056  0.9901 -0.0897
13731TIP3    H262685   6.829   5.090  14.204 -1.2654 -1.1922 -0.4529
13732TIP3   OH262686   1.198   2.648  11.583  0.1857  0.0185 -0.5958
13732TIP3    H162687   1.259   2.596  11.634  0.1203 -0.4163 -0.9564
13732TIP3    H262688   1.111   2.615  11.608 -0.0898  2.0489  1.5378
13733TIP3   OH262689   2.330   3.624   1.897 -0.4386 -0.1977  0.0354
13733TIP3    H162690   2.422   3.625   1.870 -0.2518 -3.9681 -0.0478
13733TIP3    H262691   2.290   3.558   1.841 -3.0054  0.6085  0.7832
13734TIP3   OH262692   1.577   2.051  13.462 -0.7691 -0.1074 -0.3761
13734TIP3    H162693   1.595   2.128  13.516 -1.6261  0.1909 -0.4911
13734TIP3    H262694   1.663   2.019  13.435 -0.4165  1.2876 -0.9881
13735TIP3   OH262695   2.673   5.877   5.860  0.2690 -0.0492  0.0972
13735TIP3    H162696   2.703   5.809   5.799 -0.4357  1.1895 -1.7135
13735TIP3    H262697   2.753   5.908   5.902  0.7160 -1.2704  0.2103
13736TIP3   OH262698   3.617   6.551  16.189  0.3793  0.2064  0.2557
13736TIP3    H162699   3.666   6.513  16.116 -1.1082 -0.2651 -0.5511
13736TIP3    H262700   3.629   6.489  16.261  1.8880  0.6894  0.4497
13737TIP3   OH262701   1.214   3.926   4.021  0.3600  0.4637  0.2233
13737TIP3    H162702   1.186   3.884   3.940  1.5516 -0.1346  0.0974
13737TIP3    H262703   1.148   3.993   4.038  0.3145  0.8714 -1.4529
13738TIP3   OH262704   5.120   6.752  14.159  0.5259  0.1169  1.1215
13738TIP3    H162705   5.212   6.744  14.132  0.6892  0.4056  1.5694
13738TIP3    H262706   5.118   6.714  14.247 -0.0920 -1.2565  0.5443
13739TIP3   OH262707   0.429   2.647   0.282  0.0034 -0.0589  0.4847
13739TIP3    H162708   0.346   2.695   0.287  0.8534  1.3851  2.6323
13739TIP3    H262709   0.406   2.557   0.302 -1.1419  0.1851  0.3498
13740TIP3   OH262710   6.412   1.923   1.086  0.1243 -0.2875 -0.1269
13740TIP3    H162711   6.408   1.845   1.142  0.0174  0.8407  1.5107
13740TIP3    H262712   6.504   1.929   1.059 -0.2524 -2.1637 -2.1165
13741TIP3   OH262713   3.170   3.828   1.863  0.3154 -0.2712  0.5815
13741TIP3    H162714   3.154   3.748   1.913  1.0265  0.5553  2.1800
13741TIP3    H262715   3.196   3.893   1.928 -0.7070  1.4164 -0.6257
13742TIP3   OH262716   1.722   1.572   3.010 -0.5485  0.2098  0.6877
13742TIP3    H162717   1.695   1.486   2.979  1.3383 -0.0575 -0.3941
13742TIP3    H262718   1.776   1.554   3.087 -0.4299  0.4273  0.6564
13743TIP3   OH262719   4.770   0.081  14.849 -0.0342  0.3815  0.0251
13743TIP3    H162720   4.798  -0.007  14.875 -0.5174  0.2118 -0.0222
13743TIP3    H262721   4.839   0.111  14.790 -1.3672 -1.2343 -2.5297
13744TIP3   OH262722   4.661   1.138   0.383 -0.4218 -0.1562 -0.2165
13744TIP3    H162723   4.647   1.158   0.476  0.6639 -0.0546 -0.0545
13744TIP3    H262724   4.689   1.047   0.382 -1.4295 -0.4719 -0.5574
13745TIP3   OH262725   0.762   6.345  16.066 -0.0687  0.4203 -0.1045
13745TIP3    H162726   0.669   6.358  16.046 -0.2821 -0.5888  0.2035
13745TIP3    H262727   0.768   6.255  16.096  1.3544 -0.2804 -2.2262
13746TIP3   OH262728   6.435   2.549  12.296 -0.2007  0.0434 -0.4550
13746TIP3    H162729   6.341   2.559  12.306 -0.1139 -0.5510  1.2843
13746TIP3    H262730   6.473   2.616  12.352  0.4589  1.2889 -2.3137
13747TIP3   OH262731   4.593   6.008   4.163  0.5417  0.5783  0.6461
13747TIP3    H162732   4.529   5.937   4.159 -1.2133  2.1500 -0.9084
13747TIP3    H262733   4.547   6.084   4.126  2.2313  2.6191  2.4515
13748TIP3   OH262734   2.325   1.544   5.812  0.6405  0.3914 -0.4831
13748TIP3    H162735   2.342   1.452   5.792  0.3728  0.3162 -0.3799
13748TIP3    H262736   2.318   1.586   5.727 -0.4488  0.0834 -0.5705
13749TIP3   OH262737   0.549   6.588  14.879  0.0164  0.1560  0.4712
13749TIP3    H162738   0.511   6.625  14.800 -1.1279  0.6745  1.2292
13749TIP3    H262739   0.618   6.530  14.848 -0.6510  0.0619 -0.9154
13750TIP3   OH262740   6.217   2.466   0.033  0.2444 -0.2483 -0.1366
13750TIP3    H162741   6.220   2.532   0.101  1.4362 -0.6155  0.1836
13750TIP3    H262742   6.307   2.434   0.025 -0.0194 -0.7755 -1.3218
13751TIP3   OH262743   0.536   6.259  15.830 -0.1825 -0.0839  0.0382
13751TIP3    H162744   0.496   6.203  15.763  0.1488 -1.0157  0.6024
13751TIP3    H262745   0.605   6.204  15.869  0.6166  0.9504  0.1376
13752TIP3   OH262746   0.274   2.167  13.018 -0.7052 -0.3641 -0.3974
13752TIP3    H162747   0.331   2.226  12.968  0.3868 -0.9211  0.1404
13752TIP3    H262748   0.318   2.158  13.103 -2.4061  0.4108  0.6286
13753TIP3   OH262749   0.217   5.683   0.563  0.5562 -0.0002 -0.1146
13753TIP3    H162750   0.133   5.636   0.561  0.8129 -0.4641 -0.6282
13753TIP3    H262751   0.233   5.705   0.471  0.2658  1.4348  0.1680
13754TIP3   OH262752   5.826   1.927  14.747 -0.3164  0.3267  0.0555
13754TIP3    H162753   5.897   1.948  14.687 -0.1751  0.6702  0.3384
13754TIP3    H262754   5.870   1.904  14.829 -0.4863 -0.5554 -0.0820
13755TIP3   OH262755   2.786   0.430   3.908  0.3694  0.0961 -0.3222
13755TIP3    H162756   2.736   0.349   3.924 -0.8328  0.8247 -0.2567
13755TIP3    H262757   2.766   0.452   3.817 -0.1064  0.8337 -0.0482
13756TIP3   OH262758   5.262   1.129  13.604  0.5305 -0.3954 -0.2584
13756TIP3    H162759   5.229   1.185  13.674  1.4596 -0.0722 -0.0673
13756TIP3    H262760   5.201   1.143  13.531 -0.8623 -1.2775  0.6903
13757TIP3   OH262761   1.080   4.940   4.890 -0.2570 -0.7005  0.4930
13757TIP3    H162762   1.071   5.022   4.937  2.6502 -0.3026  0.5309
13757TIP3    H262763   1.083   4.966   4.798  1.8339 -0.5406  0.5539
13758TIP3   OH262764   0.354   5.961   1.994 -0.4239  0.3265 -0.0461
13758TIP3    H162765   0.273   5.985   2.039  0.1611 -1.6213  2.2575
13758TIP3    H262766   0.328   5.889   1.937 -0.8380  1.7012 -1.6677
13759TIP3   OH262767   5.783   5.342   4.171  0.3511 -0.1760 -0.0441
13759TIP3    H162768   5.795   5.310   4.261  1.1580 -0.2562 -0.1691
13759TIP3    H262769   5.776   5.437   4.181  0.8549 -0.1484  0.0700
13760TIP3   OH262770   0.432   0.361   1.315  0.3995  0.3830 -0.4079
13760TIP3    H162771   0.513   0.384   1.270  0.6887  0.8850  0.3334
13760TIP3    H262772   0.444   0.395   1.404 -1.3154  1.9894 -0.7341
13761TIP3   OH262773   2.552   3.409  11.057 -0.3100  0.3541 -0.1966
13761TIP3    H162774   2.613   3.364  10.999 -0.6181  0.0921 -0.3220
13761TIP3    H262775   2.497   3.461  10.998  1.9237  3.3103  0.0986
13762TIP3   OH262776   3.745   2.094   0.351 -0.1484  0.5416 -0.0908
13762TIP3    H162777   3.680   2.035   0.315 -0.2072  0.1045  0.7042
13762TIP3    H262778   3.823   2.081   0.296 -0.6710  0.9465 -0.9375
13763TIP3   OH262779   3.084   1.198  15.857  0.1064 -0.0514  0.1060
13763TIP3    H162780   3.086   1.280  15.807  0.0547 -1.4268 -2.3049
13763TIP3    H262781   3.056   1.224  15.944 -0.7867  2.3853 -0.8204
13764TIP3   OH262782   3.470   3.178  14.812  0.4652  0.1258 -0.0692
13764TIP3    H162783   3.417   3.122  14.755  1.0256  1.0317 -1.5448
13764TIP3    H262784   3.420   3.260  14.817  1.8711  1.1744 -1.8825
13765TIP3   OH262785   5.930   1.233   4.826 -0.0052  0.2213 -0.2503
13765TIP3    H162786   5.959   1.189   4.907  0.7435  0.6701 -0.2657
13765TIP3    H262787   5.840   1.259   4.844  0.0020 -0.0931  0.2697
13766TIP3   OH262788   4.975   2.646  15.219  0.0055  0.6515 -0.2827
13766TIP3    H162789   5.036   2.719  15.207 -0.3205  1.4259  2.2341
13766TIP3    H262790   4.903   2.665  15.159 -0.1346  2.5130  0.4014
13767TIP3   OH262791   0.115   4.490  15.698  0.0588 -0.2445  0.3957
13767TIP3    H162792   0.121   4.402  15.662  0.3099 -0.5458  1.1431
13767TIP3    H262793   0.175   4.542  15.644 -0.9664 -0.2519 -0.7904
13768TIP3   OH262794   6.364   2.467  13.276  0.1646  0.0235 -0.3011
13768TIP3    H162795   6.424   2.542  13.271  0.7650 -0.3671  0.7915
13768TIP3    H262796   6.342   2.460  13.368 -1.3156 -0.0624 -0.6345
13769TIP3   OH262797   1.401   3.829  12.252 -0.4072 -0.2012 -0.3287
13769TIP3    H162798   1.458   3.814  12.328 -0.9220 -0.6582 -0.0288
13769TIP3    H262799   1.318   3.859  12.289 -0.0800  1.4082 -0.8145
13770TIP3   OH262800   2.388   4.421  16.614 -0.1323 -0.9827 -0.5916
13770TIP3    H162801   2.467   4.475  16.624 -0.6544 -0.2408 -0.3677
13770TIP3    H262802   2.400   4.349  16.675  0.2954 -0.7811 -0.4308
13771TIP3   OH262803   3.879   0.070  16.888  0.5007 -0.2426  0.5109
13771TIP3    H162804   3.827  -0.008  16.907  2.5591 -1.6615  0.5893
13771TIP3    H262805   3.852   0.134  16.955 -1.7795 -0.5440 -0.0303
13772TIP3   OH262806   2.963   5.833  13.517 -0.8813  0.5868 -0.8346
13772TIP3    H162807   2.916   5.915  13.509 -1.3194  0.3087 -1.1377
13772TIP3    H262808   3.056   5.858  13.518 -0.9242  0.9376 -2.9128
13773TIP3   OH262809   1.072   2.223   4.869  0.2070  0.3009 -0.4453
13773TIP3    H162810   1.143   2.240   4.807  1.1132 -0.2537  0.3980
13773TIP3    H262811   1.079   2.129   4.888 -0.2709  0.3939  0.2310
13774TIP3   OH262812   6.049   6.483  11.913  0.2834  0.5988  0.2958
13774TIP3    H162813   6.020   6.572  11.897  1.0527  0.9430  0.7634
13774TIP3    H262814   6.140   6.492  11.942  0.5663 -0.3758 -0.2293
13775TIP3   OH262815   4.619   1.159   1.816  0.5135  0.1180 -0.3432
13775TIP3    H162816   4.605   1.254   1.814 -1.7480 -0.0612  1.6940
13775TIP3    H262817   4.553   1.124   1.757 -1.2683 -0.2890  1.7654
13776TIP3   OH262818   5.319   5.297  12.025 -0.3439 -0.1969 -0.3378
13776TIP3    H162819   5.280   5.211  12.010 -1.7038  0.0980  1.2878
13776TIP3    H262820   5.245   5.356  12.036  0.5583  0.7637  0.8146
13777TIP3   OH262821   3.770   4.439   1.958  0.0570  0.3968 -0.1565
13777TIP3    H162822   3.687   4.454   1.913  0.8196  1.1779 -1.3527
13777TIP3    H262823   3.766   4.494   2.036 -0.3372  0.8069 -0.4690
13778TIP3   OH262824   2.189   0.518   6.238  0.5882 -0.3381  0.3420
13778TIP3    H162825   2.163   0.610   6.234  1.6561 -0.0673 -1.4520
13778TIP3    H262826   2.108   0.471   6.258 -1.0705  0.6126 -3.2497
13779TIP3   OH262827   5.524   6.419  16.661 -0.7848  0.0729  0.4126
13779TIP3    H162828   5.488   6.411  16.750  1.9353 -3.0938  1.4198
13779TIP3    H262829   5.594   6.483  16.669 -0.5124 -0.2417  0.6213
13780TIP3   OH262830   2.821   4.539  16.093  0.3389  0.5749  0.3139
13780TIP3    H162831   2.873   4.464  16.121  1.0487 -0.0593 -2.4418
13780TIP3    H262832   2.886   4.603  16.062 -0.3874  0.8933 -0.5923
13781TIP3   OH262833   4.536   5.542  14.068 -0.7176  0.2591 -0.0317
13781TIP3    H162834   4.465   5.599  14.039 -0.2221  0.5066 -0.7756
13781TIP3    H262835   4.516   5.524  14.160 -1.0866  1.3200  0.1073
13782TIP3   OH262836   1.986   5.993   4.827  0.2565  0.3502  0.0066
13782TIP3    H162837   1.992   6.088   4.822 -0.9310  0.4780  0.5555
13782TIP3    H262838   1.906   5.971   4.780  0.6056 -0.4055 -0.2644
13783TIP3   OH262839   0.244   4.826   0.930 -0.1384  0.3340 -0.1235
13783TIP3    H162840   0.288   4.789   1.006 -0.6261 -1.0675 -0.4876
13783TIP3    H262841   0.151   4.807   0.945 -0.1027 -1.4531 -1.7993
13784TIP3   OH262842   6.645   4.013   1.061  0.2787  0.0348 -0.3736
13784TIP3    H162843   6.694   4.095   1.060 -1.0526  0.8550 -0.8299
13784TIP3    H262844   6.601   4.010   0.976  1.8679 -2.1696 -1.2273
13785TIP3   OH262845   6.048   6.294  11.186 -0.3781  0.0918  0.5523
13785TIP3    H162846   6.103   6.369  11.208 -0.0551  0.1099 -0.2491
13785TIP3    H262847   6.063   6.281  11.092  0.4828 -1.6988  0.8931
13786TIP3   OH262848   4.016   1.369   4.783 -0.2864  0.3375 -0.2781
13786TIP3    H162849   3.984   1.400   4.868 -0.9251  0.5929 -0.6120
13786TIP3    H262850   4.031   1.449   4.732  1.6869  0.2865  0.1406
13787TIP3   OH262851   1.405   0.777   2.533 -0.5011 -0.6891  0.2034
13787TIP3    H162852   1.330   0.719   2.522 -1.1785  0.4747 -1.7294
13787TIP3    H262853   1.461   0.759   2.458  0.3340 -0.3258  0.7183
13788TIP3   OH262854   0.792   5.738  13.991 -0.1421 -0.1327 -0.0546
13788TIP3    H162855   0.818   5.709  14.078  1.7132 -0.5850 -0.7164
13788TIP3    H262856   0.757   5.659  13.948  1.1884 -0.5079 -0.5016
13789TIP3   OH262857   5.157   5.768  12.279  0.1350 -0.1254  0.1604
13789TIP3    H162858   5.202   5.832  12.224 -1.0818  0.8149  0.1865
13789TIP3    H262859   5.065   5.778  12.256 -0.0563 -2.2256 -0.1465
13790TIP3   OH262860   3.298   3.570   1.384 -0.1528  0.1350  0.2917
13790TIP3    H162861   3.349   3.612   1.315 -0.6063  0.1693 -0.0295
13790TIP3    H262862   3.217   3.543   1.340 -0.6079  0.4947  0.8990
13791TIP3   OH262863   3.922   5.791  14.134 -0.4210  0.0626 -0.0292
13791TIP3    H162864   4.012   5.823  14.133 -1.0125  1.8884 -2.0114
13791TIP3    H262865   3.889   5.816  14.220  1.5343 -2.6882  1.7048
13792TIP3   OH262866   3.902   6.405   5.294  0.1423 -1.1937  0.1363
13792TIP3    H162867   3.928   6.338   5.230 -2.6924 -1.9376 -0.3801
13792TIP3    H262868   3.930   6.488   5.254 -1.1754 -1.6660 -1.9230
13793TIP3   OH262869   6.582   5.704   1.138 -0.1687  0.3273 -0.2696
13793TIP3    H162870   6.545   5.668   1.057  0.4207  1.8155 -1.2436
13793TIP3    H262871   6.560   5.797   1.135  0.0171  0.4396  1.2160
13794TIP3   OH262872   1.029   5.379  10.855 -0.7869 -0.0338  0.5929
13794TIP3    H162873   0.950   5.331  10.828 -0.7187  0.6909 -1.0074
13794TIP3    H262874   1.084   5.380  10.776  0.7310 -0.2968  1.6033
13795TIP3   OH262875   3.980   2.860  12.003 -0.1644  0.3517 -0.2436
13795TIP3    H162876   3.959   2.869  11.910 -0.8128 -1.3467 -0.2928
13795TIP3    H262877   3.905   2.813  12.040 -0.1380  1.4166  1.2491
13796TIP3   OH262878   0.009   3.809  16.378 -0.3194 -0.1174 -0.0449
13796TIP3    H162879  -0.074   3.763  16.364 -0.3312 -0.0617 -0.1619
13796TIP3    H262880   0.013   3.823  16.472 -0.0197 -0.9019  0.0641
13797TIP3   OH262881   5.787   6.240   2.518  0.5035  0.4300  0.4935
13797TIP3    H162882   5.764   6.321   2.473 -2.0435  0.8233  2.2909
13797TIP3    H262883   5.747   6.170   2.466 -0.3614  0.6689  0.8236
13798TIP3   OH262884   2.375   4.618  14.908 -0.2193  0.7868 -0.3136
13798TIP3    H162885   2.291   4.572  14.910  0.4748 -0.7081  3.4312
13798TIP3    H262886   2.420   4.581  14.833 -1.1402 -2.0442  0.3908
13799TIP3   OH262887   5.008   2.357   1.148  0.1977 -0.1997 -0.9279
13799TIP3    H162888   4.918   2.327   1.163  0.2419  1.0533  2.7757
13799TIP3    H262889   4.998   2.444   1.109 -0.4591  1.2320  2.1054
13800TIP3   OH262890   2.851   0.350   2.013 -0.8090  0.6405 -0.2856
13800TIP3    H162891   2.767   0.312   1.989 -0.9594  1.2281 -0.6875
13800TIP3    H262892   2.912   0.317   1.946 -1.0451  1.5239 -0.9499
13801TIP3   OH262893   1.439   0.973  12.964  0.1430 -0.0748  0.0344
13801TIP3    H162894   1.365   1.020  13.003  0.6879 -0.6197  1.8212
13801TIP3    H262895   1.488   0.940  13.039  1.5551 -0.7319 -1.1428
13802TIP3   OH262896   6.840   1.454  16.192  0.1256 -0.6490  0.4966
13802TIP3    H162897   6.819   1.523  16.129 -0.3936 -0.3568  0.9690
13802TIP3    H262898   6.876   1.383  16.140  0.2103 -0.2041 -0.0578
13803TIP3   OH262899   1.395   3.962   2.246 -0.2410  0.4859 -0.1191
13803TIP3    H162900   1.487   3.972   2.221 -0.0497 -1.2803 -0.2324
13803TIP3    H262901   1.353   4.042   2.215  1.2450  1.3046 -0.0988
13804TIP3   OH262902   2.214   0.601  12.920  0.2912 -0.2794  0.4610
13804TIP3    H162903   2.149   0.553  12.971 -1.3341  0.7495 -0.5559
13804TIP3    H262904   2.193   0.581  12.829  2.3295 -1.0600  0.1134
13805TIP3   OH262905   3.571   1.175   5.337  0.5698  0.5834 -0.4760
13805TIP3    H162906   3.491   1.218   5.369  0.6240  1.8164 -1.8744
13805TIP3    H262907   3.606   1.131   5.414 -1.1234  0.5315  0.3218
13806TIP3   OH262908   0.570   3.453  15.838  0.6736 -0.2955  0.4335
13806TIP3    H162909   0.580   3.394  15.763  1.6074 -2.4599  2.1698
13806TIP3    H262910   0.481   3.437  15.870  0.8875 -0.6872  0.8366
13807TIP3   OH262911   2.395   3.105  10.547 -0.1162  0.2369 -0.4278
13807TIP3    H162912   2.393   3.009  10.546  0.9912  0.1937 -1.8306
13807TIP3    H262913   2.483   3.127  10.517 -1.4593  1.6843 -3.8496
13808TIP3   OH262914   6.678   6.420   0.716  0.5246  0.5565 -0.4801
13808TIP3    H162915   6.702   6.396   0.627  0.7242  2.2632 -0.9316
13808TIP3    H262916   6.761   6.422   0.763  0.2190 -2.7179  0.4669
13809TIP3   OH262917   1.399   3.598   3.758 -0.2160  0.1090  0.1032
13809TIP3    H162918   1.354   3.682   3.767 -1.4553 -0.3790 -1.1787
13809TIP3    H262919   1.434   3.599   3.669 -0.3636 -0.7979  0.0285
13810TIP3   OH262920   4.892   6.490   3.320  0.5379 -0.0902  0.0501
13810TIP3    H162921   4.886   6.577   3.359 -0.3304 -0.1641  0.1047
13810TIP3    H262922   4.900   6.431   3.395 -0.6453 -0.1922  0.1156
13811TIP3   OH262923   4.190   5.947  10.900 -0.2726  0.3909  0.6342
13811TIP3    H162924   4.213   5.905  10.983  1.2304  2.1381  1.1869
13811TIP3    H262925   4.252   5.911  10.837 -1.5790 -1.1301  0.1388
13812TIP3   OH262926   0.289   3.721  10.563  0.1141 -0.0790 -0.2268
13812TIP3    H162927   0.287   3.734  10.468 -0.9130  2.1376  0.0111
13812TIP3    H262928   0.197   3.723  10.589  0.4193  0.2905  0.8868
13813TIP3   OH262929   5.029   4.393   2.294 -0.2985 -0.3631  0.5868
13813TIP3    H162930   4.956   4.361   2.346 -2.0454  0.2161 -1.3426
13813TIP3    H262931   5.041   4.327   2.226 -1.4149  1.1040 -1.1582
13814TIP3   OH262932   4.715   6.023   3.582  0.9025 -0.0204  0.5151
13814TIP3    H162933   4.715   6.016   3.677  0.8154  0.3127  0.5410
13814TIP3    H262934   4.640   6.078   3.561 -0.2412 -1.6796  0.1188
13815TIP3   OH262935   5.268   0.353   1.022  0.1742  0.1564  0.5706
13815TIP3    H162936   5.349   0.310   0.997 -0.1511 -0.0339 -0.2093
13815TIP3    H262937   5.223   0.289   1.078  1.3064  0.9309  2.4646
13816TIP3   OH262938   2.008   6.561  16.640  0.1188  0.5476  0.3454
13816TIP3    H162939   1.942   6.553  16.572  0.9986  0.6949 -0.5430
13816TIP3    H262940   2.015   6.473  16.678 -1.7336  0.8734  1.5871
13817TIP3   OH262941   1.293   5.097  13.014 -0.4705 -0.0736 -0.3989
13817TIP3    H162942   1.251   5.154  12.950  1.5648  2.2554  0.2126
13817TIP3    H262943   1.387   5.107  12.998  0.0287 -1.1585  1.5159
13818TIP3   OH262944   6.687   1.934   5.837  0.0141  0.4575  0.2903
13818TIP3    H162945   6.778   1.920   5.860 -0.3689 -1.2496  0.8993
13818TIP3    H262946   6.672   2.028   5.853  1.6823  0.7910  0.0038
13819TIP3   OH262947   1.896   0.149  11.724  0.0511  0.1994 -0.1351
13819TIP3    H162948   1.980   0.193  11.711 -0.2704  0.9108  0.1545
13819TIP3    H262949   1.832   0.204  11.679 -0.4067  0.2369  0.5419
13820TIP3   OH262950   0.640   5.447  13.246  0.1917 -1.0207  0.1330
13820TIP3    H162951   0.714   5.500  13.277  0.7377 -1.6443 -0.0905
13820TIP3    H262952   0.624   5.385  13.317 -0.9347 -0.0868  0.7168
13821TIP3   OH262953   4.752   1.492   4.034 -0.6851 -0.1665 -0.0968
13821TIP3    H162954   4.809   1.531   4.100 -0.3341  0.3587 -0.6976
13821TIP3    H262955   4.696   1.431   4.083 -0.2027 -0.0388  0.6255
13822TIP3   OH262956   3.123   5.119  12.792  0.3798 -0.0821  0.0110
13822TIP3    H162957   3.037   5.077  12.802  0.2757 -0.1498 -1.0868
13822TIP3    H262958   3.118   5.166  12.709  1.1807  0.4834  0.2663
13823TIP3   OH262959   2.662   0.794   4.493 -0.0822 -0.1880 -0.0661
13823TIP3    H162960   2.757   0.804   4.489  0.1466 -1.0088  1.8496
13823TIP3    H262961   2.647   0.702   4.468 -0.4059  0.0362 -0.6999
13824TIP3   OH262962   6.031   5.925  14.720 -0.4729  0.0341  0.5439
13824TIP3    H162963   5.938   5.935  14.744 -0.8003 -0.5582 -0.4078
13824TIP3    H262964   6.062   5.853  14.775 -0.9912 -0.7572 -0.1660
13825TIP3   OH262965   6.592   2.907  15.966 -0.0535  0.4558 -0.2333
13825TIP3    H162966   6.587   2.818  15.930 -2.3670 -0.0185  1.0458
13825TIP3    H262967   6.560   2.962  15.895  2.3999  0.4745 -1.4208
13826TIP3   OH262968   6.445   0.965  13.295 -0.0855  0.0297  0.7168
13826TIP3    H162969   6.479   0.914  13.368  0.6943 -1.6845 -0.7694
13826TIP3    H262970   6.437   0.902  13.223 -2.0944  1.3601 -0.3225
13827TIP3   OH262971   0.128   0.813  14.204 -0.1339 -0.2341  0.1836
13827TIP3    H162972   0.135   0.906  14.183  0.9531 -0.3491 -0.0192
13827TIP3    H262973   0.035   0.799  14.222 -0.4608  0.6888 -0.7265
13828TIP3   OH262974   4.093   5.208  13.796  0.4142  0.8751  0.0312
13828TIP3    H162975   4.110   5.125  13.751 -1.2990  0.0836  0.7488
13828TIP3    H262976   4.180   5.241  13.819  1.1682 -0.3066 -0.9708
13829TIP3   OH262977   1.206   2.552  13.339 -0.3807  0.0603 -0.5454
13829TIP3    H162978   1.160   2.569  13.421 -0.6719  1.9560 -1.0470
13829TIP3    H262979   1.237   2.639  13.311 -0.0983 -0.5811 -2.3245
13830TIP3   OH262980   5.195   5.712   3.190  0.0615  0.4667  0.3650
13830TIP3    H162981   5.151   5.777   3.134 -0.8231  0.6198  1.2063
13830TIP3    H262982   5.235   5.651   3.129  1.5442  2.1934 -0.4670
13831TIP3   OH262983   0.106   2.866   1.106 -0.4568 -0.2114  0.0385
13831TIP3    H162984   0.101   2.771   1.116 -0.6911 -0.2680 -0.5655
13831TIP3    H262985   0.157   2.879   1.026  0.2010  0.1898  0.5134
13832TIP3   OH262986   2.090   0.949   1.741 -0.1671  0.4176 -0.3340
13832TIP3    H162987   2.056   1.000   1.815  0.8297  0.7987 -0.1202
13832TIP3    H262988   2.033   0.873   1.736  0.0743  0.0989  1.1862
13833TIP3   OH262989   0.465   6.397  11.406  0.2784  0.4579  0.3186
13833TIP3    H162990   0.405   6.348  11.350  0.7462  1.1330 -0.7900
13833TIP3    H262991   0.441   6.371  11.495 -1.0162 -0.0105 -0.1506
13834TIP3   OH262992   1.723   2.316   0.898  0.2759  0.0190 -0.1923
13834TIP3    H162993   1.803   2.278   0.862 -0.2756 -0.1567 -1.2952
13834TIP3    H262994   1.738   2.410   0.898  0.2856  0.0216 -0.9186
13835TIP3   OH262995   3.015   0.855   5.793  0.2720  0.0793  0.1389
13835TIP3    H162996   3.004   0.844   5.699 -0.0496 -1.0101  0.2805
13835TIP3    H262997   2.928   0.840   5.830  0.1926  1.4288  0.5519
13836TIP3   OH262998   2.817   5.962   2.943  0.7121 -0.3158 -0.4412
13836TIP3    H162999   2.823   5.867   2.931  2.1152 -0.4087  0.7618
13836TIP3    H263000   2.862   5.979   3.026  0.7585  1.4343 -0.7854
13837TIP3   OH263001   3.187   5.211   5.023  0.4156 -0.4680 -0.2113
13837TIP3    H163002   3.153   5.288   5.070 -0.6644  0.5087 -2.4517
13837TIP3    H263003   3.203   5.243   4.934  0.6591 -2.6848 -1.0153
13838TIP3   OH263004   2.620   2.334  14.730 -0.2235  0.1386 -0.0338
13838TIP3    H163005   2.648   2.289  14.650 -1.1662  1.6145 -1.2355
13838TIP3    H263006   2.643   2.273  14.800  0.3008 -1.3609 -1.4398
13839TIP3   OH263007   3.564   4.521   2.787  0.2393 -0.0922 -0.2439
13839TIP3    H163008   3.544   4.561   2.702 -0.9314 -0.9805 -0.4096
13839TIP3    H263009   3.513   4.441   2.788 -2.5464  1.4926  2.6657
13840TIP3   OH263010   3.074   6.201  10.475 -0.2971 -0.5988 -0.4472
13840TIP3    H163011   3.059   6.278  10.420 -0.2142 -1.2455 -1.4195
13840TIP3    H263012   3.160   6.214  10.513 -0.4718 -0.0063 -0.2407
13841TIP3   OH263013   4.405   1.761  11.768  0.1439  0.9396  0.4875
13841TIP3    H163014   4.310   1.755  11.761  0.2063 -1.3269  0.7498
13841TIP3    H263015   4.421   1.811  11.848 -0.7575  3.1127 -0.6113
13842TIP3   OH263016   4.893   5.190   3.630  0.6452 -0.1705 -0.3767
13842TIP3    H163017   4.983   5.197   3.659  0.2892  0.6408  0.5915
13842TIP3    H263018   4.897   5.204   3.535  1.3274  2.0206 -0.0850
13843TIP3   OH263019   1.680   2.734   4.690 -0.6730  0.2959 -0.2205
13843TIP3    H163020   1.644   2.799   4.629  0.3345  0.8021 -0.2942
13843TIP3    H263021   1.745   2.686   4.639  0.0930  0.6429  0.4011
13844TIP3   OH263022   5.685   5.651   3.129 -0.1410 -0.1098  0.5215
13844TIP3    H163023   5.722   5.690   3.209 -1.5169 -0.4926  1.3835
13844TIP3    H263024   5.622   5.716   3.098  0.0125 -0.1913  0.0329
13845TIP3   OH263025   5.935   1.336  13.183 -0.0115  0.1693 -0.3255
13845TIP3    H163026   5.846   1.307  13.162 -0.5548  2.2789 -1.1964
13845TIP3    H263027   5.939   1.426  13.151  2.1806  0.4136  0.4689
13846TIP3   OH263028   4.355   5.244   1.539  0.3970 -0.5959 -0.4197
13846TIP3    H163029   4.310   5.285   1.614  1.1800  0.6303 -0.5885
13846TIP3    H263030   4.313   5.159   1.531 -2.8029  0.8774 -1.2990
13847TIP3   OH263031   3.038   6.735   4.727  0.4619 -0.0391  0.1317
13847TIP3    H163032   3.040   6.651   4.680  1.1043  0.4217 -0.7157
13847TIP3    H263033   2.990   6.793   4.668  0.0945  0.2060  0.6768
13848TIP3   OH263034   3.707   5.573  13.181 -0.4387 -0.0591  0.4008
13848TIP3    H163035   3.704   5.636  13.253  1.0580 -0.7377  1.1006
13848TIP3    H263036   3.729   5.490  13.223  0.4745 -0.4596 -0.8252
13849TIP3   OH263037   5.655   2.569  12.990  0.2526  0.2157 -0.3293
13849TIP3    H163038   5.570   2.552  13.032  0.4208  1.4026  0.5693
13849TIP3    H263039   5.640   2.552  12.897 -1.3607  1.6717 -0.3889
13850TIP3   OH263040   1.424   2.394  14.636  0.1605 -0.7207 -0.1324
13850TIP3    H163041   1.499   2.335  14.639 -0.3929 -1.4375 -0.1563
13850TIP3    H263042   1.363   2.358  14.700  0.2176  0.3920  0.5654
13851TIP3   OH263043   1.446   5.827  14.476 -0.2170  0.2153  0.7196
13851TIP3    H163044   1.438   5.916  14.510  1.1348  1.4627 -1.9603
13851TIP3    H263045   1.540   5.812  14.469 -0.4345 -0.6889 -0.6090
13852TIP3   OH263046   4.990   2.945   3.175 -0.2355 -0.2148  0.1880
13852TIP3    H163047   4.915   2.892   3.146  0.8024 -2.2861  1.0951
13852TIP3    H263048   5.060   2.923   3.114  0.0186  0.7814  0.0955
13853TIP3   OH263049   2.812   2.819  11.915 -0.0910 -0.1618 -0.0818
13853TIP3    H163050   2.719   2.822  11.937  0.2305 -0.6451  1.5174
13853TIP3    H263051   2.834   2.726  11.917  0.0412 -0.2143 -2.3308
13854TIP3   OH263052   2.870   6.116   4.610 -0.0361  0.2131 -0.3910
13854TIP3    H163053   2.844   6.040   4.662 -0.7087  1.3068  0.9367
13854TIP3    H263054   2.892   6.183   4.674  0.0121  1.3232 -1.5237
13855TIP3   OH263055   6.675   4.513  12.738 -0.9552 -0.5575 -0.6801
13855TIP3    H163056   6.676   4.489  12.831 -0.0405 -1.1517 -0.8266
13855TIP3    H263057   6.768   4.514  12.712 -0.9117  2.7868 -0.8273
13856TIP3   OH263058   0.768   1.679   2.049 -0.2739  0.3949  0.0467
13856TIP3    H163059   0.700   1.745   2.061 -1.4625 -0.8957  0.7707
13856TIP3    H263060   0.849   1.729   2.042 -1.2787  1.9920 -0.9157
13857TIP3   OH263061   5.217   0.119  16.167  0.1551 -0.1744  0.4976
13857TIP3    H163062   5.233   0.070  16.248  0.5439  0.6452  0.9361
13857TIP3    H263063   5.210   0.210  16.196  2.2320  0.3974 -0.5839
13858TIP3   OH263064   6.654   5.860  16.936 -0.0567 -0.1469  0.3229
13858TIP3    H163065   6.600   5.929  16.897 -0.4252  0.3667  1.6834
13858TIP3    H263066   6.720   5.841  16.870  0.3032  1.8103  0.0611
13859TIP3   OH263067   0.276   0.439  10.379  0.5625  0.1641 -0.1256
13859TIP3    H163068   0.205   0.503  10.378  2.1385  2.0455  1.5358
13859TIP3    H263069   0.241   0.365  10.428 -1.2542 -0.3222 -1.9941
13860TIP3   OH263070   2.302   5.490  13.107 -0.3171 -0.0248 -0.2604
13860TIP3    H163071   2.388   5.531  13.094 -0.9373  1.1655 -0.7358
13860TIP3    H263072   2.321   5.414  13.162  0.7882  1.3528  1.4117
13861TIP3   OH263073   1.808   1.921  16.176 -0.0302  0.3075 -0.1308
13861TIP3    H163074   1.810   1.892  16.268  0.8563 -1.1542 -0.5768
13861TIP3    H263075   1.779   1.844  16.128 -1.8314  1.4596 -0.9824
13862TIP3   OH263076   4.389   4.316   4.821 -0.2732 -0.4481 -0.8407
13862TIP3    H163077   4.460   4.380   4.818 -0.5594 -0.1079 -0.3419
13862TIP3    H263078   4.349   4.322   4.734  0.5612 -0.9371 -1.2677
13863TIP3   OH263079   2.479   6.255  15.079  0.5698 -0.3632  0.2038
13863TIP3    H163080   2.459   6.221  15.166 -1.4415 -0.2252 -0.1714
13863TIP3    H263081   2.430   6.337  15.073  1.5238  0.1710 -0.6971
13864TIP3   OH263082   4.696   1.878  14.429 -0.5446 -0.0718 -0.1376
13864TIP3    H163083   4.681   1.970  14.407 -0.5129 -0.1069 -0.3103
13864TIP3    H263084   4.672   1.871  14.521 -1.3561 -0.0689 -0.3415
13865TIP3   OH263085   3.821   4.204  14.271  0.0641  0.1259 -0.0446
13865TIP3    H163086   3.845   4.122  14.314 -1.3078 -0.5433 -0.4956
13865TIP3    H263087   3.891   4.219  14.208  1.4980  0.5059  1.5678
13866TIP3   OH263088   6.499   2.480  15.573  0.1646  0.1903 -0.5386
13866TIP3    H163089   6.427   2.474  15.510  0.1842 -0.0986 -0.5352
13866TIP3    H263090   6.457   2.510  15.654 -0.0553 -0.5466 -0.3715
13867TIP3   OH263091   3.186   3.925   5.250  0.0394  0.5414 -0.6419
13867TIP3    H163092   3.148   3.998   5.299  0.7004  0.2493  0.3576
13867TIP3    H263093   3.113   3.889   5.199 -0.5387  1.2240 -0.3163
13868TIP3   OH263094   4.615   5.333  13.905 -0.3304  0.2866 -0.1839
13868TIP3    H163095   4.629   5.377  13.821 -1.3264 -0.4248 -0.7488
13868TIP3    H263096   4.607   5.405  13.968  3.2432  0.7908 -0.1382
13869TIP3   OH263097   6.556   5.179   3.988 -0.3272  0.3453  0.3408
13869TIP3    H163098   6.629   5.237   4.010 -0.8504  1.4249 -0.6447
13869TIP3    H263099   6.489   5.199   4.052 -0.2697  0.3429  0.4020
13870TIP3   OH263100   1.915   5.689  12.423  0.0841  0.1280  0.4194
13870TIP3    H163101   1.884   5.665  12.336  2.2989 -0.8355 -0.1828
13870TIP3    H263102   2.002   5.648  12.430 -0.2532 -0.3257  3.3122
13871TIP3   OH263103   1.099   6.090   6.551 -0.1989  0.6090 -0.3736
13871TIP3    H163104   1.083   5.998   6.572  0.2927  1.1449  2.8661
13871TIP3    H263105   1.188   6.091   6.515 -0.8848 -0.3336 -2.2186
13872TIP3   OH263106   4.384   0.102   1.953 -0.3670 -0.5519  0.1494
13872TIP3    H163107   4.479   0.114   1.943 -0.5207 -0.2400 -1.2232
13872TIP3    H263108   4.375   0.027   2.011  0.7080  0.2585  1.4126
13873TIP3   OH263109   6.619   2.615   2.754 -0.1190 -0.3007 -0.0552
13873TIP3    H163110   6.569   2.654   2.826  0.6543  1.3024 -0.3427
13873TIP3    H263111   6.625   2.522   2.776 -1.0322 -0.0660  1.2658
13874TIP3   OH263112   3.747   2.905  14.531  1.0707  0.4906 -0.0196
13874TIP3    H163113   3.769   2.812  14.541 -1.1214  0.0942  1.9270
13874TIP3    H263114   3.812   2.951  14.584  1.8531  0.0603 -0.5784
13875TIP3   OH263115   1.656   2.178  14.302  0.3111 -0.7681 -0.2068
13875TIP3    H163116   1.563   2.183  14.281  0.5377 -2.0964 -1.7147
13875TIP3    H263117   1.665   2.228  14.383 -1.8903 -1.4886  0.5519
13876TIP3   OH263118   3.467   3.522   6.904  0.0686 -0.0191 -0.3679
13876TIP3    H163119   3.378   3.493   6.881 -0.0669  0.1298 -0.0307
13876TIP3    H263120   3.492   3.466   6.977 -0.5896  1.3686  0.9720
13877TIP3   OH263121   1.796   1.148   1.847 -0.3519  0.2859 -0.2179
13877TIP3    H163122   1.807   1.241   1.828 -1.0243  0.2328 -0.8905
13877TIP3    H263123   1.880   1.122   1.886 -0.7098  1.5333  1.5357
13878TIP3   OH263124   3.350   4.501  13.889 -0.3572 -0.3335  0.2248
13878TIP3    H163125   3.358   4.412  13.855  0.0486  0.1784 -1.1097
13878TIP3    H263126   3.436   4.540  13.875  0.1745 -0.3716  2.8561
13879TIP3   OH263127   3.310   3.467  12.070 -0.0517  0.2549  0.2480
13879TIP3    H163128   3.219   3.473  12.038  0.1825  0.9223 -0.3332
13879TIP3    H263129   3.362   3.509  12.001  0.3723  2.7655  1.9516
13880TIP3   OH263130   5.441   0.795   6.097  0.1075 -0.2640  0.0801
13880TIP3    H163131   5.472   0.705   6.104 -1.2825 -0.8456 -0.7963
13880TIP3    H263132   5.472   0.825   6.011 -0.9519 -0.5428 -0.4110
13881TIP3   OH263133   3.458   2.932  13.155  0.5935  1.2056 -0.3434
13881TIP3    H163134   3.528   2.990  13.184 -0.4373  2.9771 -1.2666
13881TIP3    H263135   3.408   2.983  13.091 -0.9948 -0.3295 -0.4213
13882TIP3   OH263136   5.721   4.843   3.939  0.0250 -0.6698 -0.4579
13882TIP3    H163137   5.688   4.836   3.850  0.0593  1.3970 -0.6795
13882TIP3    H263138   5.816   4.834   3.929  0.1010  0.2960 -0.7660
13883TIP3   OH263139   3.502   3.188  13.480 -0.2318  0.2186 -0.7962
13883TIP3    H163140   3.571   3.250  13.505  0.5146 -1.4882  1.9358
13883TIP3    H263141   3.541   3.137  13.409 -0.2881  1.8249 -2.0344
13884TIP3   OH263142   1.640   5.986  12.666  0.3170  0.2753  0.4111
13884TIP3    H163143   1.676   5.954  12.584 -0.6333 -1.1958  0.5367
13884TIP3    H263144   1.641   6.081  12.657  4.1227  0.3994  0.3948
13885TIP3   OH263145   3.083   6.149  14.469  0.5173  0.1854 -0.0935
13885TIP3    H163146   3.048   6.131  14.382 -0.9153 -0.8619  0.6507
13885TIP3    H263147   3.010   6.186  14.518  2.1876  4.2735 -0.2536
13886TIP3   OH263148   4.685   6.675   5.674 -0.3526 -0.2936 -0.0617
13886TIP3    H163149   4.620   6.607   5.656  0.5496 -1.4353  0.8818
13886TIP3    H263150   4.699   6.717   5.589 -1.9168 -0.3623 -0.3867
13887TIP3   OH263151   0.821   4.322  10.901 -0.8217  0.0180 -0.7064
13887TIP3    H163152   0.911   4.345  10.878 -0.2427  0.1585  1.4021
13887TIP3    H263153   0.767   4.371  10.840  0.5265  1.0384 -1.1319
13888TIP3   OH263154   0.280   3.040   1.627 -0.4133 -0.5441  0.0562
13888TIP3    H163155   0.354   3.067   1.574  0.4501  1.2412  2.0325
13888TIP3    H263156   0.207   3.093   1.596 -0.5686 -1.3406 -0.9924
13889TIP3   OH263157   5.147   5.099   2.575 -0.2447  0.7419  0.1147
13889TIP3    H163158   5.199   5.094   2.656 -1.3012  1.4873  0.8573
13889TIP3    H263159   5.182   5.029   2.520  1.0518  0.7562  0.8827
13890TIP3   OH263160   4.323   5.352  11.801  1.4153 -0.4174 -0.3978
13890TIP3    H163161   4.247   5.409  11.800  0.3231 -1.7268  1.7377
13890TIP3    H263162   4.393   5.405  11.838  0.6793 -0.1598  0.6362
13891TIP3   OH263163   4.182   6.566   4.756 -0.4090 -0.4086 -0.2519
13891TIP3    H163164   4.274   6.579   4.779 -0.4711 -1.2648  0.5059
13891TIP3    H263165   4.143   6.652   4.768  0.4076  0.1087 -1.1611
13892TIP3   OH263166   4.878   2.762  14.073  0.3276 -0.2522 -0.1752
13892TIP3    H163167   4.840   2.825  14.134  1.3834  0.6774 -0.4432
13892TIP3    H263168   4.901   2.814  13.996 -0.3618 -1.2918 -1.1029
13893TIP3   OH263169   1.326   5.122  16.775  0.7369 -0.1541 -0.9669
13893TIP3    H163170   1.253   5.102  16.718  1.3768  0.9615 -2.2384
13893TIP3    H263171   1.404   5.108  16.721  1.3625  0.8500 -0.3591
13894TIP3   OH263172   0.536   2.765  13.808  0.3294 -0.0801 -0.6558
13894TIP3    H163173   0.515   2.686  13.759 -1.5260  0.4837 -0.8338
13894TIP3    H263174   0.502   2.749  13.896  3.8953 -1.2124  0.7128
13895TIP3   OH263175   3.741   6.186  12.009 -0.2742  0.1655  0.0684
13895TIP3    H163176   3.657   6.144  12.024 -1.0720  1.7166  0.1845
13895TIP3    H263177   3.805   6.128  12.050 -1.4184 -0.4134  1.0899
13896TIP3   OH263178   5.604   4.663   0.818 -0.1982 -0.4967 -0.0699
13896TIP3    H163179   5.589   4.757   0.831  0.6877 -0.3367 -0.1415
13896TIP3    H263180   5.519   4.629   0.789 -1.2227 -0.1920  2.3593
13897TIP3   OH263181   0.208   1.466  16.379  0.5670  0.0699 -0.5087
13897TIP3    H163182   0.241   1.528  16.443 -0.0236 -0.4354  0.3014
13897TIP3    H263183   0.153   1.519  16.321 -1.1274  0.1110  1.0388
13898TIP3   OH263184   1.384   5.717   2.033  0.5383  0.0028  0.4190
13898TIP3    H163185   1.358   5.632   1.997  0.1653  0.3525 -0.1586
13898TIP3    H263186   1.371   5.778   1.961  2.3621  0.3152  0.2979
13899TIP3   OH263187   2.630   5.015  12.835  0.4343  0.7816  0.0316
13899TIP3    H163188   2.723   5.024  12.856  0.0121  0.5995  2.2081
13899TIP3    H263189   2.619   4.923  12.812  0.5467  0.4085  1.3700
13900TIP3   OH263190   3.206   3.479   6.782 -0.2801 -0.1316  0.3849
13900TIP3    H163191   3.174   3.569   6.783 -0.6975 -0.2785  0.3431
13900TIP3    H263192   3.200   3.452   6.691  0.0608 -0.1259  0.3610
13901TIP3   OH263193   1.765   0.301   3.123 -0.2037 -0.1276 -0.0681
13901TIP3    H163194   1.724   0.355   3.191 -1.1109 -2.0107  0.9710
13901TIP3    H263195   1.747   0.211   3.151 -1.3875 -1.0145 -3.2446
13902TIP3   OH263196   6.014   0.144   3.771  0.5876 -0.2153  0.6176
13902TIP3    H163197   6.059   0.100   3.699  1.3087  0.8904  0.3736
13902TIP3    H263198   5.932   0.095   3.781  0.2323 -0.0705 -1.2936
13903TIP3   OH263199   6.472   4.419  16.113  0.6995 -0.7202  0.0883
13903TIP3    H163200   6.477   4.376  16.198  0.7949 -0.9617 -0.0393
13903TIP3    H263201   6.562   4.440  16.090  0.6439 -0.3562  0.1992
13904TIP3   OH263202   2.115   5.354   1.687 -0.1429 -0.1149  0.3614
13904TIP3    H163203   2.208   5.334   1.678 -0.6248 -1.6056 -2.5187
13904TIP3    H263204   2.099   5.426   1.625 -1.0712 -0.6311 -0.0226
13905TIP3   OH263205   4.937   0.821   2.039  0.3103 -0.1414 -0.1302
13905TIP3    H163206   4.934   0.912   2.067  0.8544 -0.3667  0.7138
13905TIP3    H263207   4.936   0.824   1.944  1.1909  0.7840 -0.1201
13906TIP3   OH263208   4.604   2.015   4.833  0.3624  0.3909 -0.3001
13906TIP3    H163209   4.693   1.992   4.804 -0.5846 -0.7233 -2.5403
13906TIP3    H263210   4.586   2.098   4.788 -0.2448 -0.1199 -1.0101
13907TIP3   OH263211   4.335   4.876   5.307  0.1748 -0.6214  0.5197
13907TIP3    H163212   4.319   4.846   5.217  1.9337 -1.9316  0.5897
13907TIP3    H263213   4.273   4.826   5.360 -0.2856 -0.4723  0.1336
13908TIP3   OH263214   6.837   0.518   5.389  0.3546  0.0107  0.6264
13908TIP3    H163215   6.853   0.449   5.453 -1.4363 -1.3246 -0.2657
13908TIP3    H263216   6.866   0.482   5.305 -2.6533 -0.6834 -0.2430
13909TIP3   OH263217   2.914   5.508  10.835 -0.5700 -0.7030  0.1489
13909TIP3    H163218   2.888   5.511  10.743 -1.2014  0.4396  0.3474
13909TIP3    H263219   2.880   5.589  10.872  0.4447 -0.7335  1.1983
13910TIP3   OH263220   5.268   0.997   6.183 -0.5613  0.0008  0.1287
13910TIP3    H163221   5.214   0.936   6.232 -0.5917  0.0253  0.1252
13910TIP3    H263222   5.321   0.941   6.125  0.7440 -0.1604  1.4295
13911TIP3   OH263223   0.370   5.571  14.680 -0.1229  0.1749  0.4135
13911TIP3    H163224   0.422   5.632  14.627  0.4483  0.2363  1.0284
13911TIP3    H263225   0.327   5.514  14.616  1.7246 -0.7236 -0.0986
13912TIP3   OH263226   2.588   3.373   1.040  0.0990  0.4774 -0.3926
13912TIP3    H163227   2.666   3.399   1.089 -2.3116 -1.9025  5.7814
13912TIP3    H263228   2.601   3.280   1.022 -0.5601  0.5266 -1.1956
13913TIP3   OH263229   5.220   3.329  16.358  0.0655  0.4170  0.3519
13913TIP3    H163230   5.201   3.341  16.265 -1.4238 -0.2676  0.5444
13913TIP3    H263231   5.136   3.343  16.402  0.5766 -0.0492  1.5219
13914TIP3   OH263232   6.356   4.823   4.735 -0.0969 -0.4599 -0.2584
13914TIP3    H163233   6.397   4.759   4.678  1.1719  0.8845 -0.9256
13914TIP3    H263234   6.337   4.775   4.815  1.3195 -1.5563 -0.5351
13915TIP3   OH263235   0.586   4.525   2.308  0.4270 -0.2628  0.5488
13915TIP3    H163236   0.681   4.535   2.304  0.2727  1.4673  0.3767
13915TIP3    H263237   0.566   4.456   2.246  1.4495  0.3914 -0.5415
13916TIP3   OH263238   3.647   2.321   6.504  0.4485  0.0431  0.2184
13916TIP3    H163239   3.721   2.313   6.443 -0.0113 -1.3390 -0.1994
13916TIP3    H263240   3.582   2.370   6.455  0.4176 -0.2947 -0.0846
13917TIP3   OH263241   0.049   5.189   6.408  0.0306 -0.0112 -0.1066
13917TIP3    H163242  -0.011   5.188   6.334 -0.1037 -0.6524  0.0057
13917TIP3    H263243  -0.000   5.150   6.480  0.0404  0.9225  0.4274
13918TIP3   OH263244   4.262   4.612  11.592 -0.5951 -0.0245  0.2811
13918TIP3    H163245   4.238   4.646  11.678 -0.3645  1.8986 -0.3697
13918TIP3    H263246   4.328   4.545  11.611 -1.0133 -0.0919  1.6261
13919TIP3   OH263247   2.629   2.883   2.946  0.0971  0.1041 -0.2735
13919TIP3    H163248   2.620   2.789   2.939  0.3334 -0.0393  0.9776
13919TIP3    H263249   2.675   2.896   3.029  2.2141  1.2111 -1.5225
13920TIP3   OH263250   4.883   4.024  13.154 -0.1074 -0.3242  0.0762
13920TIP3    H163251   4.831   4.025  13.074  1.6478  0.4682 -1.1179
13920TIP3    H263252   4.870   3.937  13.190  1.1706 -1.7336 -2.5796
13921TIP3   OH263253   6.521   1.065  14.414  0.8677  0.0345  0.0412
13921TIP3    H163254   6.517   1.148  14.461 -0.7791  0.6020 -0.9900
13921TIP3    H263255   6.555   1.088  14.328  0.0657 -0.2578 -0.3731
13922TIP3   OH263256   3.635   3.142  15.321  0.1214  0.0062 -0.3245
13922TIP3    H163257   3.649   3.228  15.361 -2.3169  0.6909 -0.7886
13922TIP3    H263258   3.627   3.161  15.227 -1.2357 -0.5553 -0.3497
13923TIP3   OH263259   6.781   6.388  11.656  0.4251 -0.5234 -0.3207
13923TIP3    H163260   6.713   6.322  11.669 -1.8620  1.6204 -0.5118
13923TIP3    H263261   6.793   6.427  11.743 -0.2949  0.5684 -0.6771
13924TIP3   OH263262   6.450   6.375  12.234  0.0253 -0.3725 -0.0498
13924TIP3    H163263   6.542   6.353  12.250  0.4358  1.2827  0.0080
13924TIP3    H263264   6.452   6.464  12.199 -1.5241 -0.5504 -0.6627
13925TIP3   OH263265   6.723   2.314  10.525  0.6563 -0.3474 -0.1661
13925TIP3    H163266   6.796   2.323  10.587 -0.3651  0.4092  0.9686
13925TIP3    H263267   6.669   2.245  10.561  0.0013  0.1616 -0.1613
13926TIP3   OH263268   0.838   3.747  14.689 -0.4187  0.4747 -0.0454
13926TIP3    H163269   0.905   3.783  14.747  0.5886  1.4599 -1.7528
13926TIP3    H263270   0.768   3.718  14.748  0.6728  1.1816  1.6565
13927TIP3   OH263271   2.479   6.574   4.327  0.0007  0.6537  0.6625
13927TIP3    H163272   2.486   6.480   4.338 -1.3790  0.4937  0.4132
13927TIP3    H263273   2.456   6.607   4.414 -0.9213  0.5756  0.4610
13928TIP3   OH263274   6.160   2.539  13.080  0.1142 -0.1170 -0.4266
13928TIP3    H163275   6.131   2.453  13.050 -0.8788  0.3178 -0.7275
13928TIP3    H263276   6.244   2.521  13.124  1.0258 -0.9314 -2.3818
13929TIP3   OH263277   6.596   2.308  13.529  0.3451 -0.5403  0.1878
13929TIP3    H163278   6.566   2.354  13.451  0.5888 -0.1010  0.3512
13929TIP3    H263279   6.663   2.248  13.497  0.0381 -0.7761 -0.0228
13930TIP3   OH263280   6.190   6.110  14.126 -0.1344  0.0266  0.1710
13930TIP3    H163281   6.212   6.178  14.062  1.8522 -1.2345 -0.6138
13930TIP3    H263282   6.234   6.138  14.207 -1.9332  1.1918  0.7915
13931TIP3   OH263283   4.477   3.589   4.570  0.0200  0.2391  0.0539
13931TIP3    H163284   4.571   3.592   4.550  0.3215 -0.4935  1.2284
13931TIP3    H263285   4.453   3.680   4.584  1.0353  0.2879  1.7078
13932TIP3   OH263286   1.688   5.283   0.575 -0.5098  0.0869  0.1118
13932TIP3    H163287   1.697   5.188   0.583  0.0173 -0.0148 -1.4861
13932TIP3    H263288   1.601   5.302   0.611 -0.2935 -0.8810  1.1943
13933TIP3   OH263289   1.539   3.962  16.975  0.3060  0.0901 -0.5368
13933TIP3    H163290   1.588   3.880  16.985 -0.4026 -0.5749 -2.1099
13933TIP3    H263291   1.569   3.998  16.892 -0.6819  0.4904 -0.7413
13934TIP3   OH263292   4.744   2.128   6.175  0.5289 -0.0407  0.6517
13934TIP3    H163293   4.757   2.179   6.255  2.5895  0.7934 -0.1586
13934TIP3    H263294   4.754   2.037   6.203  4.9617  0.3005  0.9049
13935TIP3   OH263295   1.184   6.004   4.726 -0.8901 -0.6092 -0.3219
13935TIP3    H163296   1.240   5.950   4.670  2.7337  1.6870  0.6888
13935TIP3    H263297   1.156   6.076   4.671 -0.2149 -0.1631 -0.1003
13936TIP3   OH263298   3.112   2.525  15.709 -0.8166 -0.2974  0.1936
13936TIP3    H163299   3.122   2.620  15.716 -1.7269 -0.2824  1.9968
13936TIP3    H263300   3.042   2.513  15.645 -1.2687  0.3069  0.5544
13937TIP3   OH263301   0.767   5.715  11.847  0.1059  0.5234  0.3776
13937TIP3    H163302   0.716   5.701  11.927 -1.2540  0.7630 -0.4132
13937TIP3    H263303   0.745   5.804  11.819  0.5164  0.4270 -0.2951
13938TIP3   OH263304   4.594   1.285   5.063  0.6170 -0.6047  0.2362
13938TIP3    H163305   4.545   1.238   5.130 -1.7212 -0.6977 -1.4071
13938TIP3    H263306   4.606   1.221   4.992 -2.6971  1.0206 -2.0799
13939TIP3   OH263307   4.863   4.893  14.136 -0.0260 -0.3677 -0.0199
13939TIP3    H163308   4.818   4.881  14.220 -0.5778  0.5838 -0.1650
13939TIP3    H263309   4.953   4.869  14.154  0.3108  1.6756  1.4025
13940TIP3   OH263310   5.101   5.708   1.879  0.4836  0.4610  0.1980
13940TIP3    H163311   5.022   5.749   1.914  0.4689 -0.9049  1.8663
13940TIP3    H263312   5.165   5.780   1.876 -0.5841  1.4235 -0.5236
13941TIP3   OH263313   3.702   4.230  13.765 -0.5043 -0.5405 -0.5095
13941TIP3    H163314   3.626   4.220  13.707 -0.9920 -1.7238  0.2991
13941TIP3    H263315   3.670   4.207  13.852  0.6549 -0.5461 -0.0629
13942TIP3   OH263316   6.109   2.868  13.405  0.3262  0.0320  0.7491
13942TIP3    H163317   6.025   2.884  13.362 -0.2222 -1.2951  1.2457
13942TIP3    H263318   6.101   2.778  13.440  2.1414 -0.3177  0.3595
13943TIP3   OH263319   3.960   2.237  13.764 -0.3457  0.7018  0.2635
13943TIP3    H163320   3.899   2.277  13.701  0.3785  2.4374  0.6046
13943TIP3    H263321   3.914   2.242  13.848 -0.1752  1.0318  0.3401
13944TIP3   OH263322   1.403   2.741  11.157 -0.1829  0.2265  0.4243
13944TIP3    H163323   1.374   2.686  11.229 -0.5880 -0.9809 -0.6108
13944TIP3    H263324   1.354   2.822  11.166 -0.0369  0.1942  1.6357
13945TIP3   OH263325   3.830   5.410  12.883 -0.0138 -0.2065 -0.0295
13945TIP3    H163326   3.736   5.406  12.903  0.2648 -0.9576  1.2307
13945TIP3    H263327   3.857   5.319  12.878  0.5521  0.0049 -0.9003
13946TIP3   OH263328   0.068   1.988  16.240 -0.0830  0.5106  0.1896
13946TIP3    H163329   0.090   2.072  16.200  1.0071  0.1242 -0.0671
13946TIP3    H263330  -0.021   1.999  16.273 -0.2348  1.5105 -0.5216
13947TIP3   OH263331   2.311   2.978  16.434 -0.1164 -0.2928  0.1805
13947TIP3    H163332   2.271   3.030  16.364 -1.9825 -1.2086  0.4799
13947TIP3    H263333   2.247   2.981  16.506  0.5178 -1.5321  0.8449
13948TIP3   OH263334   0.255   0.056  16.442  0.5082  0.1330  0.2785
13948TIP3    H163335   0.266  -0.003  16.368  2.9375 -1.1054  1.4918
13948TIP3    H263336   0.163   0.047  16.467  0.0163 -0.5487 -1.6299
13949TIP3   OH263337   0.050   5.581   2.239 -0.0850 -0.0662  0.7216
13949TIP3    H163338   0.014   5.575   2.150 -0.8103 -1.2959  1.0691
13949TIP3    H263339   0.144   5.566   2.228 -0.2487 -0.7898  0.2175
13950TIP3   OH263340   3.228   4.940  11.256  1.0893 -0.2723  0.5058
13950TIP3    H163341   3.263   4.990  11.330 -0.1758 -0.9228  1.5840
13950TIP3    H263342   3.186   5.005  11.200  1.2648  0.1152  0.8243
13951TIP3   OH263343   3.980   5.953   4.366  0.1550  0.7685 -0.2962
13951TIP3    H163344   3.925   6.031   4.374  2.1534  2.0676  1.9624
13951TIP3    H263345   4.061   5.986   4.328  0.2828 -0.6728 -1.3485
13952TIP3   OH263346   4.564   2.445   1.443  0.0283 -0.1489  0.1464
13952TIP3    H163347   4.515   2.390   1.382 -1.0711 -0.0769  0.9336
13952TIP3    H263348   4.614   2.383   1.497 -0.8366 -0.3701  0.7156
13953TIP3   OH263349   5.736   3.108   3.683  0.0656  0.3717 -0.0617
13953TIP3    H163350   5.669   3.044   3.658 -0.9427  1.3532  0.0060
13953TIP3    H263351   5.713   3.187   3.633  0.7707  0.9367  0.4841
13954TIP3   OH263352   5.574   3.945   3.480 -0.1904  0.0302 -0.3683
13954TIP3    H163353   5.561   3.996   3.559 -3.3709  0.2538 -0.9319
13954TIP3    H263354   5.587   3.855   3.511  0.8618  0.4440  0.4416
13955TIP3   OH263355   6.595   5.218  10.677  0.1983  0.1005 -0.0224
13955TIP3    H163356   6.593   5.313  10.678  0.3104  0.1081 -0.2771
13955TIP3    H263357   6.582   5.195  10.585 -0.4167 -0.1473  0.1225
13956TIP3   OH263358   5.710   4.600   3.408  0.2082 -0.2718  0.0312
13956TIP3    H163359   5.752   4.531   3.356 -1.9634 -1.8606  0.2291
13956TIP3    H263360   5.641   4.634   3.351 -3.0152 -2.8474  2.0069
13957TIP3   OH263361   5.932   5.832   4.773 -0.5403 -0.5133  0.3635
13957TIP3    H163362   5.899   5.865   4.857  1.2812 -1.0308  1.3596
13957TIP3    H263363   5.860   5.782   4.736 -1.8003  0.7459  1.0125
13958TIP3   OH263364   0.045   1.564  15.554 -0.0313 -0.3843  0.0671
13958TIP3    H163365   0.104   1.502  15.510  1.0843  1.2969 -0.9042
13958TIP3    H263366  -0.040   1.547  15.514 -0.3607 -2.9654  1.6114
13959TIP3   OH263367   1.201   0.079   1.900  0.3238 -0.5133 -0.1412
13959TIP3    H163368   1.267   0.053   1.964  1.3185 -0.8261 -1.2631
13959TIP3    H263369   1.238   0.157   1.858  0.1384 -0.8940 -1.0246
13960TIP3   OH263370   4.420   2.547  13.923  0.6096 -0.3191 -0.4319
13960TIP3    H163371   4.380   2.473  13.969  1.2377  0.0102  0.6927
13960TIP3    H263372   4.459   2.600  13.993  0.6053  0.8128 -1.2608
13961TIP3   OH263373   3.377   3.669   4.328  0.2351 -0.3074  0.2058
13961TIP3    H163374   3.464   3.684   4.291 -0.0696  1.0895  0.0145
13961TIP3    H263375   3.337   3.756   4.333 -1.4462 -0.9898 -0.4403
13962TIP3   OH263376   6.127   3.700   0.710  0.6996  0.6796 -0.4058
13962TIP3    H163377   6.108   3.631   0.774  0.9694  0.3410 -0.6872
13962TIP3    H263378   6.210   3.674   0.671  1.4165  1.7880  0.3339
13963TIP3   OH263379   3.148   4.570   1.071  0.2106  0.3676  0.1515
13963TIP3    H163380   3.113   4.657   1.050  1.5891  0.9335  0.0837
13963TIP3    H263381   3.230   4.566   1.022  0.4658 -0.7294  0.6559
13964TIP3   OH263382   1.600   3.755  15.319  0.2197 -0.7400 -0.6930
13964TIP3    H163383   1.648   3.766  15.401  0.5155 -0.5406 -0.8913
13964TIP3    H263384   1.509   3.748  15.345  0.1045  1.1614 -0.4547
13965TIP3   OH263385   1.459   1.535  12.043 -0.4329  0.1856 -0.3833
13965TIP3    H163386   1.496   1.623  12.046 -1.7269  0.7633 -0.7801
13965TIP3    H263387   1.386   1.538  12.105  0.7995 -1.2700  1.2618
13966TIP3   OH263388   1.007   0.221   5.085  0.1597  0.3923  0.1409
13966TIP3    H163389   0.999   0.272   5.166 -0.2476  1.4684 -0.5526
13966TIP3    H263390   1.005   0.130   5.114  1.0749  0.7524  1.4359
13967TIP3   OH263391   0.225   1.288  11.708  0.5391 -0.2976 -0.8941
13967TIP3    H163392   0.161   1.238  11.657 -0.2954  1.8037 -2.0185
13967TIP3    H263393   0.248   1.230  11.780 -1.1528 -1.8806 -1.5360
13968TIP3   OH263394   2.668   4.357   0.442 -0.3605  0.2798  0.0134
13968TIP3    H163395   2.679   4.378   0.349  0.1883  0.1595  0.0504
13968TIP3    H263396   2.586   4.307   0.445 -0.3883  0.2934 -0.4064
13969TIP3   OH263397   2.352   2.467  15.002 -0.1123 -0.2046  0.4498
13969TIP3    H163398   2.271   2.496  15.043  0.4132  0.3714  1.0993
13969TIP3    H263399   2.373   2.537  14.940 -1.2783 -1.3877 -1.3998
13970TIP3   OH263400   1.609   1.765  15.684 -0.1806  0.0226  0.6922
13970TIP3    H163401   1.553   1.719  15.621  0.4308  0.3180 -0.0843
13970TIP3    H263402   1.662   1.696  15.724 -0.5003 -0.1555  0.8116
13971TIP3   OH263403   3.907   2.439  12.221 -0.6013  0.6184 -0.0874
13971TIP3    H163404   3.983   2.465  12.273  0.2159 -0.0171 -0.9502
13971TIP3    H263405   3.937   2.440  12.131 -1.5602  0.1379 -0.4285
13972TIP3   OH263406   2.041   6.734   2.378 -0.0825 -0.7125  0.1529
13972TIP3    H163407   1.997   6.650   2.364 -3.7126  1.1724 -0.7715
13972TIP3    H263408   2.020   6.786   2.301  3.6965  0.5674 -0.2339
13973TIP3   OH263409   0.646   1.026   4.907 -0.3668 -0.1070 -0.1943
13973TIP3    H163410   0.579   0.963   4.879 -0.3965  0.3295 -1.1863
13973TIP3    H263411   0.624   1.106   4.859  1.2155 -0.1269 -1.0184
13974TIP3   OH263412   2.086   6.478   3.825 -0.4130 -0.5535 -0.5997
13974TIP3    H163413   2.167   6.517   3.858 -1.6142  1.8020 -0.2995
13974TIP3    H263414   2.055   6.423   3.897 -0.9831  1.4991  0.8097
13975TIP3   OH263415   6.219   1.190   3.140  0.4554 -0.2525 -0.0928
13975TIP3    H163416   6.177   1.109   3.114 -0.1271 -0.2895  0.9051
13975TIP3    H263417   6.196   1.201   3.232  1.1672  0.6453  0.0005
13976TIP3   OH263418   6.447   3.974  13.706  0.1262 -0.0232  0.0500
13976TIP3    H163419   6.389   3.979  13.781  0.3093 -1.8935  0.3761
13976TIP3    H263420   6.418   3.896  13.658  0.8614  0.3631 -1.0869
13977TIP3   OH263421   0.813   6.184  11.305 -0.1285  0.1402  0.0181
13977TIP3    H163422   0.897   6.207  11.345 -0.0717 -0.7075  0.4121
13977TIP3    H263423   0.749   6.196  11.376 -0.3304  0.6721 -0.2469
13978TIP3   OH263424   5.517   5.632  14.115  0.1717  0.0555 -0.1997
13978TIP3    H163425   5.485   5.713  14.074  0.3259  0.7128  0.9534
13978TIP3    H263426   5.590   5.605  14.059 -1.1324 -0.4151 -1.7563
13979TIP3   OH263427   5.032   4.974  13.097  0.0312  0.1032 -0.4435
13979TIP3    H163428   4.956   5.017  13.056  0.3381  0.8679 -0.2185
13979TIP3    H263429   5.038   5.014  13.184  0.7373  0.0871 -0.4854
13980TIP3   OH263430   2.070   3.447  10.739  0.1571  0.0441 -0.3207
13980TIP3    H163431   2.118   3.502  10.802 -0.6829 -0.8368  1.1541
13980TIP3    H263432   2.138   3.413  10.681  0.8217  1.8281 -0.6590
13981TIP3   OH263433   6.688   5.526  15.617  0.0013  0.3520 -0.4331
13981TIP3    H163434   6.715   5.542  15.707 -0.7232 -2.2146  0.3355
13981TIP3    H263435   6.760   5.476  15.578 -0.9269 -1.1562 -0.2920
13982TIP3   OH263436   1.198   5.928   0.752  0.1638  0.5465 -0.6022
13982TIP3    H163437   1.254   5.887   0.686 -0.0867  0.5983 -0.8455
13982TIP3    H263438   1.119   5.953   0.705 -0.1960  0.1968 -0.1970
13983TIP3   OH263439   1.907   6.498   1.010  0.2621 -0.4147 -0.5170
13983TIP3    H163440   1.850   6.472   0.938  3.3990  0.9004 -3.7515
13983TIP3    H263441   1.874   6.584   1.038  1.2028  0.9661 -3.2630
13984TIP3   OH263442   4.897   3.184   4.804 -0.0337  0.0962 -0.1251
13984TIP3    H163443   4.860   3.105   4.843  0.3538 -0.0362 -0.0275
13984TIP3    H263444   4.856   3.256   4.851  2.3468 -0.0460  2.3721
13985TIP3   OH263445   0.813   4.420   4.356  0.4846  0.2900  0.3506
13985TIP3    H163446   0.812   4.511   4.387  0.3945 -0.7162  3.6589
13985TIP3    H263447   0.843   4.370   4.432 -3.5142 -2.9424  0.1179
13986TIP3   OH263448   0.843   1.734  12.105  0.4820 -0.6091  0.2865
13986TIP3    H163449   0.764   1.706  12.152  1.1019 -1.5045  0.8190
13986TIP3    H263450   0.915   1.710  12.163  1.1771 -0.2438 -0.4115
13987TIP3   OH263451   2.250   4.110   5.240 -0.1920  0.2216 -0.2940
13987TIP3    H163452   2.280   4.188   5.194  2.3433 -0.6646 -0.2720
13987TIP3    H263453   2.306   4.039   5.207 -1.8860 -1.4683  0.2471
13988TIP3   OH263454   5.730   6.680  13.522  0.8197  0.2475 -0.1694
13988TIP3    H163455   5.769   6.720  13.444  0.0221  0.7662 -0.3140
13988TIP3    H263456   5.783   6.602  13.538  1.2183  0.3351 -1.0195
13989TIP3   OH263457   1.108   1.611   5.124 -0.3221 -0.1106 -0.3041
13989TIP3    H163458   1.029   1.557   5.129 -0.9238  0.8498  1.7540
13989TIP3    H263459   1.084   1.692   5.169  1.8306  0.2057  0.3611
13990TIP3   OH263460   5.144   4.191  13.157  0.5126 -0.4584 -0.0326
13990TIP3    H163461   5.184   4.151  13.234  0.6936  0.7844  0.5519
13990TIP3    H263462   5.050   4.182  13.171  0.5504 -0.9774 -0.0876
13991TIP3   OH263463   4.943   4.034  16.616 -0.1578 -0.2046  0.1405
13991TIP3    H163464   5.038   4.046  16.615  0.0178 -1.3735  0.8796
13991TIP3    H263465   4.922   4.015  16.707 -0.6805 -2.8080 -0.4295
13992TIP3   OH263466   4.522   0.360   3.508 -0.3405 -0.1098  0.1543
13992TIP3    H163467   4.445   0.390   3.556  0.9868  1.3456  1.4817
13992TIP3    H263468   4.541   0.273   3.543 -0.1324  0.4222  1.4058
13993TIP3   OH263469   4.795   1.431   5.402  0.4114 -0.6482 -0.0352
13993TIP3    H163470   4.808   1.337   5.399 -0.3298 -0.7434 -0.4775
13993TIP3    H263471   4.794   1.458   5.310 -0.3224 -0.3502  0.0525
13994TIP3   OH263472   1.600   6.460  15.091 -0.3380 -0.5818  0.6273
13994TIP3    H163473   1.505   6.474  15.096 -0.5638 -1.9071  0.5048
13994TIP3    H263474   1.609   6.368  15.066  0.9815  0.0358 -1.3428
13995TIP3   OH263475   0.996   3.288  15.520 -0.3782  0.2922 -0.1003
13995TIP3    H163476   1.046   3.332  15.588 -3.3666  0.3597  2.2507
13995TIP3    H263477   0.937   3.355  15.486  0.6209  0.0850 -2.4238
13996TIP3   OH263478   1.530   0.667  11.338 -0.4653  0.1649  0.2235
13996TIP3    H163479   1.511   0.728  11.410  0.0831 -1.2540  1.6289
13996TIP3    H263480   1.625   0.674  11.326 -0.7847  1.9427 -1.8687
13997TIP3   OH263481   1.938   1.751   4.988 -0.1948  0.4275 -0.3354
13997TIP3    H163482   1.919   1.702   4.908  2.7468 -2.5456  0.5697
13997TIP3    H263483   1.860   1.740   5.042 -0.9918 -0.1960 -1.5773
13998TIP3   OH263484   3.921   5.883  15.219  0.4045 -0.5067 -0.2398
13998TIP3    H163485   3.924   5.970  15.179  0.7098 -0.1722  0.4915
13998TIP3    H263486   3.850   5.839  15.173 -2.6651  1.5383  2.0778
13999TIP3   OH263487   6.824   5.544   6.096  0.1218 -0.3283  0.0399
13999TIP3    H163488   6.817   5.639   6.087 -2.4998 -0.4380  0.2744
13999TIP3    H263489   6.816   5.528   6.190  0.9583 -0.7788  0.0444
14000TIP3   OH263490   4.408   5.366  12.147 -0.4524 -0.6455 -0.1291
14000TIP3    H163491   4.409   5.436  12.081 -0.3743  0.0574  0.5944
14000TIP3    H263492   4.355   5.402  12.219 -0.4411 -1.3470  0.2413
14001TIP3   OH263493   5.041   5.875   5.038 -0.1350 -0.0554  0.3895
14001TIP3    H163494   5.011   5.949   4.985  1.0090  1.3156  1.5875
14001TIP3    H263495   5.123   5.847   4.996 -0.7423 -0.9138 -0.2678
14002TIP3   OH263496   2.722   4.277   6.298 -0.6427  0.8784  0.0359
14002TIP3    H163497   2.792   4.337   6.324 -1.6183  1.7304  0.7522
14002TIP3    H263498   2.653   4.333   6.264 -0.9915  0.0442 -0.6864
14003TIP3   OH263499   4.360   5.233  16.420  0.0441 -0.1703  0.2117
14003TIP3    H163500   4.275   5.194  16.441 -0.6552  0.8771 -0.5057
14003TIP3    H263501   4.379   5.291  16.494  1.3241 -2.1626  1.5184
14004TIP3   OH263502   4.237   4.868   2.278  0.6153 -0.3042 -0.1667
14004TIP3    H163503   4.251   4.909   2.192  2.2814 -1.2818 -0.4264
14004TIP3    H263504   4.295   4.791   2.277 -2.5089 -2.9012  0.1661
14005TIP3   OH263505   4.972   0.517  11.278 -0.0073  0.3174  0.3804
14005TIP3    H163506   5.011   0.578  11.340 -1.6452  0.2259  1.5544
14005TIP3    H263507   5.036   0.512  11.207 -0.5588  4.9572 -0.8036
14006TIP3   OH263508   2.385   0.145   0.832 -0.8411  0.1870  0.2286
14006TIP3    H163509   2.332   0.223   0.815 -0.1916  0.5775 -0.0280
14006TIP3    H263510   2.332   0.094   0.894 -0.2220  2.0010  2.3935
14007TIP3   OH263511   5.120   5.670  13.223  0.1804  0.1590 -0.6011
14007TIP3    H163512   5.190   5.697  13.283  2.2437 -2.9232 -1.3571
14007TIP3    H263513   5.082   5.592  13.264 -3.0109  1.7625 -0.2003
14008TIP3   OH263514   3.354   5.219  16.384 -0.2368  0.2902 -0.0094
14008TIP3    H163515   3.446   5.201  16.365 -0.2033 -0.0095  0.4038
14008TIP3    H263516   3.333   5.297  16.333  0.4391  0.7564  0.4119
14009TIP3   OH263517   4.950   1.326  14.921  0.4465 -0.3297  0.5795
14009TIP3    H163518   5.020   1.275  14.881  1.9797  1.3620  0.9758
14009TIP3    H263519   4.914   1.269  14.989 -1.7347 -3.0132 -2.4733
14010TIP3   OH263520   4.713   0.831   2.308  0.0231 -0.1251 -0.2898
14010TIP3    H163521   4.619   0.816   2.308 -0.2359  1.3579 -0.2743
14010TIP3    H263522   4.725   0.911   2.359  0.8949  1.8454 -3.3123
14011TIP3   OH263523   2.851   1.400   6.522  0.2905  0.1851  0.2604
14011TIP3    H163524   2.802   1.479   6.545 -1.8030 -0.6510 -0.9524
14011TIP3    H263525   2.793   1.328   6.548  1.9723 -0.9621  0.9856
14012TIP3   OH263526   4.409   6.790   2.893  0.2952  0.3281  0.4073
14012TIP3    H163527   4.330   6.836   2.920 -0.0029  2.5112 -3.4643
14012TIP3    H263528   4.378   6.722   2.834  1.2167  0.6439 -0.4672
14013TIP3   OH263529   3.559   0.663  16.731  0.1683  0.7502 -0.4567
14013TIP3    H163530   3.467   0.651  16.709  0.4379  0.0540 -1.2565
14013TIP3    H263531   3.559   0.722  16.807 -0.8596  2.2877 -1.5937
14014TIP3   OH263532   0.880   5.274   0.493  0.2928  0.6316  0.4066
14014TIP3    H163533   0.854   5.231   0.412 -0.2311 -1.5661  1.6463
14014TIP3    H263534   0.859   5.366   0.480  0.8474  0.4733 -2.1689
14015TIP3   OH263535   6.125   0.460   0.754 -0.2110 -0.1460 -0.0100
14015TIP3    H163536   6.111   0.555   0.746  1.6689  0.0281 -2.7056
14015TIP3    H263537   6.067   0.422   0.689 -1.4222 -0.9837  1.4902
14016TIP3   OH263538   4.507   5.897  13.365  0.0136 -0.7806  0.4546
14016TIP3    H163539   4.495   5.908  13.271 -0.3223 -1.3147  0.4369
14016TIP3    H263540   4.430   5.938  13.405  1.1731  1.4033  0.6084
14017TIP3   OH263541   2.224   2.504   3.553  0.2379  0.3387  0.0887
14017TIP3    H163542   2.301   2.560   3.547  0.8088 -0.3418  0.7885
14017TIP3    H263543   2.172   2.541   3.625  0.5331  0.0811  0.4403
14018TIP3   OH263544   1.834   6.346  13.532 -0.2439 -0.2434  0.4097
14018TIP3    H163545   1.901   6.350  13.601  1.3199  0.4611 -1.0924
14018TIP3    H263546   1.785   6.266  13.552  0.9267 -0.6939  1.6755
14019TIP3   OH263547   5.379   6.761   2.541 -0.7871  0.3786 -0.4725
14019TIP3    H163548   5.426   6.695   2.592 -1.6691  0.5226  0.5503
14019TIP3    H263549   5.314   6.711   2.492 -1.5100  0.4794  0.3648
14020TIP3   OH263550   1.723   2.186   5.629 -0.4366 -0.0550  0.3224
14020TIP3    H163551   1.762   2.244   5.563 -1.1564  0.0425 -0.0341
14020TIP3    H263552   1.795   2.163   5.687  0.3320 -0.5333 -0.7763
14021TIP3   OH263553   6.767   5.748   1.814 -0.0491 -0.1336 -0.5409
14021TIP3    H163554   6.769   5.843   1.819  0.0941 -0.1789  0.4011
14021TIP3    H263555   6.761   5.729   1.720  0.1355  0.7955 -0.7492
14022TIP3   OH263556   1.949   2.667  15.578  0.6998  1.0559  0.6327
14022TIP3    H163557   1.856   2.687  15.564  1.0318  2.3366  0.1577
14022TIP3    H263558   1.949   2.599  15.645 -0.5912  0.8799  0.4769
14023TIP3   OH263559   3.039   0.246   0.199  0.5496 -0.0463 -0.2015
14023TIP3    H163560   3.037   0.220   0.291  0.7600 -0.9146 -0.4412
14023TIP3    H263561   3.016   0.339   0.201  3.3656  0.7228  0.9896
14024TIP3   OH263562   1.454   6.290   1.770  0.0797  0.1862 -0.5928
14024TIP3    H163563   1.385   6.242   1.816 -0.7002  0.6887 -1.1839
14024TIP3    H263564   1.439   6.269   1.678 -0.9829  2.3505 -0.9895
14025TIP3   OH263565   1.049   2.194  10.846 -0.2379  0.0548 -0.4649
14025TIP3    H163566   1.061   2.154  10.760 -1.2231 -1.4015  0.0386
14025TIP3    H263567   1.029   2.121  10.904 -1.2941  1.1875  0.6615
14026TIP3   OH263568   1.440   0.424  16.746 -0.3917 -0.1465 -0.4882
14026TIP3    H163569   1.499   0.387  16.680 -0.8809  0.3065 -1.1803
14026TIP3    H263570   1.359   0.443  16.699 -1.3368 -1.3156  0.5690
14027TIP3   OH263571   2.429   0.018   4.101  0.2194  0.5364  0.0591
14027TIP3    H163572   2.418  -0.042   4.174 -0.3534 -0.4913 -0.8515
14027TIP3    H263573   2.519   0.051   4.111  0.7329 -0.8628  0.2998
14028TIP3   OH263574   5.220   6.270   4.922 -0.3245 -0.3476 -0.6669
14028TIP3    H163575   5.275   6.205   4.966 -1.7143 -1.6783 -0.8261
14028TIP3    H263576   5.270   6.295   4.844  1.8195  1.4447  1.1203
14029TIP3   OH263577   4.709   1.990   0.216 -0.1435  0.1401 -0.2337
14029TIP3    H163578   4.795   2.019   0.185 -0.0553 -0.7634 -0.8897
14029TIP3    H263579   4.651   2.007   0.142 -0.9498  2.5045  0.8521
14030TIP3   OH263580   0.635   4.764  14.395 -0.3371  0.3789  0.3096
14030TIP3    H163581   0.691   4.691  14.371  1.1381  1.5021  0.1911
14030TIP3    H263582   0.574   4.774  14.322 -1.1640 -1.2770  0.7384
14031TIP3   OH263583   6.300   2.677   3.721 -0.2320 -0.9466  0.6538
14031TIP3    H163584   6.232   2.660   3.656  1.4627  0.7853 -1.7703
14031TIP3    H263585   6.355   2.599   3.719 -0.4530 -1.0974  0.3370
14032TIP3   OH263586   1.807   6.182  17.133  0.1055 -0.2031 -0.4191
14032TIP3    H163587   1.830   6.201  17.224 -1.4543 -0.0525 -0.0233
14032TIP3    H263588   1.787   6.088  17.133 -0.5737 -0.0676 -0.4282
14033TIP3   OH263589   5.632   0.359  14.184  0.2069  0.1433  0.1346
14033TIP3    H163590   5.639   0.415  14.261  1.1244 -1.0586  0.9853
14033TIP3    H263591   5.723   0.342  14.159 -0.0368 -0.9817 -0.0564
14034TIP3   OH263592   5.390   0.294  11.839 -0.1791 -0.2679 -0.2362
14034TIP3    H163593   5.387   0.383  11.874 -2.0914 -0.2185 -0.3981
14034TIP3    H263594   5.412   0.239  11.915 -1.1973  0.1459  0.3806
14035TIP3   OH263595   3.329   5.705   5.684  0.8113 -0.4038  0.5354
14035TIP3    H163596   3.340   5.652   5.763 -2.6788 -0.2589  1.2552
14035TIP3    H263597   3.261   5.768   5.706  1.2237  1.0595 -1.9526
14036TIP3   OH263598   5.319   1.621   1.435 -0.7781 -0.0352 -0.0829
14036TIP3    H163599   5.361   1.600   1.351  1.3499 -2.1525  1.3618
14036TIP3    H263600   5.392   1.629   1.497 -2.3470 -1.6743  2.1507
14037TIP3   OH263601   1.793   5.328  15.360 -0.1520 -0.5509  0.3596
14037TIP3    H163602   1.880   5.291  15.344  0.5401  1.1905 -0.1825
14037TIP3    H263603   1.734   5.253  15.360  1.0158 -1.5433 -1.7515
14038TIP3   OH263604   6.139   3.814  12.166  0.0085 -0.0731  0.1879
14038TIP3    H163605   6.224   3.812  12.211  0.1927  2.9277  0.2080
14038TIP3    H263606   6.143   3.893  12.112 -3.0772  0.6630  0.8591
14039TIP3   OH263607   0.250   2.468   2.992 -0.1495 -0.4805  0.5211
14039TIP3    H163608   0.343   2.446   2.994  0.0357  0.2178 -0.2343
14039TIP3    H263609   0.214   2.416   2.920 -0.0864  0.2339 -0.0274
14040TIP3   OH263610   2.716   1.188   0.586  0.0927 -0.7736  0.6673
14040TIP3    H163611   2.772   1.243   0.641  2.2783 -1.2184 -0.9559
14040TIP3    H263612   2.709   1.105   0.632 -0.0545 -0.3985  1.3325
14041TIP3   OH263613   1.488   1.895  12.700 -0.1161 -0.0265  0.0308
14041TIP3    H163614   1.413   1.882  12.642 -0.5503  0.0682  0.5604
14041TIP3    H263615   1.454   1.949  12.771  0.3743 -0.2502  0.4405
14042TIP3   OH263616   5.963   4.386  11.259  0.1943  0.0432  0.3775
14042TIP3    H163617   5.986   4.330  11.185 -0.4367 -0.0350  0.2360
14042TIP3    H263618   6.036   4.448  11.266 -0.0317  0.4499 -0.7064
14043TIP3   OH263619   2.888   2.313  11.241  0.0225 -0.2143 -0.4863
14043TIP3    H163620   2.826   2.372  11.198  0.7822  1.7790  1.0003
14043TIP3    H263621   2.967   2.320  11.188  1.0693  2.5023  1.2050
14044TIP3   OH263622   5.238   0.450   0.408  0.5372  0.3550  0.7839
14044TIP3    H163623   5.292   0.492   0.341  0.8514 -0.5236  0.4842
14044TIP3    H263624   5.280   0.475   0.491 -0.1180  1.8227  0.7000
14045TIP3   OH263625   5.976   6.441  17.033  0.2964  0.2026  0.4669
14045TIP3    H163626   5.950   6.525  17.072  1.2570  0.7085  0.0496
14045TIP3    H263627   6.041   6.406  17.093  0.1643 -0.0791  0.4493
14046TIP3   OH263628   3.194   2.038  13.061  0.3073  0.2017  0.4388
14046TIP3    H163629   3.179   2.119  13.109  0.7182 -0.2942  1.4194
14046TIP3    H263630   3.232   1.978  13.125 -0.7034 -1.0292 -0.0595
14047TIP3   OH263631   6.131   6.282   0.771 -0.1205 -0.3844 -0.1416
14047TIP3    H163632   6.156   6.201   0.726  1.0316 -0.7071  1.0221
14047TIP3    H263633   6.132   6.260   0.864  1.3850  1.2393  0.2886
14048TIP3   OH263634   3.859   2.094  11.093  0.1446  0.6043  0.4747
14048TIP3    H163635   3.937   2.117  11.041  0.5617 -0.9398  0.3679
14048TIP3    H263636   3.815   2.178  11.107  2.3665  1.7237  1.4363
14049TIP3   OH263637   4.025   0.982  13.090 -0.1384  0.0237 -0.5018
14049TIP3    H163638   3.955   0.975  13.025 -0.2887  0.0056 -0.3389
14049TIP3    H263639   4.092   0.921  13.060 -0.5019 -0.4984 -0.2739
14050TIP3   OH263640   0.176   0.169   4.987 -0.1805 -0.1336  0.6188
14050TIP3    H163641   0.190   0.077   4.964 -0.9882 -0.6839  2.2225
14050TIP3    H263642   0.245   0.190   5.049  0.1617  0.4477  0.0631
14051TIP3   OH263643   1.784   6.784  10.674 -0.2394 -0.3324 -1.0434
14051TIP3    H163644   1.806   6.877  10.686  1.8355 -0.8898 -0.2046
14051TIP3    H263645   1.695   6.777  10.708  0.1065  1.0764  0.2859
14052TIP3   OH263646   0.489   2.244  16.081 -0.2777  0.2569  0.4055
14052TIP3    H163647   0.402   2.204  16.078 -0.6819  1.1219  0.4373
14052TIP3    H263648   0.474   2.331  16.117  0.4953  0.6940 -0.3041
14053TIP3   OH263649   5.717   1.240  16.499  0.4598  0.3240 -0.0095
14053TIP3    H163650   5.639   1.185  16.503  0.6576  0.1071  1.0722
14053TIP3    H263651   5.776   1.192  16.440  0.3055 -0.2140  0.2653
14054TIP3   OH263652   2.309   5.392   0.621  0.6759 -1.0633 -0.4753
14054TIP3    H163653   2.273   5.468   0.576 -1.0432 -0.8771  1.0676
14054TIP3    H263654   2.307   5.322   0.556 -1.8234 -0.8393 -0.7506
14055TIP3   OH263655   2.218   5.921  15.900  0.5230  0.4550  0.0853
14055TIP3    H163656   2.205   5.919  15.805  0.5970  0.1130  0.0830
14055TIP3    H263657   2.152   5.861  15.935 -0.2492  1.4309  0.3394
14056TIP3   OH263658   1.139   2.915   0.287  0.0533  0.3783  0.0049
14056TIP3    H163659   1.165   3.007   0.274  1.1122  0.1102  0.1200
14056TIP3    H263660   1.063   2.903   0.230 -0.3259  1.4252  0.2609
14057TIP3   OH263661   6.538   3.099   3.629 -0.1336 -0.5925 -0.1290
14057TIP3    H163662   6.509   3.153   3.555  0.0066  0.5601  0.6380
14057TIP3    H263663   6.569   3.162   3.694 -0.9963 -1.5347  1.2358
14058TIP3   OH263664   4.181   1.296   0.987  0.0348 -0.0076  0.2726
14058TIP3    H163665   4.269   1.329   1.005 -1.2114  2.3483  3.0098
14058TIP3    H263666   4.168   1.312   0.894  1.2182  3.2688  0.5255
14059TIP3   OH263667   3.089   6.319  16.335  0.6176  0.5184 -0.0829
14059TIP3    H163668   3.128   6.258  16.397  0.6942  1.8702  1.2700
14059TIP3    H263669   3.006   6.345  16.376  0.0921  0.5334 -1.1271
14060TIP3   OH263670   0.915   1.740  17.128  0.2088  0.1108 -0.1261
14060TIP3    H163671   1.006   1.769  17.121  0.5119 -0.7825 -0.0325
14060TIP3    H263672   0.921   1.646  17.145 -0.7391 -0.0096 -0.3909
14061TIP3   OH263673   1.556   5.298  13.723 -0.2653  0.1702 -0.7324
14061TIP3    H163674   1.472   5.261  13.752 -0.0933  1.5257  1.7387
14061TIP3    H263675   1.621   5.256  13.780  0.1084  2.8923  0.9932
14062TIP3   OH263676   4.168   5.901  14.179  0.3121  0.1402 -0.3947
14062TIP3    H163677   4.179   5.963  14.251 -0.8928  0.3684 -0.4018
14062TIP3    H263678   4.196   5.949  14.101 -0.7490  0.7413 -0.4206
14063TIP3   OH263679   0.429   2.141  14.557 -0.0005  0.1347  0.1169
14063TIP3    H163680   0.359   2.134  14.492  0.4183 -1.6589 -0.1999
14063TIP3    H263681   0.386   2.123  14.641  0.1368 -1.5244 -0.1379
14064TIP3   OH263682   3.903   0.437   0.640 -0.2897  0.3143 -0.2758
14064TIP3    H163683   3.808   0.428   0.634 -0.3748  0.6541  0.4929
14064TIP3    H263684   3.919   0.528   0.613 -0.0671 -0.0494 -1.4534
14065TIP3   OH263685   4.566   5.554  13.724 -0.1484 -1.0313 -0.1937
14065TIP3    H163686   4.570   5.640  13.765 -0.5959 -0.9983 -0.2181
14065TIP3    H263687   4.572   5.572  13.630  1.9051 -1.1704 -0.1355
14066TIP3   OH263688   4.499   0.276  10.540  0.1592 -0.1195 -0.3733
14066TIP3    H163689   4.480   0.364  10.573  0.9194  0.3008 -1.0024
14066TIP3    H263690   4.431   0.260  10.475 -1.0225 -0.7323  0.9715
14067TIP3   OH263691   6.544   3.452  15.299 -0.0610  0.8543  0.0379
14067TIP3    H163692   6.612   3.519  15.292  0.8867 -0.2654 -4.1452
14067TIP3    H263693   6.511   3.442  15.210 -2.3346 -2.0774  1.0467
14068TIP3   OH263694   4.355   0.386  11.739  0.4134 -0.1456 -0.3518
14068TIP3    H163695   4.365   0.465  11.792  1.7000 -0.6293  0.1819
14068TIP3    H263696   4.359   0.418  11.648  0.0174  0.4961 -0.1477
14069TIP3   OH263697   0.100   5.464  14.332 -0.0179  0.4710  0.2867
14069TIP3    H163698   0.146   5.474  14.415  1.6902  0.5810 -0.6354
14069TIP3    H263699   0.168   5.471  14.265 -1.4982  1.5288 -1.1906
14070TIP3   OH263700   0.515   1.951   1.610 -0.1668 -0.3245 -0.1855
14070TIP3    H163701   0.538   2.017   1.675  1.6448 -2.7486  1.8221
14070TIP3    H263702   0.585   1.955   1.545  0.9575 -1.3921  0.9053
14071TIP3   OH263703   2.038   0.442  15.195 -0.2575  0.9576 -0.2647
14071TIP3    H163704   1.950   0.460  15.161 -0.3503  1.7507  0.3399
14071TIP3    H263705   2.089   0.520  15.173  0.7737 -0.1738 -2.0602
14072TIP3   OH263706   1.289   4.407  16.611 -0.1597 -0.4389 -0.2130
14072TIP3    H163707   1.194   4.412  16.623 -0.0425  0.9985  0.3303
14072TIP3    H263708   1.320   4.496  16.631  1.4798 -1.3018  1.4260
14073TIP3   OH263709   6.785   2.368  13.816 -0.2723  0.4411 -0.4862
14073TIP3    H163710   6.737   2.441  13.776 -1.4243 -0.0703 -0.0952
14073TIP3    H263711   6.831   2.327  13.744 -1.5815  0.0930 -1.1633
14074TIP3   OH263712   3.853   4.451  11.350  0.3733  0.2179 -0.0803
14074TIP3    H163713   3.861   4.443  11.255  2.2653 -0.2374  0.0764
14074TIP3    H263714   3.881   4.540  11.369  1.6270 -0.2144  0.1730
14075TIP3   OH263715   0.745   0.837  14.181 -0.1634  0.2261  0.3924
14075TIP3    H163716   0.705   0.805  14.262  0.0365  0.3380  0.5358
14075TIP3    H263717   0.820   0.780  14.167 -1.2054 -0.9631 -0.6851
14076TIP3   OH263718   5.438   6.809  13.483  0.3589  0.1010  0.0229
14076TIP3    H163719   5.525   6.774  13.500  0.6861  0.8135 -0.1534
14076TIP3    H263720   5.390   6.737  13.442  0.5838 -0.5849  0.9325
14077TIP3   OH263721   1.382   5.457   0.450 -0.9583 -0.1999  0.3575
14077TIP3    H163722   1.298   5.471   0.493 -0.2594  0.6656  1.5076
14077TIP3    H263723   1.380   5.366   0.422 -2.1275 -0.2940  0.6827
14078TIP3   OH263724   6.754   3.572  11.208  0.9149  0.2541  0.0726
14078TIP3    H163725   6.672   3.553  11.253  1.7638 -1.6893  0.9119
14078TIP3    H263726   6.727   3.615  11.127 -0.8118  1.2177  1.0899
14079TIP3   OH263727   3.119   1.488  13.598  0.0941 -0.0197  0.2849
14079TIP3    H163728   3.196   1.478  13.541 -0.7032  1.2340 -1.0921
14079TIP3    H263729   3.156   1.503  13.685  1.3758 -0.7864 -0.0884
14080TIP3   OH263730   3.092   2.949  13.329  0.2467 -0.4750 -0.4086
14080TIP3    H163731   3.022   2.909  13.380 -0.3749  0.2111 -0.7121
14080TIP3    H263732   3.156   2.879  13.318  0.4338 -0.6394  1.3521
14081TIP3   OH263733   2.051   3.230  12.472 -0.6389 -0.3833  0.1789
14081TIP3    H163734   2.031   3.231  12.379  0.9657 -0.3425 -0.1964
14081TIP3    H263735   1.970   3.200  12.514 -1.7751  0.7231 -1.1065
14082TIP3   OH263736   6.190   3.695   4.879  0.3863  0.2123  0.4719
14082TIP3    H163737   6.255   3.744   4.930  0.0518  0.0521  1.0549
14082TIP3    H263738   6.107   3.710   4.924 -0.1038  0.9290 -0.6362
14083TIP3   OH263739   6.202   1.470   0.266  0.2954 -0.0017  0.5018
14083TIP3    H163740   6.246   1.484   0.183  1.8257 -0.1838  1.2406
14083TIP3    H263741   6.172   1.557   0.293  1.0672  0.2916  0.4316
14084TIP3   OH263742   4.710   5.239   2.131  0.2670  0.7192 -0.6089
14084TIP3    H163743   4.668   5.155   2.150  0.8092  0.1730 -1.7736
14084TIP3    H263744   4.637   5.297   2.109 -0.2667  1.0208  1.7071
14085TIP3   OH263745   2.042   1.663   1.172  0.2229 -0.6639  0.9630
14085TIP3    H163746   2.101   1.731   1.141  0.4393 -1.1519  0.2768
14085TIP3    H263747   1.965   1.710   1.204  0.0254 -0.1340 -0.2476
14086TIP3   OH263748   3.221   6.244   6.131  0.1024  0.3312  0.4729
14086TIP3    H163749   3.175   6.214   6.053 -0.5991 -1.5556  1.5301
14086TIP3    H263750   3.305   6.198   6.128  1.4958  2.7712 -0.7866
14087TIP3   OH263751   5.182   3.814  16.685 -0.0028  0.0811  0.3817
14087TIP3    H163752   5.152   3.873  16.755 -0.5512  1.3125 -0.8545
14087TIP3    H263753   5.274   3.798  16.706 -0.4520 -0.5790  2.0563
14088TIP3   OH263754   0.287   5.597  15.455 -0.4173 -0.6152  0.4751
14088TIP3    H163755   0.355   5.610  15.522  2.8517 -0.8214 -2.5225
14088TIP3    H263756   0.237   5.678  15.456 -0.6029 -0.6667  3.1653
14089TIP3   OH263757   1.936   2.849   4.909 -0.1002 -0.1350 -0.1078
14089TIP3    H163758   1.959   2.848   4.816  1.8357 -3.1393  0.2826
14089TIP3    H263759   1.908   2.759   4.928  2.0490 -0.3292  2.7279
14090TIP3   OH263760   2.878   3.707   1.690  0.3738  0.1156 -0.2677
14090TIP3    H163761   2.940   3.736   1.623 -1.3571 -0.4811 -2.2677
14090TIP3    H263762   2.805   3.770   1.683 -0.6246 -1.0022 -0.2465
14091TIP3   OH263763   1.657   3.740   5.934  1.0070 -0.4888  0.0229
14091TIP3    H163764   1.645   3.708   5.845 -1.0447  1.8857 -0.6619
14091TIP3    H263765   1.737   3.794   5.930  2.1547 -2.1066  0.2152
14092TIP3   OH263766   5.069   5.927  16.651 -0.4883  0.2577 -0.4517
14092TIP3    H163767   5.142   5.930  16.713  0.5716  0.2527 -1.6552
14092TIP3    H263768   5.031   6.015  16.654  0.6502  0.7974 -1.0294
14093TIP3   OH263769   4.447   1.074  15.305 -0.7919  0.3676 -0.0211
14093TIP3    H163770   4.424   1.166  15.299  0.4422  0.6596 -0.4284
14093TIP3    H263771   4.481   1.052  15.218 -1.6468 -0.6356 -0.1242
14094TIP3   OH263772   5.401   3.272  16.945  0.4582  0.2203  0.0781
14094TIP3    H163773   5.377   3.349  16.894  0.1535  0.6302  0.8260
14094TIP3    H263774   5.334   3.267  17.013  1.0121 -0.1618  0.6000
14095TIP3   OH263775   5.325   0.302   5.306 -0.6453 -0.0885  0.4119
14095TIP3    H163776   5.292   0.392   5.302  1.5656  0.7452 -0.1539
14095TIP3    H263777   5.415   0.307   5.276 -0.0963 -2.3427  1.4288
14096TIP3   OH263778   2.909   4.944  12.162  0.2505 -0.5460  0.3068
14096TIP3    H163779   2.915   4.965  12.256 -0.9687  2.9286 -0.2330
14096TIP3    H263780   2.829   4.988  12.133  0.4671 -1.7251 -2.3512
14097TIP3   OH263781   6.456   3.133   4.544 -0.1406  0.6559  0.1086
14097TIP3    H163782   6.438   3.200   4.610  0.2325  1.1031 -0.2349
14097TIP3    H263783   6.516   3.175   4.483 -0.9934  0.4812 -0.8918
14098TIP3   OH263784   3.984   5.768  13.093  0.2603  0.0506  0.1812
14098TIP3    H163785   3.961   5.689  13.142 -2.3624  1.2867  1.1572
14098TIP3    H263786   4.031   5.822  13.156  0.7732 -0.1246 -0.0452
14099TIP3   OH263787   0.125   5.102   3.827 -0.2707 -0.2392 -0.4642
14099TIP3    H163788   0.166   5.032   3.880 -0.4075 -0.3559 -0.5118
14099TIP3    H263789   0.187   5.117   3.756 -0.4044 -0.5572 -0.6487
14100TIP3   OH263790   4.465   2.001  16.662 -0.1835  0.5193  0.2993
14100TIP3    H163791   4.431   1.933  16.721 -1.9991  2.4330  1.6322
14100TIP3    H263792   4.558   2.007  16.683 -0.1091 -1.0942  0.5749
14101TIP3   OH263793   0.219   0.651   0.794 -0.0186 -0.0984  0.3697
14101TIP3    H163794   0.134   0.637   0.836  0.0779  1.1941  1.0572
14101TIP3    H263795   0.265   0.568   0.805 -1.3681 -1.0034 -0.4901
14102TIP3   OH263796   6.691   2.849   0.682  0.2862  0.0323 -0.0851
14102TIP3    H163797   6.609   2.805   0.705  0.7110  0.0192  1.4691
14102TIP3    H263798   6.673   2.942   0.699  0.4627  0.0739 -0.1241
14103TIP3   OH263799   3.764   1.903  17.020  0.0807 -0.0313 -0.4411
14103TIP3    H163800   3.726   1.847  16.952 -1.8110 -0.0673  0.5801
14103TIP3    H263801   3.767   1.848  17.098  1.9339  0.1069 -0.3665
14104TIP3   OH263802   1.986   0.178  14.571  0.8485 -0.0218  0.1125
14104TIP3    H163803   1.901   0.161  14.530  1.3826 -0.7676 -0.7184
14104TIP3    H263804   2.041   0.208  14.500  1.2153  0.7331  0.7060
14105TIP3   OH263805   1.691   2.927  15.751 -0.3265 -0.3519 -0.3081
14105TIP3    H163806   1.664   2.950  15.663  2.3156  1.2318 -0.7989
14105TIP3    H263807   1.648   2.991  15.808 -0.5710 -0.2252 -0.6389
14106TIP3   OH263808   1.986   3.196  13.070 -0.2839 -0.1862  0.3784
14106TIP3    H163809   2.071   3.160  13.095  1.1777  1.5065 -1.7733
14106TIP3    H263810   1.998   3.291  13.070 -1.9318  0.0785 -0.6815
14107TIP3   OH263811   5.779   4.403  10.938 -0.0982 -0.4245  0.2595
14107TIP3    H163812   5.821   4.385  10.854 -2.2071  0.4956 -1.0795
14107TIP3    H263813   5.808   4.333  10.996 -1.2956 -3.1484 -2.2233
14108TIP3   OH263814   1.962   0.167   5.273 -0.3941 -0.0393  0.4177
14108TIP3    H163815   1.893   0.126   5.220 -0.0580  0.4517 -0.4194
14108TIP3    H263816   1.931   0.256   5.287  0.3703  0.3824 -0.5253
14109TIP3   OH263817   5.788   5.858   1.835 -0.5939  0.2980 -0.4621
14109TIP3    H163818   5.806   5.822   1.747 -0.7578  1.3366 -0.9296
14109TIP3    H263819   5.704   5.818   1.859  0.1356 -1.1250 -0.1377
14110TIP3   OH263820   0.379   5.093  15.744 -0.3780 -0.3318  0.5123
14110TIP3    H163821   0.352   5.132  15.827  1.3884 -1.2920  1.6052
14110TIP3    H263822   0.463   5.050  15.764  0.5017  0.0705 -1.9601
14111TIP3   OH263823   2.841   1.729  13.065 -0.2247 -0.6018 -0.9691
14111TIP3    H163824   2.807   1.789  12.999  0.0600 -0.0885 -0.6493
14111TIP3    H263825   2.772   1.722  13.131  0.6347  1.2289  0.1976
14112TIP3   OH263826   1.818   4.328   0.860  0.0744 -0.0520  0.0826
14112TIP3    H163827   1.732   4.295   0.884 -0.0356  0.2252  0.0700
14112TIP3    H263828   1.873   4.250   0.855  0.0858 -0.1278  1.1606
14113TIP3   OH263829   0.784   4.398  13.819 -0.3665 -0.0898 -0.0448
14113TIP3    H163830   0.798   4.458  13.745 -0.9295  0.2218  0.0975
14113TIP3    H263831   0.863   4.344  13.820 -0.3862 -0.1511 -0.9206
14114TIP3   OH263832   4.934   0.766   0.429 -0.4674 -0.3691  0.0867
14114TIP3    H163833   4.911   0.673   0.433  1.5287 -0.8869  1.6186
14114TIP3    H263834   5.003   0.771   0.363 -0.7900  0.0778 -0.2177
14115TIP3   OH263835   1.271   1.871   3.462 -0.2562 -0.5445  0.0279
14115TIP3    H163836   1.336   1.800   3.464  1.5311  1.0030 -0.1272
14115TIP3    H263837   1.290   1.922   3.541 -2.8911 -1.3211  1.2759
14116TIP3   OH263838   5.930   2.461   5.088 -0.7092  0.0662  0.3096
14116TIP3    H163839   6.022   2.453   5.114 -0.3147  1.8589 -0.4037
14116TIP3    H263840   5.881   2.453   5.170  0.1925  0.7994  0.9322
14117TIP3   OH263841   4.699   6.062  17.031  0.9094 -0.4172  0.0732
14117TIP3    H163842   4.663   6.003  16.965 -1.0826  0.7647  0.0159
14117TIP3    H263843   4.768   6.110  16.985 -1.2153  1.2248 -1.6270
14118TIP3   OH263844   4.032   3.481  12.712  0.0359  0.1805  0.3744
14118TIP3    H163845   3.969   3.411  12.730  2.1804 -1.9860 -0.0634
14118TIP3    H263846   4.042   3.527  12.795  0.0444 -1.3323  1.2356
14119TIP3   OH263847   4.115   0.270   1.130  0.1508 -0.0085  0.0330
14119TIP3    H163848   4.114   0.363   1.106 -5.0439 -0.3296 -2.2078
14119TIP3    H263849   4.115   0.224   1.046 -0.2195 -1.9687  1.0626
14120TIP3   OH263850   5.098   1.343  16.430  0.5676  0.2335  0.1124
14120TIP3    H163851   5.100   1.349  16.335  0.8084  0.8167  0.1468
14120TIP3    H263852   5.190   1.340  16.456  0.6441  2.8173  0.4504
14121TIP3   OH263853   0.679   2.785  11.612 -0.2829  0.2736 -0.2068
14121TIP3    H163854   0.719   2.756  11.531  0.6076  0.3429  0.2017
14121TIP3    H263855   0.615   2.851  11.586 -2.0482 -1.6705 -1.1283
14122TIP3   OH263856   3.466   3.966  12.095 -0.1859 -0.5998  0.3850
14122TIP3    H163857   3.409   3.896  12.127 -0.4728 -1.1233 -1.1898
14122TIP3    H263858   3.512   3.928  12.021  1.3619  0.1975  0.8955
14123TIP3   OH263859   1.714   0.868   0.480  0.6542  0.3273  0.3076
14123TIP3    H163860   1.732   0.775   0.490  0.1431  0.3010  1.0464
14123TIP3    H263861   1.638   0.884   0.536  0.1072  0.9840 -0.5917
14124TIP3   OH263862   0.663   3.452  13.221 -0.3224  0.0350 -0.2438
14124TIP3    H163863   0.570   3.453  13.243 -0.0993 -0.0997  0.7529
14124TIP3    H263864   0.672   3.380  13.158 -0.8961  0.0960 -0.4003
14125TIP3   OH263865   2.337   0.759   4.580  0.0090  0.1557 -0.2957
14125TIP3    H163866   2.277   0.795   4.644 -0.0906  2.0958 -1.4042
14125TIP3    H263867   2.408   0.721   4.632  0.0041  1.7954  0.9619
14126TIP3   OH263868   5.798   2.664  15.137  0.5545 -0.1885 -0.3336
14126TIP3    H163869   5.815   2.739  15.080  0.2131  0.1771  0.0304
14126TIP3    H263870   5.727   2.617  15.094 -1.5861  1.5447  1.0503
14127TIP3   OH263871   3.503   4.701   3.185 -0.4912  0.0451  0.0762
14127TIP3    H163872   3.576   4.733   3.238 -0.0510 -0.6789 -0.0817
14127TIP3    H263873   3.433   4.763   3.201  0.1364  0.7123  0.2887
14128TIP3   OH263874   5.329   3.068  12.106 -0.1257 -0.2287  0.1046
14128TIP3    H163875   5.375   3.118  12.174 -0.0229 -1.0841  0.6821
14128TIP3    H263876   5.399   3.030  12.053 -0.1724 -0.6698  0.3494
14129TIP3   OH263877   6.392   1.391   4.600 -0.3200 -0.2574 -0.2668
14129TIP3    H163878   6.364   1.307   4.563  0.9642 -0.5751 -0.5665
14129TIP3    H263879   6.378   1.454   4.529  0.3845 -0.5439 -0.6729
14130TIP3   OH263880   5.539   6.263   5.877 -0.1039 -0.0237 -0.1094
14130TIP3    H163881   5.587   6.302   5.804  1.9987 -0.5822  0.8875
14130TIP3    H263882   5.563   6.317   5.953 -0.8994 -0.4557  0.4564
14131TIP3   OH263883   2.707   3.773  10.202  0.0302  0.4533 -1.0146
14131TIP3    H163884   2.789   3.821  10.191 -0.2637  1.1905 -0.1864
14131TIP3    H263885   2.641   3.842  10.212 -0.2337 -0.0462  1.5079
14132TIP3   OH263886   5.071   2.814  16.328  0.1941  0.1345 -0.0087
14132TIP3    H163887   5.092   2.885  16.388  0.4607  0.9182 -0.9829
14132TIP3    H263888   5.032   2.746  16.382 -0.2940  1.1294  0.9204
14133TIP3   OH263889   3.753   6.668   5.764  0.0739 -0.1650 -0.3297
14133TIP3    H163890   3.743   6.617   5.684 -0.4998 -1.9188  0.7962
14133TIP3    H263891   3.701   6.621   5.829 -0.5394  1.9188  0.7885
14134TIP3   OH263892   3.865   1.854   2.064  0.5453 -0.2660 -0.3245
14134TIP3    H163893   3.955   1.822   2.062  0.9934  0.9311 -1.6927
14134TIP3    H263894   3.850   1.885   1.974 -0.6948  0.9537  0.2790
14135TIP3   OH263895   0.485   1.842  16.346 -0.1006  0.1696 -0.7739
14135TIP3    H163896   0.497   1.862  16.254 -1.1254 -2.7104 -1.6611
14135TIP3    H263897   0.393   1.815  16.353  0.7082 -2.6163  0.3965
14136TIP3   OH263898   4.693   0.846  12.744  0.1347  0.0576  0.2113
14136TIP3    H163899   4.677   0.791  12.668  0.2184 -0.5966  0.6601
14136TIP3    H263900   4.656   0.931  12.720  0.3183 -0.0855 -0.6244
14137TIP3   OH263901   5.884   3.261   1.994 -0.1766 -0.4066  0.1363
14137TIP3    H163902   5.832   3.334   1.962  1.6659  1.1932  0.5962
14137TIP3    H263903   5.863   3.254   2.087  2.3858  2.1510  1.0400
14138TIP3   OH263904   6.842   5.680   5.652  0.1788  0.5078 -0.0749
14138TIP3    H163905   6.936   5.677   5.636  0.0966  1.2212 -0.7113
14138TIP3    H263906   6.820   5.773   5.652 -0.2533  0.4479  1.7936
14139TIP3   OH263907   3.940   6.466   1.948  0.1053 -0.3551 -0.3610
14139TIP3    H163908   3.922   6.463   1.855  1.5597 -0.4445 -0.6641
14139TIP3    H263909   4.032   6.495   1.954 -0.3343  0.8901  1.0735
14140TIP3   OH263910   2.254   0.724   3.901  0.1363 -0.1479  0.2301
14140TIP3    H163911   2.291   0.656   3.845  1.0700  0.4827  0.0539
14140TIP3    H263912   2.228   0.678   3.981 -0.7649 -0.9710 -0.5096
14141TIP3   OH263913   4.874   0.794   5.186  0.8848 -0.6440  0.2936
14141TIP3    H163914   4.836   0.715   5.150  0.9842 -0.5445 -0.0324
14141TIP3    H263915   4.871   0.858   5.115 -0.2189 -0.0076  0.8879
14142TIP3   OH263916   6.657   5.440  16.406 -0.1466  0.1840  0.0633
14142TIP3    H163917   6.702   5.355  16.402 -2.6330 -1.2630  0.2298
14142TIP3    H263918   6.637   5.460  16.315 -1.1094 -0.3630  0.1355
14143TIP3   OH263919   4.806   2.809  14.451  0.0887 -0.2566 -1.1264
14143TIP3    H163920   4.739   2.832  14.387 -0.6379  0.0210 -0.2937
14143TIP3    H263921   4.881   2.864  14.428 -0.5269  0.6209 -1.1096
14144TIP3   OH263922   1.273   3.212   0.241  0.3051  0.3158  0.5610
14144TIP3    H163923   1.306   3.218   0.331  1.9199 -0.8604  0.0848
14144TIP3    H263924   1.346   3.176   0.191 -0.9197 -0.0687 -1.0281
14145TIP3   OH263925   2.214   2.213   2.259 -0.2750  0.0345  0.0990
14145TIP3    H163926   2.181   2.234   2.347  0.7643 -1.1153  0.8006
14145TIP3    H263927   2.188   2.122   2.245 -0.1502  0.1119 -0.6498
14146TIP3   OH263928   3.270   1.620  15.185 -0.0610 -0.2860  0.6763
14146TIP3    H163929   3.181   1.643  15.212  1.0753  2.1180  2.8227
14146TIP3    H263930   3.274   1.645  15.093 -1.6109 -0.4893  0.5298
14147TIP3   OH263931   1.797   2.514   2.021 -0.7379 -0.2860  0.3831
14147TIP3    H163932   1.740   2.573   2.070 -1.5969 -0.7757 -0.0088
14147TIP3    H263933   1.884   2.530   2.058 -0.4305  3.0534 -1.3515
14148TIP3   OH263934   6.085   0.194   4.048  0.1545 -0.6447  0.3209
14148TIP3    H163935   5.992   0.173   4.058  0.3801 -1.5677  0.5981
14148TIP3    H263936   6.105   0.171   3.957 -0.1543  0.6910 -0.1074
14149TIP3   OH263937   0.581   3.731  14.343  0.2670 -0.1870 -0.1669
14149TIP3    H163938   0.618   3.818  14.356 -0.2371 -0.0084  0.1036
14149TIP3    H263939   0.502   3.746  14.290  0.9611 -0.6411 -1.3680
14150TIP3   OH263940   3.174   4.114  15.081 -0.4257  0.0971 -0.0433
14150TIP3    H163941   3.148   4.191  15.130  0.0419 -0.3359  0.9140
14150TIP3    H263942   3.249   4.143  15.029  0.7690 -0.0772  1.5058
14151TIP3   OH263943   4.355   5.628   4.806  0.0363 -0.0554  0.4786
14151TIP3    H163944   4.446   5.655   4.820 -0.6060  3.8646 -1.5558
14151TIP3    H263945   4.326   5.595   4.891  3.0203 -0.4383  1.4546
14152TIP3   OH263946   3.651   0.874  17.131  0.1537 -0.2738 -0.1278
14152TIP3    H163947   3.572   0.904  17.085 -0.7714 -3.0145 -0.4961
14152TIP3    H263948   3.720   0.878  17.064 -0.5753 -1.5832 -1.0051
14153TIP3   OH263949   0.096   5.547  13.161 -0.8119  0.0492  0.3172
14153TIP3    H163950   0.176   5.582  13.121 -0.2798 -1.4105  0.0249
14153TIP3    H263951   0.126   5.500  13.239 -1.3338 -0.7339  0.0681
14154TIP3   OH263952   2.807   5.213  13.681  0.4829 -0.2981 -0.2541
14154TIP3    H163953   2.748   5.163  13.738 -0.5541 -1.1281 -1.9873
14154TIP3    H263954   2.782   5.304  13.696 -0.2381 -0.5426  0.1139
14155TIP3   OH263955   2.565   3.342   4.149  0.7106  0.3018  0.1721
14155TIP3    H163956   2.517   3.261   4.165  1.4834 -0.3456 -0.6734
14155TIP3    H263957   2.647   3.331   4.196  1.4050 -0.0185 -1.0731
14156TIP3   OH263958   2.244   4.640   0.157  0.4776 -0.1021 -0.5779
14156TIP3    H163959   2.182   4.625   0.086 -0.9773  0.6287  0.4701
14156TIP3    H263960   2.309   4.700   0.120 -1.5418  2.1794 -0.7050
14157TIP3   OH263961   1.710   5.873  12.404 -0.2097  0.4978  0.0926
14157TIP3    H163962   1.767   5.796  12.407 -0.7881  0.1012  1.2092
14157TIP3    H263963   1.699   5.891  12.310  2.4278  1.1196 -0.1815
14158TIP3   OH263964   5.854   2.721  14.167  0.2574 -0.0857  0.1879
14158TIP3    H163965   5.887   2.713  14.256 -1.6051  1.1353  1.0654
14158TIP3    H263966   5.921   2.773  14.121 -0.2537  2.2477  1.8614
14159TIP3   OH263967   5.495   1.959  14.053  0.6884  0.1346 -0.1295
14159TIP3    H163968   5.492   1.877  14.102 -1.0834  0.1321 -0.1582
14159TIP3    H263969   5.425   1.951  13.988  1.8313  0.8556 -1.4978
14160TIP3   OH263970   5.052   4.763  15.871 -0.1647  0.0954 -0.0149
14160TIP3    H163971   4.959   4.761  15.894 -0.0521 -1.2435  0.3805
14160TIP3    H263972   5.097   4.770  15.955  0.1387 -1.4024 -0.0242
14161TIP3   OH263973   6.682   4.684   5.667  0.1640 -0.2222  0.4408
14161TIP3    H163974   6.767   4.722   5.689  0.6393  0.6662 -2.5297
14161TIP3    H263975   6.676   4.691   5.572 -3.0220 -0.7805  0.4874
14162TIP3   OH263976   5.537   2.934  14.953  0.3573 -0.1700 -0.3473
14162TIP3    H163977   5.594   2.959  14.881 -0.0122  2.2834  0.0960
14162TIP3    H263978   5.553   3.000  15.021 -1.6926 -0.4260  0.4883
14163TIP3   OH263979   0.444   1.326  12.796 -0.5743  0.0069  0.4958
14163TIP3    H163980   0.360   1.322  12.750 -1.0408 -1.9575  1.4105
14163TIP3    H263981   0.468   1.234  12.809  1.4378  0.5295  0.7787
14164TIP3   OH263982   6.766   0.029   2.335 -0.5897  0.4136 -0.3681
14164TIP3    H163983   6.700   0.015   2.404  0.0904  2.1163  0.6928
14164TIP3    H263984   6.792  -0.059   2.310 -0.8120 -0.2870  1.6391
14165TIP3   OH263985   2.181   2.836   1.550  0.7542 -0.5147 -0.2813
14165TIP3    H163986   2.099   2.788   1.542 -0.3367  1.1664  0.3295
14165TIP3    H263987   2.156   2.921   1.588  2.6860  0.2849 -0.6764
14166TIP3   OH263988   5.775   0.352   5.498  0.1539 -0.3301 -0.2136
14166TIP3    H163989   5.770   0.432   5.550 -0.4224 -1.0844  0.9102
14166TIP3    H263990   5.684   0.335   5.471 -0.2293 -2.0941  1.9006
14167TIP3   OH263991   0.513   2.234  11.500  0.1408 -0.0384  0.5693
14167TIP3    H163992   0.535   2.152  11.455 -1.1983  0.2820 -0.7634
14167TIP3    H263993   0.424   2.254  11.471  0.6365  2.2028  0.3866
14168TIP3   OH263994   1.755   1.500   1.421  0.0848  0.1167  0.0562
14168TIP3    H163995   1.834   1.463   1.382 -0.3016  0.3651 -0.9915
14168TIP3    H263996   1.741   1.582   1.375 -0.0424  0.7386  1.1681
14169TIP3   OH263997   0.741   6.426  14.399  0.2459  0.3177  0.2267
14169TIP3    H163998   0.729   6.515  14.366 -1.1224 -0.0456 -0.3258
14169TIP3    H263999   0.739   6.371  14.321  2.7879 -0.0934  0.3872
14170TIP3   OH264000   0.119   3.857   3.750 -0.0337 -0.2083  0.1597
14170TIP3    H164001   0.144   3.937   3.796  0.1114 -0.0113 -0.2604
14170TIP3    H264002   0.024   3.864   3.740 -0.3593 -1.1212  2.0665
14171TIP3   OH264003   2.768   0.772  12.587  0.4331 -0.3645  0.2653
14171TIP3    H164004   2.780   0.686  12.548 -0.2630 -0.1264 -0.5168
14171TIP3    H264005   2.848   0.820  12.565  0.7386 -0.7366  0.5377
14172TIP3   OH264006   5.431   4.160  14.398 -0.0194 -0.4696 -0.2823
14172TIP3    H164007   5.514   4.164  14.352  0.0265  1.7061 -0.1088
14172TIP3    H264008   5.435   4.079  14.448  1.2828 -1.2261 -1.5477
14173TIP3   OH264009   2.672   1.016  11.165  0.2548  0.2870 -0.1933
14173TIP3    H164010   2.681   0.924  11.191  0.2693 -0.2963 -2.1108
14173TIP3    H264011   2.747   1.032  11.108  0.9490  1.9003  1.0812
14174TIP3   OH264012   0.814   0.952  17.049 -0.2889 -0.1700 -0.0045
14174TIP3    H164013   0.735   0.998  17.078  0.4809  1.5476 -0.5199
14174TIP3    H264014   0.794   0.923  16.960 -0.7792 -0.9108  0.3269
14175TIP3   OH264015   1.888   0.598  13.751  0.1018  0.1540 -0.1716
14175TIP3    H164016   1.895   0.507  13.782 -1.5226 -0.1542 -0.6483
14175TIP3    H264017   1.868   0.590  13.658 -0.2304  1.0162 -0.1793
14176TIP3   OH264018   3.113   5.616  13.435  0.2729  0.6484 -0.0743
14176TIP3    H164019   3.058   5.671  13.491  1.5109  0.0669  1.8261
14176TIP3    H264020   3.063   5.535  13.424  0.5772  0.2059  1.4662
14177TIP3   OH264021   5.582   1.500   4.674 -0.5125 -0.7236 -0.0478
14177TIP3    H164022   5.644   1.438   4.635 -1.0602 -0.7611 -0.8856
14177TIP3    H264023   5.566   1.564   4.605 -0.3906  0.0346  0.6199
14178TIP3   OH264024   5.334   2.691  15.156  0.1109 -0.2826  0.6955
14178TIP3    H164025   5.400   2.663  15.094 -0.5205  1.1027 -0.6595
14178TIP3    H264026   5.252   2.656  15.121 -0.4606  1.7650 -0.1452
14179TIP3   OH264027   5.112   5.785  12.774  0.7796 -0.2481  0.8425
14179TIP3    H164028   5.194   5.736  12.780  0.8059 -0.0624  2.4043
14179TIP3    H264029   5.044   5.719  12.762  1.0404 -0.4914  0.7186
14180TIP3   OH264030   1.138   4.377   2.015  0.4755 -0.7934 -0.1125
14180TIP3    H164031   1.181   4.434   1.951  0.8361 -1.4988 -0.5128
14180TIP3    H264032   1.048   4.367   1.982 -0.5392  1.9106  1.5216
14181TIP3   OH264033   4.711   2.346   1.170 -0.3206 -0.1186 -0.2572
14181TIP3    H164034   4.617   2.353   1.154 -0.0387 -0.2116 -2.2189
14181TIP3    H264035   4.738   2.436   1.191 -1.0341 -0.3293  1.8661
14182TIP3   OH264036   2.859   1.722   2.967 -0.0769 -0.9541 -0.4699
14182TIP3    H164037   2.892   1.644   3.013  1.7486  0.1232  0.1481
14182TIP3    H264038   2.806   1.767   3.033  0.3507 -0.7692 -0.2465
14183TIP3   OH264039   2.932   3.649   2.266 -0.1639  0.4790 -0.0098
14183TIP3    H164040   2.916   3.618   2.355 -1.0882 -0.4976 -0.5010
14183TIP3    H264041   3.000   3.592   2.232  0.4810  1.1120  0.1955
14184TIP3   OH264042   6.412   6.035  14.584  0.1710 -0.1475 -0.4023
14184TIP3    H164043   6.453   6.092  14.649  0.0897 -1.0130  0.4296
14184TIP3    H264044   6.486   5.995  14.537  0.3882 -2.3241  1.6326
14185TIP3   OH264045   4.344   2.597   2.776 -0.2014  0.5117  0.8289
14185TIP3    H164046   4.404   2.671   2.782 -0.0875  0.5100 -0.1653
14185TIP3    H264047   4.258   2.636   2.760 -0.0389  0.4199 -0.3455
14186TIP3   OH264048   4.990   0.692  11.823 -0.5748 -0.3631  0.1905
14186TIP3    H164049   4.961   0.725  11.738  0.8587 -0.5655 -0.4018
14186TIP3    H264050   4.988   0.597  11.815 -0.6569 -0.3868  0.4660
14187TIP3   OH264051   5.537   4.121  10.869 -0.2942 -0.4097 -0.0969
14187TIP3    H164052   5.628   4.108  10.845  0.1932  2.3909 -0.1131
14187TIP3    H264053   5.487   4.081  10.798  0.9487 -0.6818 -0.8435
14188TIP3   OH264054   2.941   0.237   4.941 -0.6059 -0.0106  0.1053
14188TIP3    H164055   2.953   0.264   4.850  1.6084  0.3510  0.4650
14188TIP3    H264056   2.988   0.302   4.992 -0.6184 -0.9927  1.4150
14189TIP3   OH264057   1.857   6.347  13.969 -0.1259  0.4788 -0.3315
14189TIP3    H164058   1.850   6.443  13.973 -2.6068  0.3375  0.2012
14189TIP3    H264059   1.905   6.324  14.049 -0.4136  1.2250  0.0769
14190TIP3   OH264060   4.469   1.673  13.524 -0.3065 -0.0151 -0.8960
14190TIP3    H164061   4.555   1.687  13.486  0.1476 -0.5430 -0.0871
14190TIP3    H264062   4.409   1.720  13.466  0.4631 -0.0551 -1.7417
14191TIP3   OH264063   5.383   4.635  12.769  0.7603  0.1232 -0.3468
14191TIP3    H164064   5.382   4.654  12.863 -1.3769 -0.9730 -0.0861
14191TIP3    H264065   5.327   4.703  12.731 -1.3026 -1.4650 -0.3045
14192TIP3   OH264066   5.409   4.634   4.962 -0.0179  0.3961  0.2276
14192TIP3    H164067   5.389   4.718   4.921  1.8507  0.4471 -0.6813
14192TIP3    H264068   5.481   4.599   4.910  0.0174 -1.2319  1.3159
14193TIP3   OH264069   1.708   4.252   5.173  0.0185 -0.1372 -0.3241
14193TIP3    H164070   1.703   4.160   5.148  1.1520 -0.0751 -0.8512
14193TIP3    H264071   1.618   4.277   5.191 -0.1401 -1.7655  1.4183
14194TIP3   OH264072   4.624   6.669   1.989  0.1131  0.5509  0.1817
14194TIP3    H164073   4.708   6.689   1.948  0.9229  0.0035  1.4969
14194TIP3    H264074   4.625   6.719   2.070 -0.5092 -0.0311  0.5561
14195TIP3   OH264075   4.783   4.852   1.098 -0.0008  0.3146 -0.1574
14195TIP3    H164076   4.830   4.934   1.083  0.1343  0.1104 -0.9232
14195TIP3    H264077   4.690   4.876   1.089 -0.0227  0.6014  0.7697
14196TIP3   OH264078   0.615   3.238  14.362  0.5614  0.6191 -0.2967
14196TIP3    H164079   0.702   3.237  14.402 -0.2872  1.4935  1.7152
14196TIP3    H264080   0.598   3.331  14.346 -0.0707  0.4703 -0.5114
14197TIP3   OH264081   6.297   0.483   4.959 -0.0626  0.4918 -0.8749
14197TIP3    H164082   6.261   0.397   4.938 -2.1541  1.1654 -0.2966
14197TIP3    H264083   6.266   0.502   5.048  1.0283  1.5174 -0.6759
14198TIP3   OH264084   5.777   6.380   3.367 -0.1077  0.6131 -0.2445
14198TIP3    H164085   5.832   6.445   3.324  0.2360  0.5811  0.1435
14198TIP3    H264086   5.704   6.367   3.306  0.2059  0.8025 -0.6691
14199TIP3   OH264087   1.907   5.262  16.949  0.0601  0.1873  0.3914
14199TIP3    H164088   1.944   5.191  16.897 -0.5263 -0.3128  0.6334
14199TIP3    H264089   1.816   5.268  16.919  0.0902  0.7913  0.4214
14200TIP3   OH264090   0.436   3.059   3.266  0.1830 -0.4666 -0.6694
14200TIP3    H164091   0.355   3.039   3.312  1.4371 -1.8282  1.0749
14200TIP3    H264092   0.453   2.981   3.212  0.5274 -0.3512 -0.7365
14201TIP3   OH264093   2.285   6.788  11.863  0.2282  0.2612 -0.6805
14201TIP3    H164094   2.230   6.744  11.927  1.4036  0.2588  0.3580
14201TIP3    H264095   2.315   6.868  11.907  1.7384 -0.1614 -0.8837
14202TIP3   OH264096   3.809   5.810   3.911 -0.2282  0.1263 -0.2000
14202TIP3    H164097   3.748   5.864   3.860 -0.4775  2.3287  2.2048
14202TIP3    H264098   3.753   5.759   3.970  0.0766  2.1335  1.9968
14203TIP3   OH264099   4.863   3.689  13.585 -0.3082  0.7021 -0.2255
14203TIP3    H164100   4.856   3.620  13.651  1.5793 -0.3881 -1.1052
14203TIP3    H264101   4.955   3.714  13.586 -0.8592  2.9398 -0.2424
14204TIP3   OH264102   1.266   1.092  12.272  0.2196 -0.0992 -0.3379
14204TIP3    H164103   1.271   1.001  12.243  1.4152 -0.7232  1.6592
14204TIP3    H264104   1.260   1.087  12.367  2.2488  1.9052 -0.0130
14205TIP3   OH264105   3.941   4.622   0.949  0.0424 -0.3857  0.1559
14205TIP3    H164106   3.941   4.715   0.923 -1.0522  0.1597  1.9357
14205TIP3    H264107   3.893   4.578   0.879 -0.0049  0.4797 -0.3835
14206TIP3   OH264108   4.650   4.070  12.998 -0.3534  0.4500 -0.5537
14206TIP3    H164109   4.567   4.104  12.963 -0.6352 -0.4493 -0.7633
14206TIP3    H264110   4.716   4.132  12.967 -1.0565  1.8559  0.5604
14207TIP3   OH264111   0.061   2.632   2.711  0.0291  0.1387  0.3899
14207TIP3    H164112  -0.031   2.613   2.690  0.5543 -1.3964 -0.6932
14207TIP3    H264113   0.089   2.693   2.643  0.2714 -0.7787 -0.3648
14208TIP3   OH264114   3.446   2.342  14.274  0.0575 -0.2127 -0.1371
14208TIP3    H164115   3.470   2.258  14.235  0.6306  0.0419 -0.3412
14208TIP3    H264116   3.497   2.407  14.225  1.3279  0.0752  1.4547
14209TIP3   OH264117   2.328   4.998  14.173  0.8582  0.5477  0.5790
14209TIP3    H164118   2.278   5.064  14.221 -1.3512 -0.6209  0.0032
14209TIP3    H264119   2.385   4.958  14.239 -0.4014  0.5718  1.7048
14210TIP3   OH264120   3.279   1.649  12.637 -0.1010 -0.2074  0.1035
14210TIP3    H164121   3.224   1.656  12.716  0.7418  0.8065  0.6189
14210TIP3    H264122   3.346   1.585  12.661  0.0582 -0.0230  0.1480
14211TIP3   OH264123   6.239   4.624  15.449  0.0468  0.4990 -0.3252
14211TIP3    H164124   6.314   4.570  15.475  1.1454  1.8613 -0.4813
14211TIP3    H264125   6.231   4.688  15.519 -1.2569  0.1285 -0.1174
14212TIP3   OH264126   4.420   4.963   1.765  0.1849  0.0856  0.0384
14212TIP3    H164127   4.393   4.936   1.678  0.9883 -0.4113 -0.0698
14212TIP3    H264128   4.373   5.045   1.781  0.7022  0.6594 -1.2330
14213TIP3   OH264129   4.910   1.104   2.346  0.3538 -0.3639  0.1064
14213TIP3    H164130   4.947   1.119   2.259  0.4001  0.6196  0.2878
14213TIP3    H264131   4.817   1.121   2.336  0.6328  1.7548  0.6727
14214TIP3   OH264132   4.221   4.363   5.200  0.2365  0.1617  0.3994
14214TIP3    H164133   4.142   4.417   5.197 -0.2233 -0.3981  1.6415
14214TIP3    H264134   4.293   4.425   5.198 -0.2617  0.7589  0.7028
14215TIP3   OH264135   1.512   4.051   6.038  0.1497  0.2992 -0.3546
14215TIP3    H164136   1.432   4.103   6.038 -0.3320 -0.4247 -0.7304
14215TIP3    H264137   1.550   4.065   6.125  0.4377  1.8633 -0.6870
14216TIP3   OH264138   0.768   4.793  14.133 -0.2436 -0.5163  0.2413
14216TIP3    H164139   0.674   4.801  14.151  0.1216 -0.3410  2.2919
14216TIP3    H264140   0.804   4.877  14.157  0.5209 -0.7494 -0.0708
14217TIP3   OH264141   0.941   5.120   3.265  0.4103  0.1754 -0.3605
14217TIP3    H164142   1.020   5.083   3.226  1.8701  1.0764  1.6077
14217TIP3    H264143   0.904   5.048   3.316  0.9932  0.2694  0.2003
14218TIP3   OH264144   4.806   3.513  13.791 -0.1530 -0.9601  0.1017
14218TIP3    H164145   4.888   3.469  13.811 -0.5238 -2.3714 -1.3012
14218TIP3    H264146   4.763   3.523  13.875  0.8494 -1.4491  0.6901
14219TIP3   OH264147   5.445   3.321  11.399 -0.2634  0.0554  0.2310
14219TIP3    H164148   5.510   3.296  11.334  0.6057  1.7858  0.3760
14219TIP3    H264149   5.362   3.288  11.365  0.3949 -0.3453 -1.0103
14220TIP3   OH264150   0.124   4.145   3.176 -0.2597  0.3258 -0.5481
14220TIP3    H164151   0.167   4.142   3.091 -0.8381  1.2675 -0.8922
14220TIP3    H264152   0.096   4.236   3.186 -0.4959  0.1546  0.5030
14221TIP3   OH264153   3.028   3.988   5.677 -0.8335  0.0758 -0.4600
14221TIP3    H164154   2.996   4.078   5.669 -1.4337 -0.1830 -1.1051
14221TIP3    H264155   3.038   3.974   5.771 -0.3923  0.9249 -0.3685
14222TIP3   OH264156   4.941   0.194  13.049 -0.6066  0.0507  0.0332
14222TIP3    H164157   4.918   0.134  13.119  0.8181  1.5839  1.9141
14222TIP3    H264158   4.963   0.138  12.974 -1.5048 -1.6373  0.9903
14223TIP3   OH264159   4.520   3.809   2.276  0.0599 -0.0769  0.1412
14223TIP3    H164160   4.474   3.733   2.313 -0.6458  0.7076  0.9150
14223TIP3    H264161   4.498   3.808   2.183 -0.0735 -0.7278  0.1755
14224TIP3   OH264162   0.242   3.999  12.609  0.3998  0.0318  0.1836
14224TIP3    H164163   0.162   3.973  12.654  0.2901  2.1236  1.3039
14224TIP3    H264164   0.225   3.979  12.517 -0.9478 -0.6328  0.5532
14225TIP3   OH264165   0.468   4.111   3.725 -0.5591 -0.0850  0.5186
14225TIP3    H164166   0.473   4.146   3.636 -0.9468 -1.5359 -0.1176
14225TIP3    H264167   0.469   4.187   3.782  0.2949  0.8549 -0.7067
14226TIP3   OH264168   5.989   3.957  12.747 -0.8436 -0.3388 -0.5984
14226TIP3    H164169   6.016   3.992  12.832 -2.1579 -0.6788 -0.0259
14226TIP3    H264170   6.006   3.863  12.754 -0.0327 -0.2438 -1.0922
14227TIP3   OH264171   3.883   2.488  13.502  0.4362  0.4264 -0.1890
14227TIP3    H164172   3.972   2.521  13.514  0.7844 -0.6892  0.4378
14227TIP3    H264173   3.827   2.563  13.523  1.2104  1.5442 -1.8869
14228TIP3   OH264174   6.585   1.890   0.365 -0.0052 -0.1478  0.1200
14228TIP3    H164175   6.548   1.850   0.443  0.5856  0.7957  0.9172
14228TIP3    H264176   6.522   1.872   0.296 -1.1763  0.0899  1.0900
14229TIP3   OH264177   0.135   4.856  15.211 -0.3544  0.3565 -0.1884
14229TIP3    H164178   0.134   4.798  15.287 -0.2911 -0.3574 -0.7136
14229TIP3    H264179   0.114   4.942  15.245  0.2560  0.1574  0.7262
14230TIP3   OH264180   6.147   2.069  15.482  0.4950  0.0722 -0.2905
14230TIP3    H164181   6.151   2.076  15.578  0.7919  1.0503 -0.3617
14230TIP3    H264182   6.079   2.131  15.456 -0.4053 -1.0315 -0.6479
14231TIP3   OH264183   4.710   6.344  16.756 -0.3594 -0.5207 -0.0331
14231TIP3    H164184   4.631   6.382  16.794  0.7124  0.1953  1.5972
14231TIP3    H264185   4.749   6.416  16.705  0.8514  0.1704  1.7734
14232TIP3   OH264186   2.947   0.133  16.045 -0.0251 -0.2275 -0.4997
14232TIP3    H164187   2.860   0.125  16.084 -0.7830 -0.9067 -2.2456
14232TIP3    H264188   2.938   0.095  15.958  2.1342 -0.6874 -0.5726
14233TIP3   OH264189   2.332   3.848   0.007  0.0751 -0.2326 -0.1127
14233TIP3    H164190   2.348   3.766  -0.041 -1.8998  0.1504 -1.5646
14233TIP3    H264191   2.310   3.911  -0.062  0.3080  1.2149  1.0950
14234TIP3   OH264192   5.464   1.803   3.094 -0.4262  0.0306 -0.0616
14234TIP3    H164193   5.522   1.757   3.033  0.1965  0.2955  0.3197
14234TIP3    H264194   5.438   1.737   3.157 -1.2853 -0.3092 -0.7530
14235TIP3   OH264195   6.763   5.626  13.634 -0.3753 -0.0279  0.1432
14235TIP3    H164196   6.722   5.606  13.550  0.5268 -0.1950 -0.2700
14235TIP3    H264197   6.736   5.716  13.653  0.7904  0.6404 -1.1835
14236TIP3   OH264198   3.094   6.289  16.985  0.3756 -0.0619 -0.1883
14236TIP3    H164199   3.041   6.218  16.949  0.9967 -0.4205 -0.4270
14236TIP3    H264200   3.095   6.355  16.915  0.4380 -0.1612 -0.2839
14237TIP3   OH264201   5.316   1.667  15.665  0.2224 -1.0592  1.0030
14237TIP3    H164202   5.349   1.616  15.591  1.1551  0.4793  0.3182
14237TIP3    H264203   5.229   1.695  15.637  0.7198 -0.1697  0.3151
14238TIP3   OH264204   2.341   0.195   2.268  0.0233 -0.9596  0.0969
14238TIP3    H164205   2.403   0.221   2.200 -1.0456  1.2200 -0.1409
14238TIP3    H264206   2.370   0.240   2.347 -0.9275 -0.3211  0.1051
14239TIP3   OH264207   1.686   2.082   0.694 -0.0065  0.2547  0.5060
14239TIP3    H164208   1.599   2.069   0.731 -0.0629 -0.9704 -0.0208
14239TIP3    H264209   1.685   2.173   0.663 -1.2616  0.1163  0.0931
14240TIP3   OH264210   3.841   3.216   0.642  0.5389 -0.2592  0.2297
14240TIP3    H164211   3.777   3.148   0.667 -0.8739  1.0855  0.4176
14240TIP3    H264212   3.874   3.187   0.557  0.5157 -1.5579  0.6362
14241TIP3   OH264213   0.644   2.041  10.680  0.1360  0.1342 -1.0756
14241TIP3    H164214   0.722   1.987  10.694  0.1078 -0.1207 -1.8605
14241TIP3    H264215   0.611   2.058  10.768  1.3797  0.7013 -0.6922
14242TIP3   OH264216   6.395   3.567  11.951  0.2664 -0.5730  0.6892
14242TIP3    H164217   6.468   3.514  11.919  1.3084  1.5795 -0.7087
14242TIP3    H264218   6.334   3.572  11.877  1.3737  2.1329 -0.1679
14243TIP3   OH264219   6.176   5.757   1.776 -0.0137  0.5859 -0.8337
14243TIP3    H164220   6.264   5.720   1.776  0.1517  0.9790 -0.9594
14243TIP3    H264221   6.171   5.805   1.859 -0.2127  0.3131 -0.6894
14244TIP3   OH264222   6.127   6.640  15.359  0.5034  0.5819 -0.3002
14244TIP3    H164223   6.109   6.580  15.431 -4.1006  1.7742 -0.1637
14244TIP3    H264224   6.147   6.723  15.403 -1.1942  1.0273 -0.2860
14245TIP3   OH264225   5.285   2.700  15.481 -0.2891 -0.1337  0.3424
14245TIP3    H164226   5.375   2.730  15.494  0.5035 -2.7766  1.6513
14245TIP3    H264227   5.254   2.749  15.405  0.7859  3.8646  2.2568
14246TIP3   OH264228   2.056   0.372  12.508 -0.1376 -0.3702  0.3760
14246TIP3    H164229   2.013   0.433  12.448  1.0974 -0.4379 -0.6017
14246TIP3    H264230   2.094   0.305  12.452  1.2708 -0.3028  1.1968
14247TIP3   OH264231   4.417   2.036  13.344 -0.2331  0.0268 -0.2285
14247TIP3    H164232   4.385   1.958  13.389 -1.3620  0.3540 -0.4354
14247TIP3    H264233   4.395   2.108  13.403  0.8398  0.1949 -0.0197
14248TIP3   OH264234   5.465   6.812   2.274  0.5668  0.6424  1.0177
14248TIP3    H164235   5.463   6.810   2.369 -2.1193 -0.9894  1.0451
14248TIP3    H264236   5.417   6.891   2.250 -1.4989 -0.4942  1.1367
14249TIP3   OH264237   3.159   1.210  11.636 -0.3389  0.2919 -0.1928
14249TIP3    H164238   3.133   1.269  11.565 -0.9950  0.8438  0.4919
14249TIP3    H264239   3.087   1.214  11.698 -0.3205 -1.1131 -0.0449
14250TIP3   OH264240   2.017   6.584   0.397 -0.5179 -0.5198  0.0770
14250TIP3    H164241   1.923   6.586   0.376 -0.3144  1.3347 -0.8165
14250TIP3    H264242   2.044   6.675   0.393  1.1946 -0.9473  1.0666
14251TIP3   OH264243   2.652   6.246   2.433  0.3691 -0.2499  0.0701
14251TIP3    H164244   2.688   6.299   2.504 -4.1679  1.9524  1.1180
14251TIP3    H264245   2.652   6.305   2.357  0.8030 -0.9157 -0.4546
14252TIP3   OH264246   2.128   1.132  12.566  0.0695 -0.6376  0.0291
14252TIP3    H164247   2.045   1.159  12.527  1.6930  0.0975 -3.2538
14252TIP3    H264248   2.116   1.146  12.660 -2.3516  2.7753 -0.6163
14253TIP3   OH264249   5.201   2.952  11.769 -0.1857 -0.3016 -0.2168
14253TIP3    H164250   5.209   2.886  11.700  1.3148 -0.7933  0.3805
14253TIP3    H264251   5.117   2.934  11.810 -0.5737 -0.7330 -1.1674
14254TIP3   OH264252   2.952   0.907  13.362 -0.2400 -0.3585 -0.7702
14254TIP3    H164253   2.868   0.863  13.372 -0.2308 -0.4450 -1.0499
14254TIP3    H264254   3.016   0.844  13.395 -0.4208  0.3844  1.0884
14255TIP3   OH264255   5.385   5.513   3.462 -0.3785 -0.2845  0.5748
14255TIP3    H164256   5.466   5.481   3.502  1.0262  1.5478 -0.6228
14255TIP3    H264257   5.406   5.519   3.368 -1.8592  0.3942  0.2588
14256TIP3   OH264258   6.835   3.085   2.710  0.7618 -0.0152  0.3169
14256TIP3    H164259   6.753   3.093   2.760  0.9640  0.3388  0.5948
14256TIP3    H264260   6.809   3.040   2.630  0.2484  0.2816  0.3068
14257TIP3   OH264261   2.468   1.093  15.426 -0.6200 -0.1370  0.4866
14257TIP3    H164262   2.535   1.050  15.479 -0.3033  0.6570  0.7463
14257TIP3    H264263   2.396   1.110  15.487 -0.2415  0.8087  0.6816
14258TIP3   OH264264   4.624   4.878  11.748  0.0208 -0.1966  0.3903
14258TIP3    H164265   4.677   4.946  11.790 -1.5002 -0.4694  2.9708
14258TIP3    H264266   4.556   4.858  11.813 -1.9765 -1.3310 -1.9231
14259TIP3   OH264267   6.517   3.758  13.515 -0.0805 -0.2585 -0.0746
14259TIP3    H164268   6.604   3.792  13.496  0.6620 -1.1170  1.6562
14259TIP3    H264269   6.506   3.685  13.454 -0.5640  1.2288 -1.8709
14260TIP3   OH264270   3.422   5.021   3.687 -0.7587  0.9873 -0.4532
14260TIP3    H164271   3.425   4.928   3.708 -0.4267  0.8824 -0.9502
14260TIP3    H264272   3.336   5.034   3.649 -0.2968  0.5897 -1.6817
14261TIP3   OH264273   1.821   0.386  16.662  0.0204 -0.2685 -0.3180
14261TIP3    H164274   1.902   0.370  16.614  0.0472 -2.5334  0.3806
14261TIP3    H264275   1.753   0.392  16.594  0.6251  0.9370 -0.8548
14262TIP3   OH264276   6.280   1.803  12.881  0.2376  0.3143  0.4563
14262TIP3    H164277   6.185   1.797  12.896  0.5870 -0.1509  2.7293
14262TIP3    H264278   6.291   1.771  12.791 -1.6431 -0.7314  0.5321
14263TIP3   OH264279   0.719   1.610  16.034 -0.0126 -0.5441 -0.3542
14263TIP3    H164280   0.736   1.529  16.082  0.4620 -1.0148 -1.2820
14263TIP3    H264281   0.755   1.679  16.090  1.6909 -1.1908 -0.5794
14264TIP3   OH264282   1.402   1.842   4.052 -0.5575 -0.1734 -0.2302
14264TIP3    H164283   1.342   1.894   4.106 -0.3140  0.6458 -0.7232
14264TIP3    H264284   1.347   1.775   4.012 -1.6720  1.9202 -2.4885
14265TIP3   OH264285   4.378   1.060   2.519 -0.4811  0.0621  0.0663
14265TIP3    H164286   4.438   1.070   2.593 -1.8010  0.0865  1.1754
14265TIP3    H264287   4.341   1.147   2.505 -1.5298 -0.2858  0.5368
14266TIP3   OH264288   2.620   1.571  12.028 -0.1024 -0.5726 -0.1175
14266TIP3    H164289   2.529   1.580  12.058  0.8852  0.7591  2.8412
14266TIP3    H264290   2.612   1.548  11.935 -3.4444 -1.1989  0.1866
14267TIP3   OH264291   4.974   6.146   5.992  0.3147 -0.2925 -0.3676
14267TIP3    H164292   5.002   6.221   5.939 -1.1600  1.3158  1.0288
14267TIP3    H264293   4.895   6.175   6.037  1.1215 -1.7654  2.2640
14268TIP3   OH264294   3.061   4.121   3.944  0.2208 -0.1392 -0.0517
14268TIP3    H164295   3.117   4.194   3.972 -0.0482 -1.3038  4.3772
14268TIP3    H264296   3.117   4.044   3.954 -0.5800 -0.8631 -1.0005
14269TIP3   OH264297   4.929   6.632  16.358 -0.1566  0.3366 -0.1121
14269TIP3    H164298   4.960   6.544  16.337 -0.5542  0.1435  0.1001
14269TIP3    H264299   5.008   6.680  16.382  0.3638  0.6632 -2.3253
14270TIP3   OH264300   0.989   6.607  11.126 -0.1820  0.0026 -0.4007
14270TIP3    H164301   0.928   6.617  11.053 -1.4072 -2.0187  0.2535
14270TIP3    H264302   1.025   6.519  11.115 -1.2933 -0.8627  1.9919
14271TIP3   OH264303   4.963   1.307  10.603 -0.1537 -0.4726  0.1545
14271TIP3    H164304   4.938   1.400  10.599  1.0286 -0.1273  0.4633
14271TIP3    H264305   4.910   1.271  10.674  1.2457  0.5983  1.8158
14272TIP3   OH264306   2.646   6.436   4.881 -0.1835 -0.6920 -0.2824
14272TIP3    H164307   2.552   6.421   4.884 -0.2681 -0.1485 -0.2405
14272TIP3    H264308   2.656   6.528   4.857  0.3465 -1.3048 -2.7250
14273TIP3   OH264309   5.845   0.352  15.537 -0.3013 -0.2565 -0.4353
14273TIP3    H164310   5.750   0.343  15.521 -0.3654  0.8626 -0.7178
14273TIP3    H264311   5.852   0.365  15.632 -0.4363 -0.2680 -0.4226
14274TIP3   OH264312   5.266   3.844   4.811  0.4165  0.4054  0.2672
14274TIP3    H164313   5.268   3.754   4.842 -2.4944  0.7172  1.7558
14274TIP3    H264314   5.308   3.895   4.879  0.3794  0.3529  0.3294
14275TIP3   OH264315   2.465   1.981   4.580  0.3614 -0.6203 -0.1345
14275TIP3    H164316   2.497   1.895   4.608  0.2627 -0.5593  0.1654
14275TIP3    H264317   2.377   1.963   4.546  1.1477 -0.9978 -2.1266
14276TIP3   OH264318   3.335   6.769   5.494 -0.0639  0.1377  0.2283
14276TIP3    H164319   3.315   6.847   5.443 -0.8673  0.3819  0.8959
14276TIP3    H264320   3.418   6.790   5.537 -0.6953  0.9910  1.0795
14277TIP3   OH264321   0.008   3.390  13.726 -0.6203  0.7716 -0.1665
14277TIP3    H164322   0.060   3.410  13.804 -2.2526  0.1491  1.1424
14277TIP3    H264323   0.007   3.295  13.721 -1.1889  0.7908 -0.4865
14278TIP3   OH264324   1.944   1.586   4.734  0.0871  0.1316  0.0407
14278TIP3    H164325   2.035   1.585   4.762  0.2746 -3.0226 -0.3587
14278TIP3    H264326   1.948   1.602   4.640  0.1548  0.8384  0.1602
14279TIP3   OH264327   0.222   3.733   5.101 -0.2766  0.4789 -0.3332
14279TIP3    H164328   0.185   3.663   5.047 -2.7329  1.0050  0.5149
14279TIP3    H264329   0.299   3.695   5.142 -1.3596 -1.6530 -0.1474
14280TIP3   OH264330   1.697   4.800  10.772 -0.0807  0.0901 -0.6654
14280TIP3    H164331   1.706   4.706  10.756  0.8892 -0.0105  0.3452
14280TIP3    H264332   1.687   4.839  10.685  1.1310 -0.7970 -1.2293
14281TIP3   OH264333   4.201   1.375   5.151  0.4940 -0.2230  0.4483
14281TIP3    H164334   4.172   1.285   5.161  2.0821 -0.6327  2.2840
14281TIP3    H264335   4.144   1.426   5.210  1.4502 -0.5500  1.7136
14282TIP3   OH264336   2.471   3.119   2.233 -0.4506 -0.5723 -0.0973
14282TIP3    H164337   2.530   3.067   2.288 -0.8143 -0.3994  0.4751
14282TIP3    H264338   2.498   3.209   2.249  0.3025 -0.5801 -1.2349
14283TIP3   OH264339   3.532   0.180  11.744 -0.2434 -0.4215  0.0725
14283TIP3    H164340   3.441   0.158  11.764 -0.5599  0.6112 -0.1885
14283TIP3    H264341   3.549   0.139  11.659 -0.3491 -0.9045  0.2794
14284TIP3   OH264342   4.482   3.688  11.196 -0.1500  0.5717  0.1551
14284TIP3    H164343   4.437   3.605  11.212 -1.8495  1.5409  0.7855
14284TIP3    H264344   4.517   3.680  11.108 -1.5467 -0.2962 -0.3597
14285TIP3   OH264345   3.166   4.152   4.243 -0.1372 -0.1914 -0.4283
14285TIP3    H164346   3.074   4.134   4.223  0.0880 -0.5644 -1.1950
14285TIP3    H264347   3.168   4.244   4.268 -0.7845 -0.2970  0.0269
14286TIP3   OH264348   4.036   6.665   1.162  0.1904 -0.0808 -0.3318
14286TIP3    H164349   4.045   6.695   1.253 -0.6997 -0.2342 -0.1738
14286TIP3    H264350   3.960   6.606   1.165 -0.0316  0.1493 -1.2295
14287TIP3   OH264351   2.409   4.616   2.947  0.3020 -0.1464  0.6588
14287TIP3    H164352   2.331   4.670   2.940 -0.8646 -1.7874  0.2414
14287TIP3    H264353   2.411   4.588   3.039  1.6349  1.5564  1.2084
14288TIP3   OH264354   6.668   5.270  14.663 -0.4493 -0.4900  0.0963
14288TIP3    H164355   6.683   5.307  14.576  0.3233  0.3519  0.5654
14288TIP3    H264356   6.577   5.243  14.663 -0.0400 -2.0682 -1.5504
14289TIP3   OH264357   6.463   2.496   4.550 -0.2351 -1.0152  0.2305
14289TIP3    H164358   6.398   2.566   4.542  1.0847  0.2225 -0.2225
14289TIP3    H264359   6.431   2.441   4.621 -1.6352 -0.2971  0.1811
14290TIP3   OH264360   1.344   6.091  17.028 -0.0894  0.0995 -0.1484
14290TIP3    H164361   1.389   6.009  17.048  1.4111  1.3567  2.0900
14290TIP3    H264362   1.380   6.118  16.943 -0.7631 -1.6089 -1.0192
14291TIP3   OH264363   3.657   2.827   0.505 -0.1604 -0.0976 -0.6537
14291TIP3    H164364   3.725   2.872   0.455 -0.6173  1.0406 -0.3034
14291TIP3    H264365   3.576   2.870   0.478 -0.4372  0.4402  0.9179
14292TIP3   OH264366   4.652   3.956  17.042  0.5474  0.3472  0.4928
14292TIP3    H164367   4.687   4.043  17.063  1.3767 -0.0313  0.7289
14292TIP3    H264368   4.563   3.957  17.079  1.0236  0.6390  1.6793
14293TIP3   OH264369   0.704   5.954   0.315  0.5522  0.2934 -0.2186
14293TIP3    H164370   0.796   5.982   0.314  0.2936  1.2056  0.3904
14293TIP3    H264371   0.676   5.961   0.224  1.1683 -0.2720 -0.4552
14294TIP3   OH264372   1.104   0.031   2.595  0.1972  0.1800  0.4922
14294TIP3    H164373   1.055   0.102   2.553  2.1233  1.5944  0.5087
14294TIP3    H264374   1.112   0.058   2.686 -0.2011 -0.7367  0.8080
14295TIP3   OH264375   0.416   4.730   0.449  0.1497  0.1121 -0.1933
14295TIP3    H164376   0.497   4.687   0.473 -0.3226  0.0656  1.4154
14295TIP3    H264377   0.348   4.665   0.467 -0.4289  0.9375  0.7206
14296TIP3   OH264378   4.401   4.398   0.935 -0.0785 -0.0148 -0.2165
14296TIP3    H164379   4.427   4.409   0.844 -0.2125 -2.1136 -0.5555
14296TIP3    H264380   4.344   4.473   0.952 -1.1898 -0.2895 -2.3087
14297TIP3   OH264381   6.842   4.645  11.387  0.4023  0.0778  0.3307
14297TIP3    H164382   6.791   4.680  11.460 -4.1032 -2.4130 -1.2298
14297TIP3    H264383   6.866   4.723  11.336 -2.5464  1.5418  0.8982
14298TIP3   OH264384   2.049   2.410   1.808  0.2438 -0.9969  0.0441
14298TIP3    H164385   2.134   2.452   1.794 -0.2041  0.4221  1.3447
14298TIP3    H264386   1.988   2.482   1.821 -0.7100 -2.0061  1.5118
14299TIP3   OH264387   6.203   0.444  11.265 -0.4251  0.3744 -0.3112
14299TIP3    H164388   6.221   0.427  11.173  2.7039 -1.3600  0.4809
14299TIP3    H264389   6.180   0.358  11.301 -2.5670  1.1819  0.4446
14300TIP3   OH264390   4.516   0.579  15.659  0.5308  0.1312  0.4552
14300TIP3    H164391   4.549   0.654  15.708 -1.4156  1.1172  0.3699
14300TIP3    H264392   4.426   0.568  15.689  0.3651 -1.3795 -0.4679
14301TIP3   OH264393   5.429   6.361  13.350 -0.1699  0.2750  0.1396
14301TIP3    H164394   5.372   6.335  13.421  0.4679 -0.3769  0.4267
14301TIP3    H264395   5.469   6.279  13.319  0.7670  0.7292  0.0907
14302TIP3   OH264396   3.804   3.836  16.359 -0.0704  0.3477  0.3655
14302TIP3    H164397   3.867   3.866  16.294  0.6159 -0.5263  0.6128
14302TIP3    H264398   3.724   3.820  16.310  0.1527  0.6467 -0.0978
14303TIP3   OH264399   4.865   0.036  13.243  0.6186  0.3374 -0.2487
14303TIP3    H164400   4.827   0.059  13.328 -1.7460  0.2077 -1.2023
14303TIP3    H264401   4.831  -0.052  13.225  2.9049 -0.5979 -0.3753
14304TIP3   OH264402   6.072   3.444   4.084 -0.0228  0.0170  0.3993
14304TIP3    H164403   6.111   3.522   4.124  2.2952 -1.4817  1.2539
14304TIP3    H264404   6.028   3.400   4.156 -0.9136  0.2777  0.0204
14305TIP3   OH264405   0.382   6.811   0.126  0.3259  0.2471 -0.6489
14305TIP3    H164406   0.331   6.857   0.193 -0.0950 -0.5230 -0.4160
14305TIP3    H264407   0.324   6.741   0.096  1.0976 -0.4017 -0.6720
14306TIP3   OH264408   1.832   6.122   5.190 -0.5182 -0.0197  0.2231
14306TIP3    H164409   1.825   6.063   5.265  0.4981  0.0487  0.3857
14306TIP3    H264410   1.769   6.192   5.208 -1.8718 -1.1179 -0.0603
14307TIP3   OH264411   0.137   4.195  14.662 -0.2368  0.4044 -0.0386
14307TIP3    H164412   0.157   4.142  14.584  2.1653  0.4575  0.4743
14307TIP3    H264413   0.048   4.226  14.647  0.2547  0.6810 -2.9415
14308TIP3   OH264414   3.816   6.277  15.701  0.2419  0.5391 -0.2340
14308TIP3    H164415   3.765   6.357  15.690 -0.6113  0.1385  0.5567
14308TIP3    H264416   3.751   6.206  15.691  0.9326 -0.0379 -0.6963
14309TIP3   OH264417   3.733   1.492  11.406  0.3171 -0.4461  0.3131
14309TIP3    H164418   3.771   1.437  11.337  1.1368  1.5229 -0.9033
14309TIP3    H264419   3.649   1.452  11.426 -0.6194 -0.3556 -2.8860
14310TIP3   OH264420   5.432   4.205   2.425 -0.1713 -0.3950 -0.4677
14310TIP3    H164421   5.385   4.124   2.404  1.6388 -1.6090 -0.0504
14310TIP3    H264422   5.524   4.179   2.431  0.2467  1.2585  1.7990
14311TIP3   OH264423   2.711   0.765  16.904 -0.3081  0.1000 -0.6676
14311TIP3    H164424   2.686   0.722  16.987 -2.1826  0.1957 -1.1373
14311TIP3    H264425   2.675   0.707  16.836  0.3695  0.5280 -1.4019
14312TIP3   OH264426   1.117   1.687   0.404  0.1148  0.1930  0.3778
14312TIP3    H164427   1.156   1.623   0.345  0.9252  0.0078  1.0869
14312TIP3    H264428   1.135   1.653   0.492  1.4986  1.8535  0.8176
14313TIP3   OH264429   4.821   2.592   0.785 -0.2167  0.1015 -0.3435
14313TIP3    H164430   4.835   2.526   0.717  0.4558  0.3363 -0.4330
14313TIP3    H264431   4.877   2.665   0.760  0.6306 -0.1093  0.8717
14314TIP3   OH264432   4.158   6.067  16.523 -0.3650  0.2356  0.1052
14314TIP3    H164433   4.219   6.108  16.584 -0.7638 -0.2543  0.8461
14314TIP3    H264434   4.143   6.134  16.455 -1.0190  1.3326  1.2918
14315TIP3   OH264435   3.075   1.478   0.892 -0.4509  0.3738  0.3114
14315TIP3    H164436   3.099   1.535   0.819  0.6163 -1.7132 -1.0606
14315TIP3    H264437   3.000   1.428   0.860 -0.9241  0.4817  1.2173
14316TIP3   OH264438   0.963   2.952   0.086  1.1876 -0.5597  0.4281
14316TIP3    H164439   1.022   2.930   0.014  3.2788  0.8696  1.5880
14316TIP3    H264440   0.970   3.047   0.095 -0.3291 -0.5069  1.4682
14317TIP3   OH264441   5.206   0.719   2.463 -0.7716  0.2507 -0.0356
14317TIP3    H164442   5.148   0.755   2.395  0.5506  1.0479 -0.7744
14317TIP3    H264443   5.282   0.687   2.416  0.4559  1.3858  1.0982
14318TIP3   OH264444   1.928   0.581  15.436  0.7198  0.1988  0.2395
14318TIP3    H164445   1.849   0.589  15.382  0.2967 -1.5134  0.5512
14318TIP3    H264446   1.998   0.561  15.373  0.5328 -0.2096  0.1593
14319TIP3   OH264447   0.319   1.653   4.025 -0.0737  0.6716  0.2920
14319TIP3    H164448   0.353   1.708   3.955 -0.2458 -0.4946 -0.7489
14319TIP3    H264449   0.308   1.712   4.100 -3.2159  2.8201 -1.6365
14320TIP3   OH264450   0.347   4.272   6.107  0.0699 -0.7020 -0.2345
14320TIP3    H164451   0.253   4.255   6.109 -0.1097  0.1829 -0.7236
14320TIP3    H264452   0.355   4.367   6.113  0.9348 -0.7654 -0.2168
14321TIP3   OH264453   5.241   4.968   4.235 -0.0843  0.0565 -0.4366
14321TIP3    H164454   5.323   4.921   4.246 -0.4360 -0.3622  0.4357
14321TIP3    H264455   5.202   4.931   4.156  0.9737  0.8875 -1.3817
14322TIP3   OH264456   4.083   4.216   3.032 -0.2181 -0.5106  0.3315
14322TIP3    H164457   4.074   4.139   3.087  0.0743 -1.7085 -1.2319
14322TIP3    H264458   4.015   4.206   2.965  0.1259  0.3583 -0.1712
14323TIP3   OH264459   3.772   6.200  13.237  0.4044  0.1972  0.0503
14323TIP3    H164460   3.725   6.116  13.231 -0.1326  0.5993 -2.4669
14323TIP3    H264461   3.763   6.226  13.328 -0.9706 -1.6119  0.4889
14324TIP3   OH264462   1.664   6.167   2.540 -0.1602 -0.2048 -0.1688
14324TIP3    H164463   1.584   6.203   2.502 -1.7574 -1.0511  2.1006
14324TIP3    H264464   1.715   6.244   2.566 -0.2471  0.3475 -1.5449
14325TIP3   OH264465   1.825   0.598   4.631  0.5440 -0.8219 -0.1063
14325TIP3    H164466   1.891   0.642   4.578  0.8758 -1.3056 -0.1029
14325TIP3    H264467   1.795   0.525   4.576 -0.7481 -0.0096 -0.5361
14326TIP3   OH264468   5.290   4.842  12.526  0.4444  0.3807  0.4500
14326TIP3    H164469   5.197   4.847  12.503  0.7780 -1.6927 -1.7265
14326TIP3    H264470   5.294   4.870  12.617 -2.1461  1.5341  0.2961
14327TIP3   OH264471   2.928   5.002   3.315 -0.0748 -0.5351  0.3615
14327TIP3    H164472   2.886   4.930   3.362 -0.3006 -0.5220  0.1827
14327TIP3    H264473   2.994   4.960   3.261 -0.9657 -0.7358 -0.6020
14328TIP3   OH264474   2.125   3.621   5.734  0.0650  0.2442 -0.2976
14328TIP3    H164475   2.101   3.594   5.644 -0.1525 -0.9607  0.0960
14328TIP3    H264476   2.196   3.684   5.722  0.0145  0.1329 -1.3234
14329TIP3   OH264477   4.455   6.767  10.903  0.1909 -0.3482 -0.1999
14329TIP3    H164478   4.549   6.787  10.906  0.5963 -1.7011 -2.1450
14329TIP3    H264479   4.421   6.820  10.832  0.2113 -2.3076 -1.7594
14330TIP3   OH264480   0.425   0.775  11.309 -0.2600  0.2732 -0.2646
14330TIP3    H164481   0.493   0.842  11.310  1.6683 -1.5113 -1.7870
14330TIP3    H264482   0.428   0.737  11.397 -0.9483  1.7117  0.4105
14331TIP3   OH264483   1.595   6.481   2.044  0.0225 -0.3641 -0.2285
14331TIP3    H164484   1.655   6.546   2.080 -0.0152 -0.9809  1.0011
14331TIP3    H264485   1.652   6.409   2.017 -0.0488 -0.3740 -0.3525
14332TIP3   OH264486   3.443   2.742  13.718  0.0157  0.2850  0.1451
14332TIP3    H164487   3.383   2.781  13.782  0.7718  1.6645  0.0476
14332TIP3    H264488   3.463   2.656  13.754  1.4051  1.4938  2.4669
14333TIP3   OH264489   6.416   4.582  16.579  0.5198 -0.2579  0.7153
14333TIP3    H164490   6.485   4.555  16.640 -1.6378 -0.2906  3.2976
14333TIP3    H264491   6.337   4.589  16.633 -1.8892 -1.6084 -2.3542
14334TIP3   OH264492   6.075   2.334  13.596 -0.0168 -0.4254  0.1174
14334TIP3    H164493   5.985   2.321  13.565  0.3741  0.9635 -1.7366
14334TIP3    H264494   6.097   2.251  13.639 -2.7399 -0.2181  2.1876
14335TIP3   OH264495   2.949   6.800  16.659 -0.2857  0.1904 -0.3596
14335TIP3    H164496   2.877   6.856  16.630 -0.0861  0.6568  0.0318
14335TIP3    H264497   3.024   6.828  16.605  0.3980  1.8917  1.3679
14336TIP3   OH264498   0.804   3.272  11.038  0.4657 -0.5615  0.0367
14336TIP3    H164499   0.818   3.361  11.069 -0.0730 -0.5230  0.1835
14336TIP3    H264500   0.756   3.229  11.109  3.4104 -1.9003  1.3477
14337TIP3   OH264501   3.441   2.611  12.346  0.5546 -0.6012  0.4081
14337TIP3    H164502   3.390   2.562  12.410 -0.2280  0.6755  0.7996
14337TIP3    H264503   3.520   2.560  12.334 -0.3307 -2.0841  0.6080
14338TIP3   OH264504   2.117   6.268   2.195  0.0732  0.1846 -0.2170
14338TIP3    H164505   2.045   6.330   2.204 -1.6658 -1.4389 -2.0859
14338TIP3    H264506   2.075   6.183   2.183  2.3074 -0.9212 -0.8235
14339TIP3   OH264507   3.714   1.885   0.979 -0.5690  0.4926 -0.0317
14339TIP3    H164508   3.787   1.913   0.923 -1.5805  0.5834 -1.3489
14339TIP3    H264509   3.694   1.796   0.950  0.6840 -0.5774  2.1163
14340TIP3   OH264510   5.310   6.580  12.658  0.2335  0.0605  0.1150
14340TIP3    H164511   5.272   6.510  12.711  0.5784 -0.6968 -0.6027
14340TIP3    H264512   5.287   6.661  12.704 -0.2490 -0.5169  0.9165
14341TIP3   OH264513   3.692   5.831  14.573 -0.0609  0.4162  0.1944
14341TIP3    H164514   3.690   5.927  14.573 -0.3921  0.4092  0.1839
14341TIP3    H264515   3.601   5.805  14.558 -0.1816  0.0984  1.3799
14342TIP3   OH264516   6.405   6.377  11.163 -0.0588 -0.2539  0.1858
14342TIP3    H164517   6.487   6.428  11.166 -1.0264  1.4877 -1.1908
14342TIP3    H264518   6.337   6.440  11.186 -0.9850 -1.9355  2.4098
14343TIP3   OH264519   6.607   3.588  15.677 -0.6301 -0.0332 -0.6928
14343TIP3    H164520   6.541   3.595  15.747 -0.1757  0.2045 -0.2785
14343TIP3    H264521   6.600   3.670  15.629 -0.2217  0.2585 -0.2675
14344TIP3   OH264522   0.665   0.306  16.069  0.0217  0.1368 -0.5261
14344TIP3    H164523   0.681   0.358  16.147  1.6223 -0.4910 -0.3894
14344TIP3    H264524   0.729   0.338  16.005 -1.0872  0.4658 -1.5074
14345TIP3   OH264525   0.349   2.210   1.344 -0.0941  0.5143  0.2242
14345TIP3    H164526   0.326   2.303   1.340 -1.0033  0.3155  0.4737
14345TIP3    H264527   0.397   2.200   1.426 -1.8830  0.3986  1.3156
14346TIP3   OH264528   0.915   4.657  12.741  0.0716 -0.1013  0.6511
14346TIP3    H164529   0.924   4.746  12.709  0.8272 -0.0791  0.9038
14346TIP3    H264530   0.850   4.663  12.811 -3.4746 -0.5393 -2.3253
14347TIP3   OH264531   2.617   1.186  14.712 -0.3782  0.3273 -0.4413
14347TIP3    H164532   2.575   1.120  14.767  1.8813 -1.2281 -0.4572
14347TIP3    H264533   2.577   1.173  14.626  0.1368 -1.1742 -0.4885
14348TIP3   OH264534   1.475   1.976  14.848  0.5274 -0.1708 -0.1347
14348TIP3    H164535   1.461   1.915  14.919  0.5239 -2.3234 -1.8768
14348TIP3    H264536   1.559   1.952  14.810  1.2564  1.9068  0.0175
14349TIP3   OH264537   1.219   4.400   5.734 -0.6828 -0.3170  0.4528
14349TIP3    H164538   1.288   4.464   5.752 -0.1724 -0.4279 -1.0152
14349TIP3    H264539   1.262   4.315   5.744 -0.7192 -0.3925 -0.0205
14350TIP3   OH264540   1.785   4.277  13.374  0.1525  0.0659  0.2237
14350TIP3    H164541   1.692   4.255  13.387  0.4909 -1.1624  0.6882
14350TIP3    H264542   1.792   4.368  13.404 -1.2178  0.7583 -1.3699
14351TIP3   OH264543   3.610   4.803  12.260  0.0572 -0.2386  0.3566
14351TIP3    H164544   3.702   4.826  12.274  0.2207 -1.7841  2.2369
14351TIP3    H264545   3.600   4.719  12.304 -1.8796 -0.9202 -1.2727
14352TIP3   OH264546   2.029   1.737  14.865  0.2906  0.4176 -0.7946
14352TIP3    H164547   1.984   1.761  14.784  1.1745 -0.4402 -1.5667
14352TIP3    H264548   2.062   1.820  14.899 -1.3431  0.9878 -0.5155
14353TIP3   OH264549   6.667   2.629  13.020  0.2783  0.3543 -0.3023
14353TIP3    H164550   6.722   2.573  13.075 -0.4773 -0.3826 -0.2765
14353TIP3    H264551   6.729   2.680  12.968  0.9862 -0.5246 -0.3388
14354TIP3   OH264552   3.955   3.996  16.177  0.6265  0.1563  0.2248
14354TIP3    H164553   3.902   4.076  16.179 -1.5587 -1.1468 -1.1434
14354TIP3    H264554   4.038   4.023  16.139  0.0404  1.8382  0.0719
14355TIP3   OH264555   3.450   3.573   5.740 -0.1042  0.8433  0.0558
14355TIP3    H164556   3.469   3.650   5.792  1.5025  0.5600 -0.0708
14355TIP3    H264557   3.535   3.542   5.709 -0.8283 -0.1853 -1.0366
14356TIP3   OH264558   4.980   0.413  11.802 -0.1260 -0.6394 -0.1702
14356TIP3    H164559   4.920   0.338  11.807  0.8182 -1.4707 -0.8691
14356TIP3    H264560   5.042   0.398  11.874 -0.5510  0.0351  0.3404
14357TIP3   OH264561   4.389   4.849   3.557 -0.0779 -0.3706  0.8517
14357TIP3    H164562   4.359   4.933   3.522  1.9873 -0.0760 -0.3564
14357TIP3    H264563   4.439   4.871   3.635  0.6580 -0.4525  0.4056
14358TIP3   OH264564   2.364   3.535  15.777  0.0846  0.0845 -0.3803
14358TIP3    H164565   2.332   3.626  15.773  1.5348  0.7143  1.1922
14358TIP3    H264566   2.302   3.491  15.835  0.4158  0.5589  0.3493
14359TIP3   OH264567   4.211   1.143   3.965 -0.1184  0.5142  0.3315
14359TIP3    H164568   4.155   1.193   3.906 -0.8898 -0.7198 -0.0294
14359TIP3    H264569   4.151   1.087   4.014  0.6965  0.0448  0.8203
14360TIP3   OH264570   5.330   6.808  10.779  0.1078 -1.0279  0.2523
14360TIP3    H164571   5.291   6.893  10.756 -0.5608 -1.6021 -0.8210
14360TIP3    H264572   5.273   6.774  10.847 -0.8056 -1.4810 -0.7105
14361TIP3   OH264573   2.141   5.537   5.112 -0.0038 -0.2496 -0.6182
14361TIP3    H164574   2.139   5.614   5.055  0.6469  0.0238 -0.2901
14361TIP3    H264575   2.203   5.560   5.181 -1.4009 -0.2305  0.6921
14362TIP3   OH264576   0.734   1.547  15.438  0.8030  0.3442  0.2775
14362TIP3    H164577   0.753   1.608  15.509  3.3028  0.9722 -0.7986
14362TIP3    H264578   0.747   1.460  15.475  2.7774  0.6826  0.4949
14363TIP3   OH264579   1.665   2.493  13.810 -0.7155  0.2119  0.2509
14363TIP3    H164580   1.721   2.567  13.787 -1.5527  0.8348  0.1557
14363TIP3    H264581   1.672   2.486  13.905  0.7278 -0.7178  0.1053
14364TIP3   OH264582   2.458   4.131   0.501  0.0384  0.3813 -0.2835
14364TIP3    H164583   2.471   4.042   0.532 -1.0456  0.2687 -0.1131
14364TIP3    H264584   2.482   4.129   0.408  0.3816  0.0122 -0.1890
14365TIP3   OH264585   3.851   0.642  12.075 -0.0602 -0.1705 -0.2401
14365TIP3    H164586   3.904   0.618  12.151 -0.1064  1.7052  0.4410
14365TIP3    H264587   3.772   0.681  12.112 -1.1216 -1.2740 -1.2631
14366TIP3   OH264588   2.455   3.352  14.217  0.0540 -0.2640 -0.3252
14366TIP3    H164589   2.425   3.383  14.302 -0.7178 -1.2020 -0.2441
14366TIP3    H264590   2.520   3.285  14.237  0.9011  0.4782 -0.4992
14367TIP3   OH264591   3.139   6.548   6.143  0.0544  0.1811  0.3818
14367TIP3    H164592   3.230   6.576   6.140 -0.1673  0.8674 -0.2915
14367TIP3    H264593   3.143   6.457   6.172  0.8147  0.8149  2.4359
14368TIP3   OH264594   2.009   2.584  12.041 -0.7502 -0.7325  0.6025
14368TIP3    H164595   2.085   2.529  12.023 -0.2644  0.2073 -0.3484
14368TIP3    H264596   1.934   2.529  12.021 -0.2576 -0.7079 -1.5175
14369TIP3   OH264597   3.014   3.729   4.180  0.2840  0.1637 -0.2433
14369TIP3    H164598   2.961   3.805   4.204 -0.8317 -0.2607 -1.2900
14369TIP3    H264599   2.977   3.699   4.097  0.8135 -1.4196  0.0670
14370TIP3   OH264600   3.754   6.282   3.531 -0.2199 -0.6960 -0.2206
14370TIP3    H164601   3.751   6.371   3.566  0.9122 -1.6953  2.6871
14370TIP3    H264602   3.676   6.239   3.567 -0.9115 -0.8463 -1.8309
14371TIP3   OH264603   3.132   1.864   5.811  0.3568  0.0541 -0.1860
14371TIP3    H164604   3.072   1.851   5.884  2.1723 -1.5441  1.1524
14371TIP3    H264605   3.186   1.939   5.836  0.6934 -0.2250 -0.0513
14372TIP3   OH264606   6.501   4.541   4.312  0.4353 -0.3350 -0.1881
14372TIP3    H164607   6.515   4.558   4.406  0.1621 -0.7842 -0.0616
14372TIP3    H264608   6.455   4.457   4.310 -0.4263  0.1339 -0.6785
14373TIP3   OH264609   5.217   3.181   5.000 -0.2544  0.3205  0.4275
14373TIP3    H164610   5.298   3.179   5.053  0.4811 -1.3516 -0.6728
14373TIP3    H264611   5.246   3.209   4.914 -1.2997  2.1012  0.6205
14374TIP3   OH264612   1.174   1.331  14.553  0.1406 -0.4932 -0.1690
14374TIP3    H164613   1.250   1.274  14.538  1.2138  0.6311  0.7182
14374TIP3    H264614   1.153   1.365  14.466  1.6669  0.3737 -0.2409
14375TIP3   OH264615   1.682   6.572   4.325  0.6661 -0.4725  0.7262
14375TIP3    H164616   1.714   6.580   4.415 -0.7323  2.6545  1.0728
14375TIP3    H264617   1.587   6.566   4.333  0.5958 -1.6277 -0.5455
14376TIP3   OH264618   0.412   2.087  16.684 -0.6073  0.2404 -0.3017
14376TIP3    H164619   0.404   1.995  16.661 -2.9094  0.4671 -0.7161
14376TIP3    H264620   0.418   2.133  16.600  2.5525  0.4320 -0.0904
14377TIP3   OH264621   3.080   5.295   1.956 -0.7677 -0.5369 -0.0519
14377TIP3    H164622   3.029   5.376   1.949 -1.8840 -1.2763 -0.8379
14377TIP3    H264623   3.156   5.319   2.009 -1.0846  1.0151 -0.2563
14378TIP3   OH264624   3.469   0.564  12.274  0.3343 -0.1183  0.4554
14378TIP3    H164625   3.551   0.608  12.255  0.3116 -1.1575 -2.8022
14378TIP3    H264626   3.488   0.506  12.347  2.2746  0.2394  0.2755
14379TIP3   OH264627   6.475   0.994   4.499  0.2806  0.0325 -0.7975
14379TIP3    H164628   6.556   0.993   4.550  1.1997  0.0922 -2.2047
14379TIP3    H264629   6.449   1.085   4.496  0.8915  0.2009 -1.4108
14380TIP3   OH264630   2.355   5.723  11.706 -0.3345  0.2015  0.0529
14380TIP3    H164631   2.427   5.769  11.749 -1.1626  1.4833  0.1330
14380TIP3    H264632   2.360   5.752  11.614  0.2541 -1.0196 -0.3240
14381TIP3   OH264633   3.881   6.675   1.656  0.2245  0.3319  0.1392
14381TIP3    H164634   3.854   6.738   1.589 -0.4762  0.5463  0.6074
14381TIP3    H264635   3.803   6.663   1.710 -0.2751 -2.4106 -1.0530
14382TIP3   OH264636   0.964   3.055  10.233  0.1505  0.4386 -0.2099
14382TIP3    H164637   1.047   3.060  10.185  1.2621 -1.6551  1.3013
14382TIP3    H264638   0.967   3.128  10.295  0.9108  0.3341 -0.1165
14383TIP3   OH264639   6.367   1.105  10.950  0.5209  0.1151 -0.7597
14383TIP3    H164640   6.350   1.182  10.895 -2.6089 -0.4352 -0.7851
14383TIP3    H264641   6.383   1.034  10.887  1.0656  0.2905 -0.8186
14384TIP3   OH264642   6.795   2.275   1.726  0.3916 -0.5559  0.0529
14384TIP3    H164643   6.799   2.352   1.782  2.1126 -0.7876  0.3176
14384TIP3    H264644   6.779   2.202   1.786 -0.9322 -0.4611 -0.1611
14385TIP3   OH264645   5.776   4.695  13.002  0.1718  0.0120  0.1243
14385TIP3    H164646   5.731   4.631  12.946  0.3589 -0.3587  0.3893
14385TIP3    H264647   5.812   4.642  13.073  0.5944  0.3769  0.1807
14386TIP3   OH264648   0.133   1.740   3.768  0.0395 -0.0380  0.0065
14386TIP3    H164649   0.105   1.704   3.684  0.4830 -0.8733  0.2031
14386TIP3    H264650   0.107   1.674   3.833 -2.1576  1.5029  0.8061
14387TIP3   OH264651   6.066   3.950  10.663 -0.3371 -0.5919 -0.0446
14387TIP3    H164652   6.006   3.877  10.651 -2.0793  0.8181 -0.2802
14387TIP3    H264653   6.089   3.978  10.574 -2.3607  1.1926 -0.0979
14388TIP3   OH264654   0.561   3.688   3.988  0.0138  0.0678 -0.2778
14388TIP3    H164655   0.574   3.783   3.985 -0.8837  0.2134  0.3184
14388TIP3    H264656   0.516   3.668   3.906  1.8513 -0.1299 -1.2993
14389TIP3   OH264657   2.999   6.093  16.798 -0.1558  0.0869 -0.2494
14389TIP3    H164658   3.094   6.097  16.792 -0.2385  2.6883 -0.9080
14389TIP3    H264659   2.969   6.096  16.707 -0.9229 -2.3872 -0.1625
14390TIP3   OH264660   3.620   4.659  11.506  0.1807  0.3971 -0.2937
14390TIP3    H164661   3.541   4.711  11.520  0.2183  0.2020  0.7174
14390TIP3    H264662   3.620   4.596  11.578  1.4434  0.6238 -0.0788
14391TIP3   OH264663   0.190   2.927  13.534 -0.1746 -0.1687 -0.3152
14391TIP3    H164664   0.254   2.898  13.470  0.4756  0.2526  0.1324
14391TIP3    H264665   0.105   2.899  13.498  0.3403 -1.8163 -0.3122
14392TIP3   OH264666   6.325   2.305   1.823  0.6357  0.1682  0.5692
14392TIP3    H164667   6.408   2.341   1.854  0.6187 -0.6769  1.6366
14392TIP3    H264668   6.299   2.241   1.889  0.2404 -1.2114 -0.8447
14393TIP3   OH264669   6.454   2.707   0.737  0.6354 -0.0892 -0.3915
14393TIP3    H164670   6.460   2.664   0.822  1.0223  0.7319  0.0053
14393TIP3    H264671   6.382   2.769   0.746  2.3483  1.9243  0.2457
14394TIP3   OH264672   3.587   4.761   2.923 -0.4064 -0.2285  0.0073
14394TIP3    H164673   3.569   4.676   2.883  0.8205 -0.9001  0.8138
14394TIP3    H264674   3.568   4.748   3.016  0.4837  0.1711  0.2484
14395TIP3   OH264675   4.264   0.097   0.509  0.5186  0.1102  0.5244
14395TIP3    H164676   4.273   0.031   0.579  1.1059  1.2366  1.5442
14395TIP3    H264677   4.171   0.118   0.508  0.5826  0.4830  1.3683
14396TIP3   OH264678   3.644   5.674  12.897 -0.0794  0.0671  0.0333
14396TIP3    H164679   3.676   5.634  12.978 -1.8781 -1.8332 -0.0853
14396TIP3    H264680   3.720   5.675  12.839  0.8335 -0.1079  1.1960
14397TIP3   OH264681   5.718   4.593   0.585  0.1626  0.2802  0.5376
14397TIP3    H164682   5.645   4.547   0.544  0.3488  1.0517 -0.7069
14397TIP3    H264683   5.682   4.628   0.667 -0.2902 -1.0542  0.9486
14398TIP3   OH264684   2.021   0.368   1.268 -0.1987  0.4146 -0.6894
14398TIP3    H164685   2.074   0.376   1.188  0.4805  1.4203 -0.1606
14398TIP3    H264686   2.085   0.350   1.337 -0.5993  1.0755 -0.1315
14399TIP3   OH264687   0.088   0.069  13.418 -0.0840  0.2565 -0.3526
14399TIP3    H164688   0.007   0.068  13.368  1.0654 -0.2954 -2.3343
14399TIP3    H264689   0.156   0.089  13.353  1.7926 -2.8969  0.4207
14400TIP3   OH264690   1.398   6.069  12.240  0.0279 -0.4153  0.5269
14400TIP3    H164691   1.405   6.153  12.286 -2.6889 -0.0696  0.4761
14400TIP3    H264692   1.467   6.073  12.174  2.1838  0.2729  2.6474
14401TIP3   OH264693   3.963   3.183  13.749  0.0771  0.6163 -0.0360
14401TIP3    H164694   3.926   3.117  13.809  2.5039  2.1388  3.4739
14401TIP3    H264695   3.893   3.248  13.740 -0.1089  0.7805  2.0064
14402TIP3   OH264696   0.456   3.071   4.607  0.0876  0.0547 -0.4352
14402TIP3    H164697   0.518   3.001   4.590  1.2049  1.0110 -0.3879
14402TIP3    H264698   0.508   3.141   4.645 -1.0523  0.8149 -0.2246
14403TIP3   OH264699   4.500   1.833   0.396 -0.0570  0.4012  0.6812
14403TIP3    H164700   4.497   1.842   0.491 -0.3372  0.1995  0.6901
14403TIP3    H264701   4.547   1.751   0.381 -1.3678 -0.3586  0.6735
14404TIP3   OH264702   3.152   6.732  15.609 -0.9087 -0.2712 -0.3558
14404TIP3    H164703   3.229   6.735  15.666 -1.3148  0.9790  0.1587
14404TIP3    H264704   3.155   6.645  15.571 -0.6910 -1.2325  1.6888
14405TIP3   OH264705   1.016   5.989   0.991 -0.0723 -0.5649 -0.1845
14405TIP3    H164706   1.087   5.991   0.927  2.2316  0.6902  2.2276
14405TIP3    H264707   0.939   6.016   0.942  1.6235  0.6117 -2.3805
14406TIP3   OH264708   3.362   6.001  11.313  0.0641  0.1055  0.3415
14406TIP3    H164709   3.294   6.010  11.246  0.1375 -1.9575 -0.0862
14406TIP3    H264710   3.315   5.972  11.391  0.2534  0.2904  0.5236
14407TIP3   OH264711   2.229   1.049  15.999 -0.4566  0.1983 -0.8202
14407TIP3    H164712   2.306   1.047  16.056 -0.1879 -2.2191 -1.1578
14407TIP3    H264713   2.156   1.029  16.057 -0.5263  0.2208 -0.8999
14408TIP3   OH264714   5.676   4.920   0.115 -0.0130 -0.1191 -0.3068
14408TIP3    H164715   5.737   4.989   0.142 -1.6185  0.3567  2.5204
14408TIP3    H264716   5.590   4.958   0.128 -0.9461 -2.0177 -0.5519
14409TIP3   OH264717   2.173   5.488   1.188  0.3720 -0.0291 -0.2709
14409TIP3    H164718   2.127   5.571   1.199 -0.1580 -0.3182 -0.2321
14409TIP3    H264719   2.217   5.496   1.103  1.7555  0.9424  0.5195
14410TIP3   OH264720   1.411   1.511  12.827 -0.3476  0.3932  0.0567
14410TIP3    H164721   1.442   1.591  12.871  0.5890 -0.5578  1.2164
14410TIP3    H264722   1.331   1.488  12.874  0.6826 -0.6536  1.3961
14411TIP3   OH264723   5.867   3.776  14.978  0.2390 -1.0435 -0.0466
14411TIP3    H164724   5.868   3.824  15.060  1.6850 -1.0538 -0.0329
14411TIP3    H264725   5.888   3.841  14.911 -0.8056 -1.0595 -0.4040
14412TIP3   OH264726   2.050   4.652   0.368  0.7257 -0.5771  0.3355
14412TIP3    H164727   2.131   4.610   0.340  1.1893  0.5705 -0.0666
14412TIP3    H264728   2.047   4.735   0.321  0.9051  0.8680  2.6933
14413TIP3   OH264729   6.803   3.946  12.649  0.0612  0.5428  0.0072
14413TIP3    H164730   6.758   3.939  12.733 -0.7471 -2.4961 -0.5450
14413TIP3    H264731   6.775   3.868  12.600  0.7047  2.0342 -2.9950
14414TIP3   OH264732   2.165   3.653  11.997  0.2959  0.0063  0.0172
14414TIP3    H164733   2.110   3.649  11.919 -2.1826 -0.2129  1.6678
14414TIP3    H264734   2.152   3.742  12.031 -0.3273 -0.5583  1.3011
14415TIP3   OH264735   0.197   3.024   4.725  0.4594 -0.2729 -0.9007
14415TIP3    H164736   0.280   3.045   4.681  0.1613  2.0609 -0.4832
14415TIP3    H264737   0.195   2.929   4.728  3.2473 -0.4169 -0.7146
14416TIP3   OH264738   5.872   2.633  13.187 -0.6626  0.8017  0.5504
14416TIP3    H164739   5.815   2.629  13.110 -0.8506 -0.6479  0.7327
14416TIP3    H264740   5.961   2.623  13.152 -0.7578 -0.0047  0.5107
14417TIP3   OH264741   1.797   2.946   3.165 -0.1166  0.1831  0.4168
14417TIP3    H164742   1.820   2.866   3.116 -1.2722 -0.6524  1.1813
14417TIP3    H264743   1.871   2.959   3.225  2.9004  2.9570 -3.3382
14418TIP3   OH264744   4.585   5.017   1.492  0.2605  0.6764 -0.3537
14418TIP3    H164745   4.569   4.969   1.411 -0.4971 -0.4374  0.4320
14418TIP3    H264746   4.669   4.986   1.524  0.2290  0.5980 -0.3491
14419TIP3   OH264747   4.612   1.914  15.017 -0.7534 -0.4156  0.4696
14419TIP3    H164748   4.562   1.907  15.098 -1.0128  0.1417  0.3614
14419TIP3    H264749   4.666   1.991  15.028 -3.4380  1.9477 -1.2661
14420TIP3   OH264750   3.713   3.736   1.110 -0.6107 -0.4597 -0.0611
14420TIP3    H164751   3.709   3.738   1.015 -0.1394 -2.1558 -0.1410
14420TIP3    H264752   3.798   3.698   1.130 -0.6947 -0.1026  1.0439
14421TIP3   OH264753   3.743   0.022  16.597 -0.0133  0.0873 -0.1508
14421TIP3    H164754   3.678   0.023  16.667  0.0754  0.9504 -0.0661
14421TIP3    H264755   3.812  -0.036  16.629 -0.8361 -1.0165 -0.3421
14422TIP3   OH264756   1.570   2.961   4.510  0.1012 -0.1641 -0.0225
14422TIP3    H164757   1.477   2.964   4.529  0.3355 -0.2207  1.2209
14422TIP3    H264758   1.576   2.979   4.416 -1.0931  0.7165  0.0507
14423TIP3   OH264759   2.163   2.673   2.209 -0.2158  0.1404 -0.1277
14423TIP3    H164760   2.111   2.593   2.198 -0.5902  0.4232 -0.4817
14423TIP3    H264761   2.253   2.643   2.218 -0.3782 -0.3321 -0.0606
14424TIP3   OH264762   0.673   0.712  13.056  0.7537 -0.0223 -0.1187
14424TIP3    H164763   0.738   0.703  13.126  1.0368 -0.0599 -0.3824
14424TIP3    H264764   0.628   0.627  13.054 -0.0556  0.3634  0.7906
14425TIP3   OH264765   4.332   3.873  13.104 -0.2996 -0.0463  0.1048
14425TIP3    H164766   4.370   3.960  13.120  1.6591 -0.7290 -0.5515
14425TIP3    H264767   4.345   3.825  13.186  0.3798 -0.3123 -0.1521
14426TIP3   OH264768   0.583   1.705   3.893  0.6151  0.5689 -0.2074
14426TIP3    H164769   0.659   1.761   3.907  1.0508  0.0237 -0.3458
14426TIP3    H264770   0.595   1.631   3.953 -0.9241  1.5342  1.3836
14427TIP3   OH264771   1.263   3.856  11.978 -0.0393 -0.4446  0.1437
14427TIP3    H164772   1.308   3.829  12.059 -0.6311  0.1170  0.6733
14427TIP3    H264773   1.334   3.878  11.918  0.4153 -0.2650  0.7261
14428TIP3   OH264774   4.042   1.301   2.366  0.2522 -0.0121  0.5054
14428TIP3    H164775   3.958   1.332   2.399 -0.1882 -0.9525  0.2816
14428TIP3    H264776   4.023   1.218   2.323  0.8374  1.0761 -1.9916
14429TIP3   OH264777   0.929   5.329   5.255 -0.3018  0.2631  0.0902
14429TIP3    H164778   0.833   5.327   5.251 -0.2923 -0.8429  0.2515
14429TIP3    H264779   0.951   5.269   5.327  0.6565 -2.4949 -2.3331
14430TIP3   OH264780   6.030   1.443  14.416  0.2363  0.4069  0.2363
14430TIP3    H164781   6.080   1.361  14.427 -0.0356  0.1934 -0.0845
14430TIP3    H264782   5.985   1.432  14.332 -0.5476  0.4947  0.6347
14431TIP3   OH264783   0.892   1.288   1.887 -0.3259 -0.5866  0.1146
14431TIP3    H164784   0.816   1.246   1.848 -0.6794 -0.2617  0.4516
14431TIP3    H264785   0.963   1.273   1.823 -1.1482  0.9051 -1.2282
14432TIP3   OH264786   1.005   4.627  16.923  0.0374  0.2339 -0.3451
14432TIP3    H164787   0.926   4.673  16.950  0.6639  1.1301  0.0414
14432TIP3    H264788   1.055   4.616  17.004  0.1309 -0.7046 -0.5130
14433TIP3   OH264789   1.031   6.287  11.419  0.5213 -0.2335 -0.1888
14433TIP3    H164790   1.082   6.345  11.362  0.5516  0.1715  0.2395
14433TIP3    H264791   1.002   6.344  11.491  0.5672 -0.7566  0.2516
14434TIP3   OH264792   4.012   2.280  11.530 -0.1869  0.1284 -0.1575
14434TIP3    H164793   4.062   2.255  11.607  1.2064  0.6291 -0.8672
14434TIP3    H264794   4.014   2.376  11.530  1.0024  0.1327 -1.5195
14435TIP3   OH264795   0.192   3.365   0.105  0.5410  0.6680  0.5330
14435TIP3    H164796   0.130   3.343   0.035 -1.0226  1.2170  1.6801
14435TIP3    H264797   0.255   3.425   0.064 -0.4374  1.1050 -0.3677
14436TIP3   OH264798   3.758   0.656  14.950  0.2586  0.2942  0.9788
14436TIP3    H164799   3.731   0.583  15.006 -0.3544 -0.5118 -0.3057
14436TIP3    H264800   3.821   0.617  14.888 -0.5534  0.6767 -0.1245
14437TIP3   OH264801   3.417   0.974   3.827 -0.2960 -0.0768 -0.3833
14437TIP3    H164802   3.402   1.059   3.785  0.4752 -0.5808 -1.7437
14437TIP3    H264803   3.336   0.956   3.875 -0.6041  1.2501 -0.3493
14438TIP3   OH264804   3.375   2.260   2.062 -0.4312  0.5191 -0.3304
14438TIP3    H164805   3.329   2.333   2.020 -1.4140  0.4738  0.6252
14438TIP3    H264806   3.323   2.240   2.140  2.2060  1.7240  1.9276
14439TIP3   OH264807   1.467   5.528  11.837 -0.2774 -0.0066  0.3369
14439TIP3    H164808   1.485   5.439  11.807 -2.3586 -1.6193  3.2836
14439TIP3    H264809   1.378   5.546  11.807  0.5373  1.6746 -1.2658
14440TIP3   OH264810   4.786   4.648  13.977  0.2569  0.3139 -0.0972
14440TIP3    H164811   4.865   4.597  13.959 -0.4806 -1.0544  0.4585
14440TIP3    H264812   4.818   4.738  13.986  1.6928 -0.1507 -0.2620
14441TIP3   OH264813   3.652   4.746  12.647 -0.0044  0.5325 -0.2601
14441TIP3    H164814   3.591   4.820  12.640  0.2325  0.7869  0.3030
14441TIP3    H264815   3.595   4.670  12.660 -0.1766  1.0106  2.2231
14442TIP3   OH264816   2.153   5.082  11.198 -0.0638 -0.0608  0.4927
14442TIP3    H164817   2.189   5.126  11.120 -0.9961 -1.0816 -0.5523
14442TIP3    H264818   2.229   5.041  11.239  0.5822  1.2251  0.6479
14443TIP3   OH264819   4.518   3.112  15.873 -0.0487 -0.4551  0.1654
14443TIP3    H164820   4.564   3.182  15.828 -1.2642 -0.1971 -0.7325
14443TIP3    H264821   4.517   3.139  15.965 -0.7516  0.8891 -0.2062
14444TIP3   OH264822   1.933   6.715  12.865  0.6822 -0.6089 -0.3585
14444TIP3    H164823   1.915   6.653  12.936  0.4280 -0.4289 -0.2639
14444TIP3    H264824   1.945   6.799  12.910 -3.3427  0.3767 -0.7325
14445TIP3   OH264825   3.457   0.579   2.339  0.1522 -0.2045 -0.4626
14445TIP3    H164826   3.481   0.607   2.427 -2.1702  0.8470 -0.1055
14445TIP3    H264827   3.473   0.485   2.339 -0.0655 -0.2712  1.1701
14446TIP3   OH264828   1.505   2.441   5.544  0.0138  0.1167 -0.2078
14446TIP3    H164829   1.438   2.501   5.513  0.0377  1.1699  1.6524
14446TIP3    H264830   1.463   2.392   5.615  0.8597  0.0139  0.2452
14447TIP3   OH264831   0.435   4.285   3.930 -0.0872  0.4478 -0.3810
14447TIP3    H164832   0.408   4.241   4.010  2.3990  2.0219  1.4618
14447TIP3    H264833   0.359   4.339   3.905 -1.1105 -0.5298  0.4995
14448TIP3   OH264834   3.040   5.726   5.976  0.1277 -0.0724 -0.5052
14448TIP3    H164835   3.023   5.755   5.886 -1.3001 -0.6748 -0.4510
14448TIP3    H264836   2.996   5.791   6.031 -0.7261 -0.8028 -0.3091
14449TIP3   OH264837   2.228   6.704   5.831  0.0070 -0.5449 -0.4604
14449TIP3    H164838   2.307   6.661   5.862  1.4279 -0.9378 -4.0842
14449TIP3    H264839   2.244   6.797   5.842 -0.3098 -0.6678  1.3927
14450TIP3   OH264840   4.509   4.835  16.442 -0.0250 -0.1300  0.0239
14450TIP3    H164841   4.512   4.891  16.364  1.0366 -0.1456  0.0393
14450TIP3    H264842   4.428   4.785  16.432  0.5202 -0.7717 -1.5337
14451TIP3   OH264843   6.054   5.153   0.419  0.4446 -0.0737 -0.0618
14451TIP3    H164844   6.048   5.192   0.506  2.1305  0.9261 -0.3412
14451TIP3    H264845   6.083   5.064   0.435  1.6156  0.3658  0.3995
14452TIP3   OH264846   5.008   5.398   5.333  0.0332 -0.3650  0.1543
14452TIP3    H164847   4.982   5.376   5.243  0.6183  0.4465 -0.2284
14452TIP3    H264848   5.083   5.457   5.322 -0.9704  1.1509  1.1263
14453TIP3   OH264849   6.073   4.655   4.591  0.1817 -0.1016 -0.1839
14453TIP3    H164850   6.049   4.733   4.542  1.7080 -0.9214 -2.3877
14453TIP3    H264851   6.060   4.583   4.530 -0.8215 -1.5817  1.6592
14454TIP3   OH264852   1.797   4.186   1.322  0.3331  0.3508  0.1167
14454TIP3    H164853   1.787   4.093   1.344  0.1813  0.5025  0.7154
14454TIP3    H264854   1.739   4.200   1.248 -0.5497  0.2244  0.7597
14455TIP3   OH264855   3.686   2.797   1.750  0.4229  0.2353  0.3656
14455TIP3    H164856   3.603   2.844   1.761 -0.0585 -0.5730  0.2238
14455TIP3    H264857   3.684   2.728   1.816  1.5662  0.9892  1.2432
14456TIP3   OH264858   4.573   5.296  11.636  0.2079  0.4532 -0.1271
14456TIP3    H164859   4.645   5.292  11.700  1.2220  0.1875 -1.2543
14456TIP3    H264860   4.617   5.295  11.551 -1.1120  1.1361 -0.8324
14457TIP3   OH264861   1.226   5.819   1.356 -0.0919 -0.7965 -0.1074
14457TIP3    H164862   1.176   5.851   1.432 -0.5262  0.1170 -0.7662
14457TIP3    H264863   1.210   5.724   1.356  0.5145 -0.9213  1.3601
14458TIP3   OH264864   6.796   2.006  14.220 -0.2841 -0.1796 -0.6586
14458TIP3    H164865   6.804   2.074  14.152  1.1772  0.3354 -0.0112
14458TIP3    H264866   6.867   1.945  14.201  0.4674  0.2419  0.6852
14459TIP3   OH264867   5.019   2.468   1.843  0.3573 -0.2020  0.2564
14459TIP3    H164868   5.010   2.540   1.905  1.5933  0.2404 -0.0558
14459TIP3    H264869   5.055   2.509   1.764 -0.2217 -0.9337 -0.4078
14460TIP3   OH264870   0.286   1.126  11.391  0.2834  0.1163 -0.1040
14460TIP3    H164871   0.198   1.158  11.407  0.3168  0.2681 -0.2192
14460TIP3    H264872   0.292   1.044  11.440  0.2857  0.4185  0.3977
14461TIP3   OH264873   2.011   1.232  13.231 -0.3378  0.4221 -0.2048
14461TIP3    H164874   2.056   1.149  13.213 -0.4816  0.5105 -1.0476
14461TIP3    H264875   2.052   1.295  13.172 -0.4981  0.8566  0.1466
14462TIP3   OH264876   0.413   4.836  16.259 -0.0023 -0.2348 -0.1318
14462TIP3    H164877   0.478   4.890  16.304  2.1272 -3.1192  0.6087
14462TIP3    H264878   0.341   4.828  16.321  0.4022  0.3527  0.4287
14463TIP3   OH264879   6.026   0.488   3.008  0.0332  0.6605  0.1133
14463TIP3    H164880   6.017   0.509   2.915  1.8757 -0.6919 -0.4388
14463TIP3    H264881   6.106   0.534   3.035 -0.5612  1.1489  1.0835
14464TIP3   OH264882   1.020   3.190   4.790 -0.5607  0.1979  0.3321
14464TIP3    H164883   0.945   3.186   4.848 -0.3521  0.1821  0.6029
14464TIP3    H264884   0.994   3.250   4.720 -0.8396  0.1543  0.4007
14465TIP3   OH264885   2.308   5.866  12.992 -0.3754  0.4841 -0.5142
14465TIP3    H164886   2.368   5.894  13.062  0.5158 -0.3881 -0.8991
14465TIP3    H264887   2.267   5.947  12.962  0.0857  1.0153  0.2481
14466TIP3   OH264888   4.635   0.391  14.221  0.1402  0.3480 -0.5661
14466TIP3    H164889   4.541   0.380  14.235  0.2799 -0.5002 -0.1817
14466TIP3    H264890   4.651   0.351  14.136  0.1278  0.6457 -0.7089
14467TIP3   OH264891   1.242   0.382   3.577 -0.4390 -0.0566  0.2459
14467TIP3    H164892   1.182   0.319   3.537  0.9218 -1.3126  0.0704
14467TIP3    H264893   1.186   0.446   3.620 -1.9346  0.0936 -1.7801
14468TIP3   OH264894   1.149   3.133  14.180 -0.0138 -0.3483 -0.4853
14468TIP3    H164895   1.207   3.083  14.123 -0.7754  0.7264 -2.3220
14468TIP3    H264896   1.072   3.077  14.192  0.7019 -1.1256  0.6446
14469TIP3   OH264897   3.365   6.031  13.418 -0.2879 -0.6327 -0.1191
14469TIP3    H164898   3.305   6.039  13.344  2.4496  0.0663 -2.3941
14469TIP3    H264899   3.392   5.939  13.418 -0.2934 -0.6355  0.0478
14470TIP3   OH264900   3.197   1.322  12.408 -0.3800  0.2303  0.9740
14470TIP3    H164901   3.253   1.385  12.362 -2.0780  1.7494  0.8892
14470TIP3    H264902   3.244   1.239  12.401 -0.1545  0.5019 -2.8900
14471TIP3   OH264903   1.981   4.691   5.112 -0.5266 -0.5673 -0.1639
14471TIP3    H164904   2.007   4.735   5.031 -0.9375 -3.2577 -1.8819
14471TIP3    H264905   1.885   4.696   5.113 -0.7962 -3.4223 -1.7478
14472TIP3   OH264906   1.552   4.468  15.389 -0.0795 -0.6176  0.2785
14472TIP3    H164907   1.615   4.397  15.379 -0.5942 -1.0354 -0.0395
14472TIP3    H264908   1.467   4.425  15.393 -0.2923 -0.1273  1.6393
14473TIP3   OH264909   6.121   1.975   3.598  0.1106  0.0080  0.0445
14473TIP3    H164910   6.196   1.960   3.542  0.0081 -0.8236  0.1179
14473TIP3    H264911   6.068   1.896   3.590 -0.9655  0.7380 -0.3146
14474TIP3   OH264912   6.183   1.372  13.597  0.2389 -0.0173 -0.2480
14474TIP3    H164913   6.155   1.281  13.580 -0.2589  0.0032  0.4087
14474TIP3    H264914   6.233   1.367  13.678 -1.9170  0.6399  1.1942
14475TIP3   OH264915   2.619   2.363  16.195 -0.0776  0.2955  0.2562
14475TIP3    H164916   2.670   2.411  16.260 -2.1065  2.4462  0.3473
14475TIP3    H264917   2.568   2.300  16.246 -0.0344  0.4549  0.4922
14476TIP3   OH264918   5.418   3.016   2.091  0.1730  0.0061  0.0192
14476TIP3    H164919   5.511   2.994   2.093  0.5389  1.1969 -1.7984
14476TIP3    H264920   5.415   3.110   2.075 -1.3333 -0.1547 -0.9147
14477TIP3   OH264921   0.010   1.532  10.617 -0.0483 -0.0842 -0.4236
14477TIP3    H164922  -0.037   1.466  10.566  0.4532  1.7620 -3.5202
14477TIP3    H264923   0.100   1.500  10.619 -0.2377 -0.6030  0.1341
14478TIP3   OH264924   4.545   2.103   5.327  0.2766  0.1063 -0.2856
14478TIP3    H164925   4.536   2.083   5.420 -3.4623 -2.0078 -0.9113
14478TIP3    H264926   4.470   2.060   5.286  1.6124  1.1845 -4.2828
14479TIP3   OH264927   1.164   4.856  10.198  0.2576  0.2314 -0.3885
14479TIP3    H164928   1.243   4.805  10.216  0.4879  1.1334  1.3507
14479TIP3    H264929   1.103   4.792  10.160  1.4097 -0.7386 -0.6849
14480TIP3   OH264930   3.787   1.398   1.998 -0.8221 -0.3424  0.4195
14480TIP3    H164931   3.734   1.469   2.033 -0.3895  0.3816 -0.3677
14480TIP3    H264932   3.745   1.375   1.915 -0.6649 -0.6581  0.4258
14481TIP3   OH264933   6.402   1.181  13.697  0.3284  0.5430  0.6780
14481TIP3    H164934   6.332   1.120  13.673  0.1487  0.7526  0.6632
14481TIP3    H264935   6.452   1.192  13.616  1.6880 -1.2815  1.2129
14482TIP3   OH264936   4.534   3.629   1.451 -0.7224  0.8023  0.0722
14482TIP3    H164937   4.566   3.547   1.487 -1.8051 -0.2729 -1.3016
14482TIP3    H264938   4.609   3.689   1.459  0.7558 -0.8478 -0.6053
14483TIP3   OH264939   5.529   2.485   1.521 -0.4670 -0.2144 -0.0476
14483TIP3    H164940   5.498   2.472   1.611  0.0686  2.4964  0.6066
14483TIP3    H264941   5.621   2.459   1.524 -0.5499 -0.5058  0.0688
14484TIP3   OH264942   2.451   3.494  14.938 -0.0970  0.0160 -0.0462
14484TIP3    H164943   2.382   3.559  14.930 -0.5072 -0.2408  1.1040
14484TIP3    H264944   2.443   3.462  15.028  0.6468 -1.0000 -0.3182
14485TIP3   OH264945   4.862   4.309   0.326 -0.7369 -0.2576 -0.0523
14485TIP3    H164946   4.948   4.285   0.360  0.9277  3.2674 -1.2748
14485TIP3    H264947   4.880   4.377   0.262 -4.4755  0.5863 -0.4349
14486TIP3   OH264948   6.056   4.649  13.847  0.4357  0.1317  0.2558
14486TIP3    H164949   6.122   4.602  13.797  0.0187 -1.6375  1.2482
14486TIP3    H264950   5.975   4.600  13.831  0.2069 -0.2590  2.2439
14487TIP3   OH264951   5.865   2.035  12.989  0.0129  0.2114 -0.4629
14487TIP3    H164952   5.931   2.019  12.921 -0.7983  0.4991 -1.3272
14487TIP3    H264953   5.891   1.977  13.061  0.9726  0.0162 -0.9491
14488TIP3   OH264954   1.969   5.864   4.313 -0.1148  0.0934 -0.6157
14488TIP3    H164955   1.877   5.856   4.289 -0.2419 -0.4048 -0.0047
14488TIP3    H264956   1.973   5.836   4.405  0.8438 -1.2618 -1.0211
14489TIP3   OH264957   0.540   0.115   3.110 -0.0830  0.1200 -0.1661
14489TIP3    H164958   0.467   0.177   3.109  0.1294  0.4030 -2.0644
14489TIP3    H264959   0.499   0.029   3.100 -0.1943  0.3176 -1.8065
14490TIP3   OH264960   2.164   1.158  16.308  0.6496  0.5333  0.1548
14490TIP3    H164961   2.096   1.217  16.341  0.6559  0.4398  0.3323
14490TIP3    H264962   2.226   1.150  16.380 -0.2591 -1.1385  0.8037
14491TIP3   OH264963   1.932   6.414  12.947 -0.4897 -0.4747  0.5562
14491TIP3    H164964   1.928   6.401  12.852 -1.4423  1.5759  0.2394
14491TIP3    H264965   2.024   6.407  12.969 -0.1306 -0.0345 -0.7128
14492TIP3   OH264966   1.904   4.614   2.298  0.0384 -0.6205 -0.0860
14492TIP3    H164967   1.923   4.541   2.239  1.1556 -1.0314  0.7546
14492TIP3    H264968   1.985   4.627   2.348 -0.9783 -0.5005  1.5851
14493TIP3   OH264969   2.327   6.755  15.102  0.2291  0.8224  0.0775
14493TIP3    H164970   2.307   6.815  15.173  0.0413  0.2715  0.5038
14493TIP3    H264971   2.286   6.793  15.025 -2.5675 -0.2450  0.9122
14494TIP3   OH264972   1.943   0.019  12.288  0.1929 -0.1559 -0.3078
14494TIP3    H164973   1.916   0.092  12.233 -0.2355 -0.7713 -0.9283
14494TIP3    H264974   2.008   0.057  12.348 -1.6338  1.2379  0.8884
14495TIP3   OH264975   0.622   6.511  10.400 -0.0335  0.5304  0.0009
14495TIP3    H164976   0.567   6.476  10.470  0.5051 -0.1119  0.1146
14495TIP3    H264977   0.606   6.605  10.401  0.0705  0.5422  1.0682
14496TIP3   OH264978   4.100   6.446   5.810  0.1335  0.6452 -0.0995
14496TIP3    H164979   4.085   6.373   5.750 -0.2602  0.2940  0.4129
14496TIP3    H264980   4.121   6.520   5.753 -3.7295  1.2859 -1.0170
14497TIP3   OH264981   6.692   1.429  11.437 -0.9310 -0.1632 -0.0684
14497TIP3    H164982   6.599   1.407  11.434 -1.3617  1.4686  0.1961
14497TIP3    H264983   6.707   1.457  11.527  0.0729 -1.3783  0.1666
14498TIP3   OH264984   4.976   2.884  11.878 -0.6762  0.3339 -0.4153
14498TIP3    H164985   4.937   2.805  11.915 -0.0694  0.4817  0.5826
14498TIP3    H264986   4.920   2.955  11.908 -1.7908  0.2338 -2.1198
14499TIP3   OH264987   5.489   5.754  17.114 -0.0854 -0.7002 -0.3301
14499TIP3    H164988   5.572   5.801  17.131 -0.9886  0.6060  0.7385
14499TIP3    H264989   5.510   5.662  17.130  1.1936 -0.3974 -0.1520
14500TIP3   OH264990   4.306   2.955   2.321  0.1761  0.0122 -0.0972
14500TIP3    H164991   4.226   2.984   2.278  0.3307  0.1901 -0.2647
14500TIP3    H264992   4.283   2.950   2.414  0.5258  2.0757  0.1490
14501TIP3   OH264993   0.097   1.946   1.475 -0.7264 -0.2906 -0.0878
14501TIP3    H164994   0.168   1.963   1.413 -0.6999  1.7979  0.4229
14501TIP3    H264995   0.018   1.940   1.420 -0.5488  0.4033 -0.4307
14502TIP3   OH264996   3.642   6.490  12.105  0.3701 -0.0744  0.1785
14502TIP3    H164997   3.683   6.482  12.018 -2.1152  1.3435 -1.2402
14502TIP3    H264998   3.690   6.561  12.147 -0.6336  1.7125 -1.5294
14503TIP3   OH264999   3.340   1.083  15.740  0.1305  0.4678 -0.3802
14503TIP3    H165000   3.276   1.150  15.764  0.6249  0.9843 -0.4881
14503TIP3    H265001   3.317   1.060  15.649 -2.2709 -2.0962  0.7266
14504TIP3   OH265002   5.385   1.935  14.771 -0.3841  0.7416 -0.6131
14504TIP3    H165003   5.386   1.858  14.828  0.4035  0.2135 -1.3260
14504TIP3    H265004   5.407   2.008  14.830  0.3521  0.2159 -0.2200
14505TIP3   OH265005   2.568   5.017   4.123  0.2123  0.0246 -0.5045
14505TIP3    H165006   2.517   4.936   4.112  0.3971 -0.2126  0.3193
14505TIP3    H265007   2.627   4.998   4.197  0.7877  0.6481 -0.7979
14506TIP3   OH265008   1.397   0.379   4.321 -0.0171 -0.3982  0.1995
14506TIP3    H165009   1.334   0.308   4.322  0.7123 -1.2218 -2.7510
14506TIP3    H265010   1.349   0.454   4.285  0.5010 -0.9265 -1.7037
14507TIP3   OH265011   6.699   3.369  10.496 -0.0933  0.6342 -0.4234
14507TIP3    H165012   6.739   3.305  10.555  0.1428  1.7248  0.6250
14507TIP3    H265013   6.747   3.359  10.414  0.7204  0.2720  0.0824
14508TIP3   OH265014   4.773   2.036  10.951 -0.1202 -0.2546  0.3825
14508TIP3    H165015   4.825   1.957  10.933  0.3133 -0.1116  0.9731
14508TIP3    H265016   4.818   2.105  10.902 -0.6046 -0.4007 -0.2796
14509TIP3   OH265017   1.255   4.695   0.317  0.5368  0.2209 -0.0886
14509TIP3    H165018   1.173   4.744   0.316  0.7663  0.6068 -0.2869
14509TIP3    H265019   1.318   4.754   0.359  0.9148  0.2667 -0.7094
14510TIP3   OH265020   0.531   2.047   0.188 -0.2747 -0.2398  0.2856
14510TIP3    H165021   0.567   2.134   0.201  0.8442 -0.8276  1.2842
14510TIP3    H265022   0.604   1.995   0.153  0.1528 -1.6242  2.9655
14511TIP3   OH265023   0.224   1.774  16.390 -0.1459 -0.0740  0.2805
14511TIP3    H165024   0.165   1.836  16.348  1.0300  0.9933  0.1442
14511TIP3    H265025   0.183   1.756  16.475  1.1026  3.6456  1.8815
14512TIP3   OH265026   0.690   4.905   2.327 -0.2368 -0.1536  0.1777
14512TIP3    H165027   0.778   4.874   2.303 -0.9989 -1.6680 -0.8011
14512TIP3    H265028   0.633   4.870   2.259 -1.7163  0.1919  1.2030
14513TIP3   OH265029   0.594   1.789  16.844  0.7327  0.1477 -0.1697
14513TIP3    H165030   0.526   1.777  16.777  1.9764  1.1498 -1.6611
14513TIP3    H265031   0.561   1.740  16.920 -1.8653  0.9398 -0.6662
14514TIP3   OH265032   6.795   3.259  16.645 -0.1061 -0.4127  0.2102
14514TIP3    H165033   6.847   3.313  16.586 -0.2598 -0.1635  0.2969
14514TIP3    H265034   6.709   3.253  16.602 -0.2306 -0.1976  0.4204
14515TIP3   OH265035   4.774   6.022   4.371 -0.4492 -0.1853  0.6467
14515TIP3    H165036   4.727   5.987   4.295 -1.6754 -0.0693  1.3118
14515TIP3    H265037   4.741   6.112   4.379  1.1648  0.4880  0.1520
14516TIP3   OH265038   1.065   4.984   5.681 -0.4839 -0.2236  0.2099
14516TIP3    H165039   1.104   4.897   5.692 -0.3750 -0.5053 -2.0504
14516TIP3    H265040   1.123   5.042   5.730 -0.1707 -1.3114  1.1771
14517TIP3   OH265041   0.197   3.865  13.516 -0.0964 -0.7634  0.1960
14517TIP3    H165042   0.184   3.949  13.560  1.6570 -0.4572  0.2027
14517TIP3    H265043   0.182   3.799  13.584 -0.8844 -0.4353  0.3431
14518TIP3   OH265044   5.816   5.208   1.000  0.4416 -0.0648  0.1768
14518TIP3    H165045   5.753   5.137   1.014  2.0527 -1.4735  0.5584
14518TIP3    H265046   5.901   5.168   1.013  1.3903  2.3837  2.3943
14519TIP3   OH265047   4.754   3.557   5.266  0.4978  0.6086  0.5735
14519TIP3    H165048   4.674   3.529   5.223  1.5830  0.3906 -1.4203
14519TIP3    H265049   4.771   3.490   5.332  0.5500 -0.9541 -0.9565
14520TIP3   OH265050   3.338   6.819  11.355 -0.5809  0.7331  0.0942
14520TIP3    H165051   3.272   6.846  11.290 -1.4244  1.0150  1.0403
14520TIP3    H265052   3.293   6.827  11.439 -1.0194 -3.7917  0.5277
14521TIP3   OH265053   2.932   0.429   5.273  0.1256  0.1097  0.2851
14521TIP3    H165054   2.993   0.404   5.204 -0.3373 -0.5075  0.0918
14521TIP3    H265055   2.972   0.398   5.354  0.1644 -0.1132  0.1803
14522TIP3   OH265056   1.097   0.405  11.946  0.3505 -0.1343 -0.4278
14522TIP3    H165057   1.030   0.455  11.899  0.9322 -0.3897 -1.5842
14522TIP3    H265058   1.048   0.351  12.007 -0.3771  0.8964 -0.0692
14523TIP3   OH265059   0.477   2.637  15.541 -0.3111  0.2190  0.3883
14523TIP3    H165060   0.444   2.709  15.487 -1.2662  0.8528  1.7487
14523TIP3    H265061   0.482   2.674  15.629 -1.2990 -1.4951  1.2173
14524TIP3   OH265062   1.618   6.375   4.757 -0.0327 -0.0538  0.0606
14524TIP3    H165063   1.573   6.422   4.828  0.6796 -1.6700  1.6661
14524TIP3    H265064   1.578   6.288   4.758 -1.4467  0.4238 -2.9529
14525TIP3   OH265065   6.073   1.183   0.825 -0.3895 -0.2138 -0.0050
14525TIP3    H165066   6.002   1.232   0.866  1.0332  1.7150  0.3073
14525TIP3    H265067   6.051   1.181   0.732 -0.6468  0.7730  0.0233
14526TIP3   OH265068   6.480   3.817  12.644  0.1326 -0.7472  0.1850
14526TIP3    H165069   6.443   3.894  12.687 -0.1965 -0.8733  0.1294
14526TIP3    H265070   6.464   3.831  12.550 -0.1765 -1.0118  0.1957
14527TIP3   OH265071   6.354   4.561   4.871  0.2394  0.6001 -0.4121
14527TIP3    H165072   6.307   4.479   4.889 -0.9124  1.5647  1.1852
14527TIP3    H265073   6.382   4.592   4.957  0.1544  2.1786 -0.9365
14528TIP3   OH265074   4.204   0.376   5.609 -0.3035  0.2147 -0.2888
14528TIP3    H165075   4.168   0.391   5.521 -0.5188  0.7337 -0.1167
14528TIP3    H265076   4.156   0.437   5.665 -0.0985 -0.0453  0.1738
14529TIP3   OH265077   1.367   1.687  15.860 -0.1392  0.1050  0.1686
14529TIP3    H165078   1.360   1.602  15.903 -1.5944  0.3673  0.5050
14529TIP3    H265079   1.426   1.738  15.917  2.1417 -1.1487 -0.9144
14530TIP3   OH265080   4.325   3.475  15.631  0.3606 -0.4924  0.0315
14530TIP3    H165081   4.235   3.476  15.599  0.5963 -1.1962 -0.6799
14530TIP3    H265082   4.375   3.523  15.565  0.4390  0.3039  0.6576
14531TIP3   OH265083   4.172   6.356   2.940 -0.7839  0.2803  0.2104
14531TIP3    H165084   4.243   6.378   3.001 -0.4075  0.5383 -0.3125
14531TIP3    H265085   4.126   6.438   2.926 -0.7361  0.2689 -0.0189
14532TIP3   OH265086   1.122   3.749   3.278  0.0838  0.0069 -0.6081
14532TIP3    H165087   1.061   3.727   3.349  1.2812 -0.1064  0.4236
14532TIP3    H265088   1.191   3.800   3.320 -0.7334  2.7106 -2.2817
14533TIP3   OH265089   6.398   5.078  13.332  0.4236 -0.0686 -0.0097
14533TIP3    H165090   6.349   5.080  13.414 -1.2150 -0.1092 -0.9277
14533TIP3    H265091   6.367   5.155  13.284  1.8579  0.3345 -0.3272
14534TIP3   OH265092   0.482   5.106  10.767 -0.0059 -0.1543  0.1161
14534TIP3    H165093   0.444   5.052  10.836 -1.8637 -0.6340 -1.2093
14534TIP3    H265094   0.543   5.048  10.723 -0.6854 -0.6485 -0.1965
14535TIP3   OH265095   6.041   1.725   6.038  0.4249  0.7854 -0.0857
14535TIP3    H165096   5.994   1.681   6.109  0.8116 -0.1141 -0.3727
14535TIP3    H265097   5.987   1.710   5.960  1.1269 -0.1641 -0.3965
14536TIP3   OH265098   2.783   1.090  11.454 -0.0987 -0.2081 -0.8960
14536TIP3    H165099   2.809   1.024  11.389 -1.7377 -0.7960 -0.9860
14536TIP3    H265100   2.838   1.071  11.530  2.2215  0.8043 -2.2142
14537TIP3   OH265101   3.829   4.766   4.389  0.1747  0.5099  0.9825
14537TIP3    H165102   3.834   4.674   4.415 -1.1970 -0.0711 -0.6253
14537TIP3    H265103   3.917   4.787   4.357  0.3111 -0.4740  0.6750
14538TIP3   OH265104   5.691   1.844  14.396 -0.0082  0.5348  0.3554
14538TIP3    H165105   5.772   1.890  14.375  0.0678  0.6630  0.8959
14538TIP3    H265106   5.656   1.815  14.312  0.8281  0.0849  0.1531
14539TIP3   OH265107   0.516   3.499   4.169  0.1899  0.1905 -0.0361
14539TIP3    H165108   0.538   3.557   4.096  0.7285  0.9689  0.7185
14539TIP3    H265109   0.563   3.536   4.244 -0.7291 -0.3098  0.8121
14540TIP3   OH265110   0.787   6.129   0.882  0.2663  0.7843 -0.4314
14540TIP3    H165111   0.715   6.192   0.886 -0.9885 -0.6206  0.2853
14540TIP3    H265112   0.745   6.043   0.893  2.1832 -0.0073  1.7430
14541TIP3   OH265113   0.495   4.322  10.878 -0.3837  0.2475 -0.6395
14541TIP3    H165114   0.520   4.333  10.786 -0.4495  1.0967 -0.5607
14541TIP3    H265115   0.401   4.304  10.875 -0.4328  0.5129 -0.7263
14542TIP3   OH265116   3.015   6.332   0.306  0.0349 -0.0674  0.1828
14542TIP3    H165117   2.927   6.359   0.333 -0.1090 -1.3656  1.0637
14542TIP3    H265118   3.053   6.412   0.269 -2.5718 -0.1462 -3.2133
14543TIP3   OH265119   1.159   3.933  10.588  0.1007 -0.0232 -0.5598
14543TIP3    H165120   1.095   3.875  10.548  0.6133 -0.6813 -0.4421
14543TIP3    H265121   1.108   4.007  10.620 -0.3666  0.2965 -2.0106
14544TIP3   OH265122   2.366   2.616  10.884  0.0451 -0.1478 -0.1319
14544TIP3    H165123   2.363   2.535  10.834  2.3704  0.8225 -2.0379
14544TIP3    H265124   2.394   2.589  10.972  0.1427 -1.4726 -0.5511
14545TIP3   OH265125   6.813   4.277   5.521 -0.4549  0.3669 -0.2682
14545TIP3    H165126   6.855   4.361   5.539  0.0115 -0.0032  0.4504
14545TIP3    H265127   6.863   4.240   5.449 -0.7621  0.7724 -0.6946
14546TIP3   OH265128   1.707   6.633  11.350 -0.1136 -0.0028 -1.0414
14546TIP3    H165129   1.753   6.580  11.416 -2.8126 -0.3913  0.7006
14546TIP3    H265130   1.660   6.699  11.401 -1.3162  0.4892 -2.6914
14547TIP3   OH265131   1.395   3.613  14.182  0.2272 -0.4579 -0.1973
14547TIP3    H165132   1.409   3.685  14.120 -1.4811 -0.2708 -0.3995
14547TIP3    H265133   1.428   3.536  14.136  4.0897  0.3460  0.8064
14548TIP3   OH265134   0.734   6.306   3.519 -0.1315 -0.1359  0.1425
14548TIP3    H165135   0.697   6.335   3.602 -2.4216 -0.7847 -0.5870
14548TIP3    H265136   0.704   6.372   3.455 -0.6710 -1.0602 -0.5879
14549TIP3   OH265137   6.328   0.550  16.585  0.0782 -0.0988 -0.5956
14549TIP3    H165138   6.408   0.526  16.630  0.6963  1.6234 -0.7019
14549TIP3    H265139   6.299   0.469  16.543  2.6329 -0.4371 -1.8978
14550TIP3   OH265140   3.713   1.981   5.198 -0.8841  0.1345 -0.2179
14550TIP3    H165141   3.691   1.982   5.105 -1.3201 -0.6473 -0.1363
14550TIP3    H265142   3.628   1.986   5.242 -0.7605 -0.5252  0.1216
14551TIP3   OH265143   1.665   5.390   0.903  0.0464  0.1140 -0.0881
14551TIP3    H165144   1.719   5.329   0.853  1.0458 -0.0777  1.1987
14551TIP3    H265145   1.575   5.367   0.879  0.4450 -1.0946 -0.4970
14552TIP3   OH265146   2.866   5.279  12.769 -0.3232  0.3459 -0.3328
14552TIP3    H165147   2.811   5.218  12.721 -0.4544  1.0324 -1.0782
14552TIP3    H265148   2.939   5.297  12.710  0.4664 -0.1784  0.4456
14553TIP3   OH265149   0.094   2.028   3.080  0.3723  0.0363  0.1346
14553TIP3    H165150   0.015   1.998   3.125  1.3438  0.7878  2.5035
14553TIP3    H265151   0.159   1.959   3.098  1.4743  1.4907  2.1690
14554TIP3   OH265152   2.928   1.775  13.782 -0.5871 -0.6342  0.6128
14554TIP3    H165153   2.952   1.774  13.689  1.9975  2.1218  1.0849
14554TIP3    H265154   3.012   1.785  13.828 -1.8104 -1.6505  3.2735
14555TIP3   OH265155   0.825   3.868   1.805  0.3003  0.2558 -0.5912
14555TIP3    H165156   0.772   3.813   1.862  1.0752 -0.0129 -0.1073
14555TIP3    H265157   0.839   3.948   1.855  1.0541 -0.0145 -0.3542
14556TIP3   OH265158   1.097   3.553  16.573  0.5013  0.0658  0.4409
14556TIP3    H165159   1.020   3.531  16.626  0.9470 -1.7237  0.3977
14556TIP3    H265160   1.064   3.555  16.483 -0.0178  2.0134  0.6069
14557TIP3   OH265161   6.273   6.655   3.851  0.3864  0.2542  0.0006
14557TIP3    H165162   6.360   6.615   3.859  0.3947 -0.0831 -1.5689
14557TIP3    H265163   6.284   6.742   3.890  0.6836 -0.7316  2.3088
14558TIP3   OH265164   4.912   1.225   0.175  0.2213  0.6435  0.6677
14558TIP3    H165165   4.848   1.271   0.121  0.6223  1.1607  0.6257
14558TIP3    H265166   4.864   1.151   0.211  0.3728 -0.6893 -1.6854
14559TIP3   OH265167   6.344   1.793   5.295  0.0302  0.3019 -0.0204
14559TIP3    H165168   6.366   1.715   5.244 -1.5446  0.2437 -0.6876
14559TIP3    H265169   6.351   1.766   5.386  1.7225  0.0602 -0.1889
14560TIP3   OH265170   3.948   0.040  11.972  0.3335 -0.1407 -0.0471
14560TIP3    H165171   3.908  -0.018  12.036 -0.6386 -1.1271 -1.4925
14560TIP3    H265172   3.933   0.128  12.007 -2.4064 -0.5109 -0.1039
14561TIP3   OH265173   4.283   4.398  12.855 -0.6913  0.5972  0.7178
14561TIP3    H165174   4.362   4.449  12.841 -0.9895  0.6032 -1.2425
14561TIP3    H265175   4.238   4.442  12.927  0.7255  1.0171  1.3735
14562TIP3   OH265176   3.909   3.689  13.424 -0.2041 -0.1160  0.0454
14562TIP3    H165177   3.873   3.702  13.512 -1.2116  0.0740 -0.3780
14562TIP3    H265178   3.843   3.726  13.366  0.4354 -0.2738 -0.7978
14563TIP3   OH265179   2.911   1.600   2.254 -0.0358 -0.4710 -0.6710
14563TIP3    H165180   2.845   1.667   2.272 -0.7683 -1.4303  0.4338
14563TIP3    H265181   2.986   1.626   2.308 -0.6267 -0.9634  0.4279
14564TIP3   OH265182   2.051   5.508  13.657  0.2174 -0.1005 -0.5615
14564TIP3    H165183   2.110   5.447  13.612  2.4928  0.2963  1.6358
14564TIP3    H265184   2.002   5.452  13.718 -0.3645 -0.1819 -1.0943
14565TIP3   OH265185   4.636   1.130   2.403  0.2460 -0.1442 -0.0744
14565TIP3    H165186   4.620   1.193   2.332  0.1703 -0.1565 -0.0691
14565TIP3    H265187   4.548   1.108   2.435  0.2745 -0.2233 -0.0503
14566TIP3   OH265188   2.064   2.528  17.075  0.7768 -0.1470  0.4864
14566TIP3    H165189   2.047   2.470  17.000  0.4525 -1.0817  1.2723
14566TIP3    H265190   2.044   2.475  17.152 -3.7489  2.1515  1.2900
14567TIP3   OH265191   2.851   5.071  14.196 -0.2561  0.6476  0.4399
14567TIP3    H165192   2.858   5.158  14.157  0.5100  0.2100 -0.4508
14567TIP3    H265193   2.890   5.013  14.131 -1.0822 -0.4123  0.8703
14568TIP3   OH265194   5.587   0.015  14.735 -0.5572  0.5902  0.3471
14568TIP3    H165195   5.570   0.099  14.692  0.0553  0.6360  0.1757
14568TIP3    H265196   5.612   0.039  14.824 -0.3776  0.5962  0.2968
14569TIP3   OH265197   5.375   3.417   5.033  0.2207 -0.7245 -0.5195
14569TIP3    H165198   5.374   3.448   5.123 -1.3043 -0.9405 -0.4386
14569TIP3    H265199   5.417   3.331   5.038  4.5503  1.1027 -0.7540
14570TIP3   OH265200   5.112   4.295  13.475 -0.3561  0.4383 -0.4815
14570TIP3    H165201   5.040   4.241  13.507 -1.2376  2.0525  0.3973
14570TIP3    H265202   5.135   4.350  13.550  0.9261  0.8621 -1.1595
14571TIP3   OH265203   6.025   6.003   4.539 -0.6157 -0.0781 -0.6621
14571TIP3    H165204   5.993   5.956   4.616 -0.2309  1.8145  0.7079
14571TIP3    H265205   5.979   6.087   4.541  1.7115  1.2645 -0.6611
14572TIP3   OH265206   5.359   1.350   5.523  0.0897 -0.3926 -0.2497
14572TIP3    H165207   5.265   1.333   5.519 -0.0001 -0.1554  0.6771
14572TIP3    H265208   5.368   1.440   5.492  0.5306 -1.7757 -4.8147
14573TIP3   OH265209   0.171   5.675   3.299  0.0422 -0.2652 -0.2678
14573TIP3    H165210   0.112   5.616   3.252  0.1248 -1.3192  0.9055
14573TIP3    H265211   0.120   5.709   3.372  0.3733  0.1488 -0.2247
14574TIP3   OH265212   5.681   4.232   5.895 -0.0666  0.2262 -0.5269
14574TIP3    H165213   5.687   4.283   5.815  0.1348 -1.0474 -1.3618
14574TIP3    H265214   5.767   4.189   5.903 -0.2139  0.0341  0.1610
14575TIP3   OH265215   2.484   4.898   2.110  0.0995 -0.4436 -0.6150
14575TIP3    H165216   2.487   4.876   2.203 -1.1529  1.3888 -0.0773
14575TIP3    H265217   2.571   4.877   2.077  1.3448  0.9777  1.5278
14576TIP3   OH265218   1.926   3.664  13.219 -0.9542  0.5828  0.4509
14576TIP3    H165219   1.838   3.673  13.255 -1.2929  0.5230 -0.3283
14576TIP3    H265220   1.981   3.644  13.294 -1.8796 -1.1331  0.7401
14577TIP3   OH265221   2.785   1.403  12.174  0.5700 -0.2097 -0.0617
14577TIP3    H165222   2.777   1.339  12.103 -1.2422 -0.0899 -0.0065
14577TIP3    H265223   2.729   1.476  12.148 -0.3772 -0.2825  1.5970
14578TIP3   OH265224   4.344   3.264   1.144  0.1776  0.2661  0.0236
14578TIP3    H165225   4.396   3.220   1.211 -0.3097 -1.6560 -0.7957
14578TIP3    H265226   4.393   3.344   1.125  1.1522  0.0620  1.5213
14579TIP3   OH265227   4.484   0.014   5.914 -0.3563 -0.0265  0.8235
14579TIP3    H165228   4.440  -0.042   5.978 -0.7924  0.8340  1.2975
14579TIP3    H265229   4.446   0.101   5.928 -0.0586  0.2911 -0.2364
14580TIP3   OH265230   3.886   4.758  16.460  0.6797  0.1730 -0.1760
14580TIP3    H165231   3.891   4.685  16.522  0.7163  1.9085  2.0282
14580TIP3    H265232   3.809   4.808  16.488  1.7227  1.9834 -0.3646
14581TIP3   OH265233   1.622   6.371   3.772  0.8173  0.1565 -0.0106
14581TIP3    H165234   1.599   6.453   3.816 -0.3590  0.0660 -0.4147
14581TIP3    H265235   1.565   6.369   3.695  2.3555 -0.0077 -1.1871
14582TIP3   OH265236   6.644   3.396   1.532 -0.0312  0.3770 -0.4196
14582TIP3    H165237   6.570   3.382   1.591 -1.3298 -0.4513 -2.1533
14582TIP3    H265238   6.604   3.406   1.446  1.7464  2.3739 -1.0794
14583TIP3   OH265239   0.933   3.051   1.794 -0.0438  0.0613  0.6288
14583TIP3    H165240   0.898   3.106   1.724 -0.7807  0.1657  1.0669
14583TIP3    H265241   1.001   3.104   1.835 -1.2256  0.9747  1.5057
14584TIP3   OH265242   5.010   1.591  13.417 -0.4438 -0.6568 -0.7620
14584TIP3    H165243   4.975   1.552  13.497  0.6520 -0.3860 -0.1359
14584TIP3    H265244   5.076   1.653  13.447  0.1594 -0.7250 -1.8810
14585TIP3   OH265245   2.213   4.868  16.784 -0.1187 -0.6798 -0.2573
14585TIP3    H165246   2.259   4.801  16.834  0.1494  0.7344  1.4917
14585TIP3    H265247   2.275   4.894  16.716  0.4392 -1.0312  0.1050
14586TIP3   OH265248   5.634   6.704   3.257  0.1090  0.2853  0.1899
14586TIP3    H165249   5.664   6.631   3.202 -2.0602  0.3953 -1.2899
14586TIP3    H265250   5.579   6.663   3.324  0.9470  0.3576  0.9352
14587TIP3   OH265251   3.470   6.315  11.912 -0.0432  0.3943 -0.4072
14587TIP3    H165252   3.534   6.376  11.875 -0.7367 -0.4339 -3.2521
14587TIP3    H265253   3.418   6.369  11.971  1.2242  1.8471 -0.5530
14588TIP3   OH265254   6.720   2.676   0.296  0.0004  0.6392 -0.6935
14588TIP3    H165255   6.780   2.732   0.345  0.6411  0.2749 -1.0609
14588TIP3    H265256   6.644   2.666   0.353  0.8660 -0.0362  0.3617
14589TIP3   OH265257   6.082   2.027  16.621  0.2716  0.4591  0.2196
14589TIP3    H165258   6.162   2.025  16.672 -0.1855  1.4808  1.0004
14589TIP3    H265259   6.111   2.043  16.531  0.9793  0.1151  0.3805
14590TIP3   OH265260   5.460   6.738  12.162  0.0074  0.0683  0.2702
14590TIP3    H165261   5.403   6.691  12.223  0.3338 -1.3614 -0.4904
14590TIP3    H265262   5.548   6.722  12.195  0.0719  1.3256  0.7847
14591TIP3   OH265263   4.365   1.621  15.017  0.3834 -0.6857  1.0075
14591TIP3    H165264   4.308   1.594  15.089 -0.2826  0.5252  0.9573
14591TIP3    H265265   4.318   1.691  14.973  0.6283 -1.5884 -0.8248
14592TIP3   OH265266   0.343   4.177   4.194  0.2312 -0.3311  0.0876
14592TIP3    H165267   0.335   4.271   4.209  0.2344  0.0434 -1.9538
14592TIP3    H265268   0.425   4.152   4.237  0.4007  0.6503  0.3534
14593TIP3   OH265269   4.138   4.696  12.756 -0.4022 -0.5120 -0.2905
14593TIP3    H165270   4.095   4.616  12.728 -0.9159 -0.3601  0.0480
14593TIP3    H265271   4.081   4.767  12.725 -0.0985 -0.2881 -0.3452
14594TIP3   OH265272   0.887   2.607   3.953 -0.2849 -0.3163 -0.5393
14594TIP3    H165273   0.907   2.684   3.901 -1.0691  0.7838  0.7237
14594TIP3    H265274   0.924   2.625   4.039 -1.1719 -0.9919  0.0039
14595TIP3   OH265275   1.166   6.713   3.999  0.2251  0.2163 -0.3634
14595TIP3    H165276   1.112   6.699   3.920  0.2859  0.0005 -0.3676
14595TIP3    H265277   1.252   6.739   3.965  0.8475 -1.7955 -0.4489
14596TIP3   OH265278   2.354   6.753  14.722  0.9685  0.4696  0.2375
14596TIP3    H165279   2.446   6.730  14.706  1.5611  1.9742  1.1600
14596TIP3    H265280   2.338   6.827  14.663 -0.1767 -0.7601 -1.0611
14597TIP3   OH265281   5.778   4.635   0.180 -0.3367 -0.2178  0.0094
14597TIP3    H165282   5.855   4.691   0.170 -0.1051 -0.7033 -0.9817
14597TIP3    H265283   5.715   4.670   0.116  0.3020 -1.8970 -1.6099
14598TIP3   OH265284   2.133   3.918   4.902 -0.9946 -0.7465 -0.7226
14598TIP3    H165285   2.101   4.005   4.881 -2.1246 -1.3164 -1.4909
14598TIP3    H265286   2.056   3.861   4.893 -0.3817 -1.7674  0.1507
14599TIP3   OH265287   5.108   0.465   0.103 -0.0212 -0.0466 -0.7708
14599TIP3    H165288   5.200   0.474   0.078  0.3019 -0.3660  0.2901
14599TIP3    H265289   5.074   0.396   0.046 -0.1411  1.3981 -2.5499
14600TIP3   OH265290   5.724   1.060   5.520  0.7052  0.3245  0.1678
14600TIP3    H165291   5.787   1.045   5.449  0.4821 -1.1903  0.2664
14600TIP3    H265292   5.643   1.021   5.489 -0.1365  1.9465  0.1977
14601TIP3   OH265293   4.888   0.959  11.994  0.6112  0.2556  0.1802
14601TIP3    H165294   4.942   0.955  11.915  0.5585  1.4815  0.0679
14601TIP3    H265295   4.839   0.877  11.994  0.7104  0.1854 -0.9799
14602TIP3   OH265296   3.120   4.886   0.111 -0.0200  0.1988 -0.4610
14602TIP3    H165297   3.056   4.815   0.111 -0.5395  0.4686  2.9079
14602TIP3    H265298   3.067   4.966   0.112  0.3975  0.4794 -0.0843
14603TIP3   OH265299   3.236   3.114   1.828 -0.2068 -0.3898  0.8287
14603TIP3    H165300   3.159   3.171   1.838  0.2909  0.5460 -0.3795
14603TIP3    H265301   3.213   3.034   1.875 -1.5851  0.1834  1.1883
14604TIP3   OH265302   3.017   1.536   3.128  0.1056  0.0444 -0.2468
14604TIP3    H165303   3.053   1.611   3.081  0.0671 -0.8461 -1.7446
14604TIP3    H265304   3.092   1.478   3.143 -0.1690 -0.4370 -0.7052
14605TIP3   OH265305   3.479   4.480  11.910  0.1290 -0.1541  0.4039
14605TIP3    H165306   3.563   4.516  11.883  0.2830 -2.4499 -2.7356
14605TIP3    H265307   3.498   4.388  11.931 -1.6316 -0.9382 -1.1532
14606TIP3   OH265308   2.753   4.724   4.668  0.0790 -0.2270 -0.4319
14606TIP3    H165309   2.825   4.727   4.732  0.2078  0.3820 -0.5906
14606TIP3    H265310   2.794   4.696   4.587 -0.0389 -0.7672 -0.3066
14607TIP3   OH265311   3.843   1.118   3.422  0.3991  0.0910  0.0837
14607TIP3    H165312   3.862   1.139   3.514 -0.3823 -0.8399  0.4782
14607TIP3    H265313   3.903   1.174   3.372  0.1443  1.3495  1.1253
14608TIP3   OH265314   0.678   3.890   2.197 -0.0584  0.3738 -0.4958
14608TIP3    H165315   0.742   3.861   2.261  0.6404  3.1604  0.2384
14608TIP3    H265316   0.700   3.842   2.117  2.6863  0.8184 -0.1244
14609TIP3   OH265317   6.632   1.158   6.100  0.5336  0.7796  0.3088
14609TIP3    H165318   6.691   1.086   6.121  0.2669  0.2326 -0.7312
14609TIP3    H265319   6.613   1.147   6.007 -1.9038  0.3791  0.7777
14610TIP3   OH265320   2.896   5.657   3.240  0.0651 -0.6259  0.6155
14610TIP3    H165321   2.852   5.598   3.302  2.9904 -3.1551  0.5270
14610TIP3    H265322   2.838   5.657   3.164 -0.4366 -2.8430  0.9142
14611TIP3   OH265323   2.170   2.571   4.730 -0.0246 -0.1007 -0.1287
14611TIP3    H165324   2.077   2.591   4.736 -0.3227 -0.9866 -1.3860
14611TIP3    H265325   2.175   2.476   4.738  0.8820  0.0144  0.9168
14612TIP3   OH265326   5.517   3.402   0.622  0.1175 -0.0233  0.3437
14612TIP3    H165327   5.604   3.431   0.594 -0.1490  1.1525  0.6914
14612TIP3    H265328   5.457   3.462   0.579 -0.4893 -0.4472  0.5912
14613TIP3   OH265329   3.901   6.670  16.055 -0.3004 -0.5602  0.3934
14613TIP3    H165330   3.880   6.698  16.144 -0.4071 -1.4434  0.6559
14613TIP3    H265331   3.923   6.751  16.009  3.4181 -0.3806  2.1423
14614TIP3   OH265332   5.601   4.101   4.162 -0.2966  0.0783  0.0324
14614TIP3    H165333   5.526   4.077   4.107 -1.4968 -0.5865  1.8599
14614TIP3    H265334   5.598   4.040   4.236  0.7682  1.4087  1.2551
14615TIP3   OH265335   6.150   1.713  12.069  0.4282  0.1953  0.0050
14615TIP3    H165336   6.140   1.808  12.066  1.1898  0.2538 -0.8659
14615TIP3    H265337   6.244   1.698  12.074  0.2867 -0.5074  0.7770
14616TIP3   OH265338   2.951   6.450   0.905  0.4378  0.1651  0.0541
14616TIP3    H165339   2.978   6.421   0.992  0.2138  0.9157  0.3875
14616TIP3    H265340   2.866   6.492   0.920  0.2341 -0.0233 -0.5838
14617TIP3   OH265341   5.671   6.240  13.515 -0.1434 -0.7589 -0.5307
14617TIP3    H165342   5.595   6.237  13.574  0.0529  0.0715 -0.2267
14617TIP3    H265343   5.733   6.178  13.553 -0.3254 -0.8043 -0.3015
14618TIP3   OH265344   3.131   3.539   4.481 -0.7819 -0.3796 -0.2215
14618TIP3    H165345   3.146   3.627   4.515  0.2598 -0.3889 -0.6161
14618TIP3    H265346   3.162   3.542   4.390 -0.4028 -1.2284 -0.1368
14619TIP3   OH265347   0.716   2.241   1.230 -0.8184  0.7916  0.2483
14619TIP3    H165348   0.770   2.164   1.252 -0.7142  0.9013  0.3776
14619TIP3    H265349   0.660   2.253   1.306  0.4453  1.9632  1.0371
14620TIP3   OH265350   4.583   2.698   3.166  0.5814  0.1788  0.2672
14620TIP3    H165351   4.636   2.688   3.245  1.1310  1.1938  0.0430
14620TIP3    H265352   4.526   2.621   3.166  2.1393 -1.0462  0.4495
14621TIP3   OH265353   3.795   4.396  14.590 -0.0703 -0.1493 -0.3042
14621TIP3    H165354   3.744   4.368  14.514  1.4021  0.0426 -1.4092
14621TIP3    H265355   3.812   4.315  14.638 -0.1018 -0.4344 -0.7628
14622TIP3   OH265356   5.389   4.409  12.607 -0.2481  0.2223 -0.2433
14622TIP3    H165357   5.378   4.490  12.657 -1.2170 -0.7224  1.1140
14622TIP3    H265358   5.371   4.339  12.669 -1.5223 -1.0164 -1.9065
14623TIP3   OH265359   5.065   5.436  13.345 -0.5747  0.2176 -0.1976
14623TIP3    H165360   4.980   5.460  13.382 -1.6790 -1.1214 -1.7483
14623TIP3    H265361   5.062   5.341  13.339  1.4214  0.0620  0.5135
14624TIP3   OH265362   4.848   2.473   4.879  0.3481 -0.4293 -0.2712
14624TIP3    H165363   4.853   2.567   4.859 -1.5271 -0.2416 -0.0022
14624TIP3    H265364   4.851   2.431   4.793 -0.8351  0.0055 -0.5413
14625TIP3   OH265365   0.809   4.499  11.240  0.6076  0.0554  0.1932
14625TIP3    H165366   0.741   4.532  11.299  0.6542  2.4032 -0.9572
14625TIP3    H265367   0.883   4.558  11.255  0.8911  0.1934 -1.5886
14626TIP3   OH265368   2.732   4.051  11.239  0.8065 -0.3715  0.0395
14626TIP3    H165369   2.683   4.052  11.157  0.6474  0.7248  0.1312
14626TIP3    H265370   2.675   4.094  11.302  1.8173  0.8709  0.1646
14627TIP3   OH265371   3.821   6.770  14.711 -0.1828  0.4620 -0.2485
14627TIP3    H165372   3.860   6.683  14.719  1.8917  1.2968 -0.6103
14627TIP3    H265373   3.873   6.813  14.643 -1.4524  1.8471 -0.3923
14628TIP3   OH265374   1.805   0.397  11.350 -0.9933 -0.1272 -0.1161
14628TIP3    H165375   1.710   0.405  11.356 -0.9034  1.5981 -0.5257
14628TIP3    H265376   1.836   0.398  11.440 -1.3757 -1.0993  0.0339
14629TIP3   OH265377   1.225   4.574  12.911 -0.2295  0.2549 -0.1942
14629TIP3    H165378   1.145   4.536  12.875  0.4070 -1.0529 -0.3137
14629TIP3    H265379   1.247   4.646  12.851 -0.5777 -0.2543 -0.9481
14630TIP3   OH265380   3.571   0.946  13.372 -0.4604  0.6503  0.0303
14630TIP3    H165381   3.637   0.924  13.306 -0.6642  0.1058 -0.0042
14630TIP3    H265382   3.619   0.944  13.455 -1.0054 -3.2852  0.4908
14631TIP3   OH265383   4.059   6.520  11.676 -0.0889 -0.3513  0.1963
14631TIP3    H165384   4.006   6.454  11.721  1.0965 -2.0103 -0.7264
14631TIP3    H265385   4.149   6.494  11.693  0.4168 -0.6108 -2.4342
14632TIP3   OH265386   3.024   4.652  14.261  0.5978  0.4028  0.0745
14632TIP3    H165387   2.942   4.693  14.289  0.2341 -1.4060  1.9071
14632TIP3    H265388   2.998   4.571  14.219  1.2990 -2.3944  4.3647
14633TIP3   OH265389   1.624   3.402   0.993 -0.4899  0.6979 -0.2078
14633TIP3    H165390   1.694   3.462   1.018  0.2489 -0.3201  0.2268
14633TIP3    H265391   1.667   3.335   0.941 -0.9269 -0.5738  1.0229
14634TIP3   OH265392   5.505   0.232   6.115 -0.6275  0.3019 -0.2440
14634TIP3    H165393   5.539   0.315   6.148  0.0477  0.0797 -0.3699
14634TIP3    H265394   5.581   0.188   6.077 -0.9881 -0.3620 -0.2104
14635TIP3   OH265395   1.566   5.110   1.836  0.1025  0.2917  0.5429
14635TIP3    H165396   1.540   5.170   1.767  1.3608  0.0838 -0.1395
14635TIP3    H265397   1.492   5.050   1.846 -0.4606  0.8952  0.0386
14636TIP3   OH265398   1.547   3.103   0.858 -0.1479 -0.1923  0.1462
14636TIP3    H165399   1.626   3.154   0.875  0.2422 -0.1969 -1.5377
14636TIP3    H265400   1.537   3.105   0.763 -1.4780 -1.2435  0.2414
14637TIP3   OH265401   0.813   4.246  14.952 -0.3809 -0.2864 -0.1169
14637TIP3    H165402   0.860   4.329  14.949  0.7782 -0.7103  2.9051
14637TIP3    H265403   0.880   4.180  14.939 -0.8873 -0.8162 -0.0581
14638TIP3   OH265404   2.745   5.915  14.899  0.4383  0.1714 -0.0755
14638TIP3    H165405   2.670   5.953  14.853  0.8152  2.4644  1.0906
14638TIP3    H265406   2.769   5.839  14.846 -0.5263  1.3936 -2.4142
14639TIP3   OH265407   0.209   1.158   0.856 -0.4593  0.0382  0.3514
14639TIP3    H165408   0.225   1.248   0.827 -0.4333 -0.5963 -1.8186
14639TIP3    H265409   0.284   1.137   0.912 -0.3596  1.2802  0.7182
14640TIP3   OH265410   5.550   6.685   4.455  0.2931 -0.3990 -0.0030
14640TIP3    H165411   5.590   6.633   4.385 -0.1908 -0.6182 -0.1217
14640TIP3    H265412   5.562   6.776   4.427 -0.7699 -0.5064 -0.8693
14641TIP3   OH265413   5.295   2.691   1.129  0.1985 -0.0909 -0.1655
14641TIP3    H165414   5.344   2.640   1.064 -0.2866 -0.1371 -0.4998
14641TIP3    H265415   5.303   2.640   1.210  0.6758 -0.1118 -0.2214
14642TIP3   OH265416   0.393   3.089  14.421 -0.2392  0.1005  0.0884
14642TIP3    H165417   0.399   3.023  14.352 -1.9230  0.3398 -0.3362
14642TIP3    H265418   0.472   3.143  14.409 -0.9497  0.7676 -2.3583
14643TIP3   OH265419   2.494   5.070   5.010  0.2624  0.7496  0.0853
14643TIP3    H165420   2.465   5.104   4.926  0.5602  0.2394 -0.2329
14643TIP3    H265421   2.470   5.137   5.073 -1.0682  0.6026 -0.2412
14644TIP3   OH265422   6.046   4.465  16.281  0.7639  0.4643  0.6835
14644TIP3    H165423   5.968   4.519  16.295  0.4565 -0.1667  1.5078
14644TIP3    H265424   6.026   4.413  16.203  0.7238  0.9473  0.3732
14645TIP3   OH265425   1.441   6.351   6.254 -0.5354  0.0174 -0.0899
14645TIP3    H165426   1.470   6.411   6.323  0.3433  0.6985 -1.0165
14645TIP3    H265427   1.494   6.273   6.265 -0.2491  0.2067 -0.1187
14646TIP3   OH265428   3.079   4.071  10.386  0.0564 -0.1034  0.0780
14646TIP3    H165429   3.127   4.126  10.447  0.4513  0.7335 -0.9576
14646TIP3    H265430   3.054   3.994  10.438  2.0382 -0.3360  0.8042
14647TIP3   OH265431   4.837   6.146  15.368  0.3068 -0.1468  0.7452
14647TIP3    H165432   4.896   6.218  15.390 -0.0520  0.5032 -0.3436
14647TIP3    H265433   4.764   6.156  15.429 -0.1117  0.9054  0.0985
14648TIP3   OH265434   4.381   3.324  11.901 -0.2182 -0.2302  0.4004
14648TIP3    H165435   4.471   3.327  11.931 -0.3879 -1.6899  1.1384
14648TIP3    H265436   4.349   3.414  11.911  1.2466  0.3920 -0.2527
14649TIP3   OH265437   2.508   6.610   6.413 -0.7586  0.2118 -0.4312
14649TIP3    H165438   2.534   6.575   6.328  0.5474 -1.4820  0.5951
14649TIP3    H265439   2.490   6.533   6.467  1.6085  1.0353  1.7603
14650TIP3   OH265440   5.219   6.605   1.644 -0.3784  0.1442  0.3967
14650TIP3    H165441   5.141   6.631   1.595 -0.1000 -1.6345 -1.1169
14650TIP3    H265442   5.262   6.688   1.667 -1.5090  1.0960 -0.7505
14651TIP3   OH265443   6.437   5.084   5.532 -0.1942 -0.4162 -0.1838
14651TIP3    H165444   6.418   4.993   5.508 -0.8840 -0.0181 -1.1901
14651TIP3    H265445   6.355   5.131   5.515  0.2598  0.4572 -0.0075
14652TIP3   OH265446   3.570   3.609   3.341 -0.4781 -0.3940 -0.1654
14652TIP3    H165447   3.533   3.547   3.278 -1.4283  0.3618 -0.3924
14652TIP3    H265448   3.539   3.578   3.426 -1.7989  0.2951 -0.3621
14653TIP3   OH265449   0.664   5.683  11.585 -0.7100 -0.2862  0.5095
14653TIP3    H165450   0.729   5.679  11.656  1.2213 -0.3432 -1.1769
14653TIP3    H265451   0.641   5.592  11.569 -1.4184 -0.2478  1.2917
14654TIP3   OH265452   6.429   3.166  15.065 -0.2241  0.0270  0.4636
14654TIP3    H165453   6.340   3.133  15.069  0.0819 -0.6707  1.7888
14654TIP3    H265454   6.482   3.089  15.046  0.0096  0.6331 -1.6008
14655TIP3   OH265455   5.466   4.917   2.048 -0.0909  0.3059  0.1433
14655TIP3    H165456   5.457   4.844   2.110 -0.0076  1.1011  1.1108
14655TIP3    H265457   5.560   4.927   2.037 -0.0700 -1.4404 -2.1020
14656TIP3   OH265458   3.520   1.644  16.949 -0.1773 -0.3996  0.1219
14656TIP3    H165459   3.587   1.576  16.953 -0.2992 -0.4941  0.8265
14656TIP3    H265460   3.493   1.655  17.041  0.9702  1.7210  0.2534
14657TIP3   OH265461   4.776   0.462  14.457 -0.1988  0.0436  0.2584
14657TIP3    H165462   4.723   0.454  14.377 -0.0177 -0.5246  0.1925
14657TIP3    H265463   4.716   0.501  14.521  0.1251  2.1095 -0.6078
14658TIP3   OH265464   6.134   1.703   0.337 -0.0577  0.0784 -0.6669
14658TIP3    H165465   6.119   1.669   0.426  0.2942  0.5385 -0.4288
14658TIP3    H265466   6.092   1.789   0.338  0.1577  0.1829 -0.8748
14659TIP3   OH265467   5.872   6.696  16.131  0.0693 -0.5149 -0.4949
14659TIP3    H165468   5.780   6.687  16.153 -0.2128 -0.3303 -1.5586
14659TIP3    H265469   5.894   6.615  16.086  0.1339 -0.0957 -1.2274
14660TIP3   OH265470   2.183   0.228  15.013  0.4058 -0.0148 -0.1570
14660TIP3    H165471   2.107   0.231  14.955  0.3286  1.0520 -0.0152
14660TIP3    H265472   2.149   0.192  15.095  0.2750 -0.4609 -0.3997
14661TIP3   OH265473   1.166   4.201   3.219  0.1421  0.6925  0.1796
14661TIP3    H165474   1.184   4.116   3.179  1.8795  0.1440  1.9531
14661TIP3    H265475   1.075   4.195   3.249 -0.3420  0.1739 -1.3313
14662TIP3   OH265476   0.999   3.473  16.320 -0.6425 -0.1293  0.0588
14662TIP3    H165477   0.942   3.549  16.311 -0.0094  0.1400 -2.1297
14662TIP3    H265478   0.944   3.408  16.365 -1.9789  0.8032 -0.1631
14663TIP3   OH265479   1.263   1.800  12.157 -0.0560  0.1603 -0.1870
14663TIP3    H165480   1.267   1.876  12.215 -2.8438 -1.3005  2.1719
14663TIP3    H265481   1.355   1.774  12.146  0.7847 -0.3831  5.1355
14664TIP3   OH265482   6.020   2.794  12.015 -0.0619 -0.0922 -0.1226
14664TIP3    H165483   6.004   2.878  11.973  2.7166  1.1944  1.1349
14664TIP3    H265484   5.979   2.801  12.101  0.7453  0.2708  0.2408
14665TIP3   OH265485   5.378   3.924   6.020  0.4260  0.0963  0.1613
14665TIP3    H165486   5.379   3.845   5.966 -2.5614 -0.3151  0.5039
14665TIP3    H265487   5.288   3.929   6.052  0.2301  4.1144 -0.5418
14666TIP3   OH265488   3.401   4.363  16.148 -0.2925 -0.4662  0.0910
14666TIP3    H165489   3.325   4.313  16.175 -1.6088  1.5131  0.2161
14666TIP3    H265490   3.385   4.384  16.056  0.4732 -0.6621 -0.0989
14667TIP3   OH265491   5.041   2.848  12.513 -0.1097 -0.4497  0.0494
14667TIP3    H165492   5.068   2.891  12.432 -0.9616 -0.3268 -0.1878
14667TIP3    H265493   5.061   2.911  12.582  2.4268 -1.3221  0.1898
14668TIP3   OH265494   0.377   2.621  11.318  0.0639 -0.3366 -0.3602
14668TIP3    H165495   0.318   2.670  11.261 -0.1469 -0.9531 -0.6775
14668TIP3    H265496   0.341   2.635  11.406 -0.1211 -0.1021 -0.4721
14669TIP3   OH265497   4.830   4.468   6.703 -0.3122 -0.2068  0.0074
14669TIP3    H165498   4.912   4.419   6.698 -0.1799  0.0628 -0.5111
14669TIP3    H265499   4.856   4.556   6.731 -0.6628 -0.7132  2.0566
14670TIP3   OH265500   3.420   0.022   1.839 -0.6924  0.4361 -0.1632
14670TIP3    H165501   3.367   0.072   1.900  0.5580  2.8754 -0.9605
14670TIP3    H265502   3.433   0.081   1.764  2.0808 -0.4984 -0.5294
14671TIP3   OH265503   3.816   6.740  15.350  0.2110  0.1859  0.0162
14671TIP3    H165504   3.907   6.731  15.378  0.8592 -0.1325 -2.0545
14671TIP3    H265505   3.777   6.654  15.370  1.4032 -1.0308 -2.4204
14672TIP3   OH265506   6.644   5.044  15.983  0.1655 -0.0888  0.1389
14672TIP3    H165507   6.609   5.047  16.072 -0.5372 -2.3398 -0.0173
14672TIP3    H265508   6.611   4.963  15.946 -0.5010  1.3134 -2.6162
14673TIP3   OH265509   4.194   6.126   1.080  0.1701 -0.2190 -0.3669
14673TIP3    H165510   4.124   6.152   1.020 -1.1966  0.4014  1.3866
14673TIP3    H265511   4.223   6.208   1.120  1.2314 -0.5855 -0.3670
14674TIP3   OH265512   1.375   4.703  14.632  0.0088 -0.2324  0.4214
14674TIP3    H165513   1.404   4.794  14.637 -1.4595  0.3306 -0.5788
14674TIP3    H265514   1.280   4.707  14.642  0.0208 -1.8049  1.6425
14675TIP3   OH265515   4.396   3.653   3.515 -0.0351  0.3666  0.2171
14675TIP3    H165516   4.430   3.724   3.570 -3.2310  1.2916  1.2337
14675TIP3    H265517   4.429   3.673   3.427  2.2394  0.8750  1.0948
14676TIP3   OH265518   3.156   3.465  10.664  0.0106 -0.4098 -0.2688
14676TIP3    H165519   3.164   3.557  10.639  0.3071 -0.3074  0.1915
14676TIP3    H265520   3.098   3.466  10.740 -1.6289 -0.8074 -1.4460
14677TIP3   OH265521   0.104   2.396  14.590 -0.6439  0.1391  0.1010
14677TIP3    H165522   0.115   2.395  14.495 -1.6046  0.1163 -0.0203
14677TIP3    H265523   0.178   2.448  14.622 -0.1528 -0.0940 -0.6330
14678TIP3   OH265524   1.714   5.721  16.545 -0.2676 -0.2631 -0.3701
14678TIP3    H165525   1.729   5.639  16.593 -0.4890 -0.9325 -1.4105
14678TIP3    H265526   1.798   5.740  16.503 -0.0824  0.3088  0.2311
14679TIP3   OH265527   3.237   5.474  13.050 -0.4835 -0.6186 -0.9059
14679TIP3    H165528   3.287   5.487  12.970 -1.4197  0.4638 -1.3432
14679TIP3    H265529   3.158   5.429  13.021  0.3678 -2.6813 -0.1641
14680TIP3   OH265530   3.985   5.039   3.458  0.6034  0.0267  0.3086
14680TIP3    H165531   4.027   5.122   3.478  1.0239 -0.0590 -0.2224
14680TIP3    H265532   3.900   5.044   3.503  0.6702  0.6936  0.3634
14681TIP3   OH265533   4.788   5.679   3.184  0.1938  0.6532  0.3003
14681TIP3    H165534   4.857   5.706   3.245  0.4139 -1.2354  0.9434
14681TIP3    H265535   4.713   5.662   3.240  0.0035  0.1504 -0.1045
14682TIP3   OH265536   5.387   5.261  14.815  0.4234 -0.6409  0.3213
14682TIP3    H165537   5.351   5.176  14.788  2.6275 -1.2203 -1.0295
14682TIP3    H265538   5.336   5.284  14.893 -1.7436 -2.1047 -0.5409
14683TIP3   OH265539   5.070   4.758   4.359 -0.1733  0.3310 -0.0637
14683TIP3    H165540   4.993   4.741   4.305 -0.2141  0.7491 -0.1429
14683TIP3    H265541   5.063   4.851   4.382 -0.1990  0.1393  0.7217
14684TIP3   OH265542   2.057   5.055   5.159  0.1367  0.1425 -0.2729
14684TIP3    H165543   2.120   5.121   5.133 -0.6325  1.4609  1.0259
14684TIP3    H265544   2.109   4.989   5.206  0.9212 -0.2538 -1.6586
14685TIP3   OH265545   0.156   0.403   5.208  0.4460 -0.8590  0.0282
14685TIP3    H165546   0.153   0.424   5.114 -0.6625  0.6686  0.3755
14685TIP3    H265547   0.242   0.362   5.220  0.9635 -0.3008 -1.4983
14686TIP3   OH265548   3.586   3.965   0.092  0.5492  0.0578 -0.0727
14686TIP3    H165549   3.531   3.928   0.160  1.2505 -0.2760  0.3261
14686TIP3    H265550   3.607   4.053   0.123  0.8004 -0.0642  0.1072
14687TIP3   OH265551   1.228   2.331   3.211  0.5884  0.3274  0.1752
14687TIP3    H165552   1.242   2.425   3.199  1.4187 -0.1319 -3.8517
14687TIP3    H265553   1.312   2.291   3.189 -0.7662 -1.4720 -2.2280
14688TIP3   OH265554   5.569   0.851   5.884  1.0996  0.0413 -0.2838
14688TIP3    H165555   5.569   0.801   5.803 -1.8498 -1.4117  0.4703
14688TIP3    H265556   5.655   0.833   5.923  1.9815 -0.4578 -2.3293
14689TIP3   OH265557   6.496   4.250  13.702 -0.2718 -0.0742 -0.2875
14689TIP3    H165558   6.534   4.295  13.627  0.3211  0.3060  0.2306
14689TIP3    H265559   6.547   4.169  13.710 -1.6172 -1.0927 -1.4835
14690TIP3   OH265560   0.163   5.028  12.554  0.3974 -0.2882  0.2206
14690TIP3    H165561   0.131   4.980  12.630  0.7504 -0.0827  0.5034
14690TIP3    H265562   0.203   4.962  12.499  1.9617 -0.1784  1.1700
14691TIP3   OH265563   5.904   0.274   1.191  0.2808  0.4164 -0.1662
14691TIP3    H165564   5.879   0.255   1.100  0.7331  0.1659 -0.2439
14691TIP3    H265565   5.992   0.311   1.184  1.2301 -1.6019  0.3036
14692TIP3   OH265566   2.796   6.477   4.118 -0.1961  0.1259 -0.1846
14692TIP3    H165567   2.783   6.522   4.034 -0.6360 -1.6065 -1.0773
14692TIP3    H265568   2.789   6.384   4.097  0.5989 -0.3813  1.6306
14693TIP3   OH265569   2.480   5.542   4.836 -0.6031  0.2461  0.0350
14693TIP3    H165570   2.467   5.583   4.922 -0.1071 -1.0728  0.7768
14693TIP3    H265571   2.543   5.598   4.792 -1.0205  1.0586  0.4489
14694TIP3   OH265572   6.390   3.769   0.606 -0.6871 -0.0875  0.3746
14694TIP3    H165573   6.315   3.826   0.588 -1.0032 -0.2071  1.2412
14694TIP3    H265574   6.418   3.738   0.520 -3.2564 -2.1218  0.1197
14695TIP3   OH265575   0.630   4.590   5.084 -0.3809  0.6740  0.2705
14695TIP3    H165576   0.625   4.582   4.989  0.8310  0.4898  0.2085
14695TIP3    H265577   0.570   4.662   5.106 -0.4893  0.8685 -0.6498
14696TIP3   OH265578   4.572   0.690   0.928 -0.0495  0.3134 -0.0685
14696TIP3    H165579   4.578   0.619   0.863 -0.2949 -0.4601  0.7425
14696TIP3    H265580   4.587   0.647   1.012 -2.1703  0.8659  0.6348
14697TIP3   OH265581   0.142   4.771   3.802 -0.9962  0.4563  0.0094
14697TIP3    H165582   0.191   4.737   3.876  0.5298  0.9801 -0.7140
14697TIP3    H265583   0.098   4.695   3.764 -0.7744 -0.0233  0.7029
14698TIP3   OH265584   3.572   1.540  15.044 -1.0759  0.4276  0.0726
14698TIP3    H165585   3.540   1.587  15.121 -2.5751  0.5383 -0.6011
14698TIP3    H265586   3.668   1.546  15.051 -1.1193 -0.5244  2.5116
14699TIP3   OH265587   4.154   1.540  16.604  0.0578 -0.4672 -0.5603
14699TIP3    H165588   4.151   1.635  16.620 -1.5543 -0.7089  0.9668
14699TIP3    H265589   4.185   1.503  16.687 -0.9850 -1.3499 -0.5349
14700TIP3   OH265590   3.153   4.250  13.774 -0.1044  0.0034 -0.5949
14700TIP3    H165591   3.059   4.252  13.789  0.1774  1.5840  1.2888
14700TIP3    H265592   3.191   4.229  13.859  1.3342  2.2408 -0.5955
14701TIP3   OH265593   3.519   0.173  15.885 -0.1244  0.0212 -0.0756
14701TIP3    H165594   3.449   0.131  15.936  0.4015 -0.1869  0.4970
14701TIP3    H265595   3.550   0.244  15.942  0.3840 -0.1327 -0.1561
14702TIP3   OH265596   1.385   3.211   0.629 -0.3441  0.2524  0.2737
14702TIP3    H165597   1.317   3.148   0.652 -0.8596  0.0524 -1.6875
14702TIP3    H265598   1.434   3.169   0.559  0.0644  1.5409 -0.2334
14703TIP3   OH265599   4.047   4.400   1.899 -0.3161 -0.4062  0.6921
14703TIP3    H165600   3.963   4.359   1.882 -0.5454  0.5443 -0.5827
14703TIP3    H265601   4.026   4.476   1.954 -0.2079 -0.4901  0.8530
14704TIP3   OH265602   0.525   3.366  12.795 -0.0244  0.3830 -0.0131
14704TIP3    H165603   0.457   3.417  12.839  0.1782 -1.0246  2.1080
14704TIP3    H265604   0.596   3.360  12.859  0.8123 -0.7569 -0.9885
14705TIP3   OH265605   6.621   0.635  15.956 -0.0481  0.1453 -0.8876
14705TIP3    H165606   6.691   0.587  16.001  1.2173  2.6251  0.0103
14705TIP3    H265607   6.562   0.568  15.925  2.2393 -2.0383 -0.8401
14706TIP3   OH265608   5.652   3.268  14.713 -0.1738 -0.2169  0.0431
14706TIP3    H165609   5.583   3.240  14.774  0.1503 -0.3181  0.3673
14706TIP3    H265610   5.617   3.247  14.627 -0.5008 -0.3830  0.2115
14707TIP3   OH265611   5.988   4.853   3.896 -0.2727  0.1160  0.3163
14707TIP3    H165612   6.008   4.912   3.969 -0.4581  2.0017 -1.0912
14707TIP3    H265613   5.964   4.910   3.824 -1.3042 -1.7362 -0.9087
14708TIP3   OH265614   1.863   2.006   5.208  0.6737 -0.2739 -0.0512
14708TIP3    H165615   1.799   1.982   5.276 -0.9995  1.8528 -0.7522
14708TIP3    H265616   1.830   1.963   5.129 -1.2643  2.4673 -0.8909
14709TIP3   OH265617   1.718   1.002   5.022 -0.0039  0.0460 -0.8438
14709TIP3    H165618   1.808   0.971   5.035 -0.1477 -0.8887 -1.8624
14709TIP3    H265619   1.727   1.097   5.009  0.4789  0.4815  2.0817
14710TIP3   OH265620   6.240   3.446  13.238 -0.6833  0.0882  0.1499
14710TIP3    H165621   6.281   3.419  13.320 -1.0993  0.3120  0.4366
14710TIP3    H265622   6.154   3.405  13.239 -0.4377 -0.4650 -0.4968
14711TIP3   OH265623   2.819   1.963   3.719 -0.5928 -0.4378  0.5235
14711TIP3    H165624   2.736   1.973   3.673  0.0368  3.5831 -0.1033
14711TIP3    H265625   2.794   1.943   3.809 -2.2510  0.2306  0.2473
14712TIP3   OH265626   0.957   1.859   3.515  0.1461 -0.4220 -0.1331
14712TIP3    H165627   1.008   1.940   3.522 -1.4189  0.5732  0.1923
14712TIP3    H265628   0.999   1.810   3.445  1.0859  0.7013 -0.3787
14713TIP3   OH265629   5.223   6.041   3.237  0.0855  0.3808  0.1948
14713TIP3    H165630   5.248   6.098   3.309  2.5575  0.4235 -0.5974
14713TIP3    H265631   5.247   5.953   3.266  1.6573  0.4684 -0.7599
14714TIP3   OH265632   1.995   5.592  15.334 -0.4086  0.3146  0.4376
14714TIP3    H165633   2.048   5.630  15.264  0.8009  0.3203  1.3127
14714TIP3    H265634   1.996   5.498  15.317 -0.9061  0.4025 -0.0763
14715TIP3   OH265635   4.656   4.036  10.367  0.2727 -0.2018 -0.3701
14715TIP3    H165636   4.655   4.110  10.427 -0.0261  0.6590 -1.3929
14715TIP3    H265637   4.583   3.981  10.395 -0.1364  0.4135 -0.2059
14716TIP3   OH265638   5.311   3.415   3.196  0.7212 -0.0005 -0.3357
14716TIP3    H165639   5.250   3.413   3.122  2.4125 -0.4938 -1.7745
14716TIP3    H265640   5.289   3.495   3.243 -0.2043  0.4818 -1.5419
14717TIP3   OH265641   0.749   5.988  12.547  0.5489  0.3880  0.0656
14717TIP3    H165642   0.844   5.976  12.550  0.7481  0.8918 -2.4539
14717TIP3    H265643   0.714   5.899  12.545  0.8112  0.1541  2.4009
14718TIP3   OH265644   0.485   4.447   1.772  0.1608  0.1401  0.4203
14718TIP3    H165645   0.554   4.471   1.709  0.2328 -2.6866 -0.6967
14718TIP3    H265646   0.404   4.474   1.730  0.3463  0.2494  0.1299
14719TIP3   OH265647   2.377   2.709   5.165 -0.0161  0.2894  0.1042
14719TIP3    H165648   2.441   2.684   5.099  1.3499  2.9027  0.3354
14719TIP3    H265649   2.296   2.724   5.116  0.1012 -0.8876 -0.4868
14720TIP3   OH265650   0.031   1.591   3.189  0.0563  0.6684  0.3228
14720TIP3    H165651  -0.017   1.521   3.233  0.7946 -0.5589 -0.7602
14720TIP3    H265652  -0.023   1.615   3.114  0.8765 -0.4266 -0.6587
14721TIP3   OH265653   3.605   0.042  13.611  0.3152 -0.2121 -0.1107
14721TIP3    H165654   3.607  -0.047  13.646  1.8953 -0.1585  0.0133
14721TIP3    H265655   3.536   0.040  13.545  1.4915 -2.0510 -1.3878
14722TIP3   OH265656   3.258   1.347  11.014 -0.1653  0.3932  0.4013
14722TIP3    H165657   3.163   1.358  11.011 -0.3949 -1.3767  0.4052
14722TIP3    H265658   3.279   1.291  10.939  0.9492  1.0992  0.1486
14723TIP3   OH265659   5.356   2.215   2.577 -0.4575 -0.2874  0.1512
14723TIP3    H165660   5.388   2.146   2.635  0.7498 -0.7988 -1.0709
14723TIP3    H265661   5.413   2.209   2.500  1.9201  4.1512  1.2456
14724TIP3   OH265662   6.448   2.874   5.261  0.0874  0.0032 -0.4815
14724TIP3    H165663   6.368   2.822   5.270 -0.3623  0.8782  1.1502
14724TIP3    H265664   6.504   2.824   5.203 -1.0057 -1.4471 -0.3290
14725TIP3   OH265665   0.168   2.735   5.021  0.0809  0.0219  0.4318
14725TIP3    H165666   0.235   2.720   4.955  1.7505  1.7740  1.5944
14725TIP3    H265667   0.135   2.648   5.042  1.5457 -0.8522 -0.6586
14726TIP3   OH265668   0.670   4.580  14.636  0.3051 -0.6207  0.2062
14726TIP3    H165669   0.714   4.577  14.552 -1.0571  0.1824 -0.5657
14726TIP3    H265670   0.627   4.665  14.639  0.1233 -0.7271  1.6101
14727TIP3   OH265671   1.129   3.499   0.362 -0.4813  0.8324 -0.1847
14727TIP3    H165672   1.075   3.446   0.422 -0.1677  0.7154 -0.0056
14727TIP3    H265673   1.219   3.480   0.388 -0.3717  1.7559  0.1535
14728TIP3   OH265674   1.141   5.591  14.990 -0.2324 -0.1957 -0.3412
14728TIP3    H165675   1.236   5.601  14.982 -0.3734  0.7406 -0.8812
14728TIP3    H265676   1.124   5.504  14.952  0.2376  0.2442 -1.6123
14729TIP3   OH265677   6.600   5.354  13.858  0.2043 -0.0296  0.0089
14729TIP3    H165678   6.656   5.372  13.934  0.3162 -1.7162  0.3649
14729TIP3    H265679   6.548   5.433  13.847  0.6528  0.4929  1.4420
14730TIP3   OH265680   5.803   4.864   4.427  0.7314  0.2019 -0.2413
14730TIP3    H165681   5.812   4.925   4.354  0.8709  1.2268  0.5999
14730TIP3    H265682   5.719   4.821   4.412 -0.7630  2.6393  0.5790
14731TIP3   OH265683   6.761   4.324  16.664 -0.3423  0.0453 -0.5161
14731TIP3    H165684   6.810   4.247  16.638 -0.7881 -0.2070 -0.6115
14731TIP3    H265685   6.810   4.398  16.628 -0.0659 -0.2080 -0.6571
14732TIP3   OH265686   3.429   6.061   0.341  0.1494  0.4653 -0.6748
14732TIP3    H165687   3.469   6.100   0.263 -0.9403 -1.2978 -2.1887
14732TIP3    H265688   3.406   6.136   0.396  1.1937  1.7492 -1.9197
14733TIP3   OH265689   1.367   1.555  14.054 -0.3450 -0.0023 -0.6558
14733TIP3    H165690   1.454   1.589  14.075 -0.2090 -0.5780 -0.2735
14733TIP3    H265691   1.340   1.507  14.133 -1.0593  0.2725 -0.7248
14734TIP3   OH265692   4.838   1.536   0.943  0.5799 -0.8727  0.7058
14734TIP3    H165693   4.802   1.453   0.910 -0.4686  0.7339 -2.6836
14734TIP3    H265694   4.917   1.550   0.891  0.3511  0.5805  0.7099
14735TIP3   OH265695   0.357   2.662   2.834 -0.1307 -0.6902 -0.5343
14735TIP3    H165696   0.309   2.609   2.897 -1.6626  1.6054  0.3282
14735TIP3    H265697   0.316   2.643   2.750  0.9377 -2.6244 -0.6756
14736TIP3   OH265698   3.091   6.129   2.008  0.3937 -0.5773 -0.1331
14736TIP3    H165699   3.169   6.145   1.954 -0.2433 -0.0578 -0.9189
14736TIP3    H265700   3.118   6.152   2.096  0.1703  3.1286 -0.8498
14737TIP3   OH265701   0.159   5.433  12.304 -0.3627 -0.0394  0.3581
14737TIP3    H165702   0.176   5.459  12.214 -1.3388  0.7118  0.3779
14737TIP3    H265703   0.213   5.356  12.317  0.6101  0.4747 -0.5280
14738TIP3   OH265704   2.045   2.899   4.637  0.2670  0.5121  0.0635
14738TIP3    H165705   2.024   2.971   4.577  0.2020  1.8841  1.6640
14738TIP3    H265706   2.138   2.881   4.621  0.5686  1.6959  0.3755
14739TIP3   OH265707   1.131   4.887  14.579 -0.2767 -0.6503 -0.2906
14739TIP3    H165708   1.058   4.927  14.532  0.5519 -0.4215 -1.4106
14739TIP3    H265709   1.090   4.848  14.657 -1.0794  3.0093  1.3589
14740TIP3   OH265710   4.920   6.705  14.923  0.3477 -0.0657 -0.0636
14740TIP3    H165711   4.978   6.651  14.977  2.1200  1.4358 -0.3487
14740TIP3    H265712   4.932   6.672  14.834  0.3078 -0.1237 -0.0479
14741TIP3   OH265713   5.722   6.113   1.668 -0.0766 -0.1885 -0.3534
14741TIP3    H165714   5.731   6.065   1.750 -3.9643  0.0268  0.4137
14741TIP3    H265715   5.760   6.199   1.686 -0.7491 -0.1816  1.2234
14742TIP3   OH265716   2.583   1.491   2.680  0.2628  0.2339  0.0170
14742TIP3    H165717   2.669   1.534   2.674 -0.4890  1.9924  0.9171
14742TIP3    H265718   2.558   1.501   2.772 -0.5133 -1.0955 -0.0279
14743TIP3   OH265719   5.737   5.103   1.334  0.0999 -0.9735 -0.2526
14743TIP3    H165720   5.804   5.059   1.385  1.5037  0.3753 -0.8414
14743TIP3    H265721   5.752   5.196   1.350 -1.6719 -0.6258 -0.3789
14744TIP3   OH265722   1.111   4.825   4.515 -0.4538  0.1128 -0.2655
14744TIP3    H165723   1.078   4.854   4.430 -1.9306  0.6658  0.4624
14744TIP3    H265724   1.137   4.906   4.559 -0.8635 -0.0416  0.2724
14745TIP3   OH265725   4.199   0.266   2.640 -0.5862 -0.1789 -0.1612
14745TIP3    H165726   4.175   0.345   2.590  0.4138  0.3415  0.1497
14745TIP3    H265727   4.119   0.242   2.687 -1.0555  0.3332 -0.6795
14746TIP3   OH265728   6.271   3.576  10.243 -0.5817  0.2423 -0.3044
14746TIP3    H165729   6.354   3.560  10.287  0.3489 -0.8324 -2.3172
14746TIP3    H265730   6.246   3.664  10.270 -0.4105 -0.5220  2.7779
14747TIP3   OH265731   0.221   0.275  15.309 -0.1106 -0.1980  0.2063
14747TIP3    H165732   0.269   0.301  15.388 -1.7138  1.0083  0.8479
14747TIP3    H265733   0.202   0.182  15.323  2.1253 -0.7603 -0.1611
14748TIP3   OH265734   0.675   0.149   2.847 -0.2443 -0.3803 -0.8729
14748TIP3    H165735   0.595   0.145   2.794 -1.2191  1.4710  0.3662
14748TIP3    H265736   0.644   0.153   2.937  1.2383  0.6921 -0.3819
14749TIP3   OH265737   5.393   1.573  16.866  0.1630 -0.4226  0.6405
14749TIP3    H165738   5.473   1.613  16.832 -0.4302  1.2920  1.1841
14749TIP3    H265739   5.331   1.579  16.793  0.3063 -1.1124  0.4548
14750TIP3   OH265740   4.864   0.899   3.828  0.1715  0.8311 -0.2839
14750TIP3    H165741   4.811   0.904   3.749  1.5708  1.1780 -1.2331
14750TIP3    H265742   4.868   0.989   3.860  0.9920  0.9654 -0.7632
14751TIP3   OH265743   2.826   0.264   2.654  0.1545 -0.4649  0.3464
14751TIP3    H165744   2.878   0.288   2.578 -0.4345 -0.8309 -0.1805
14751TIP3    H265745   2.788   0.347   2.684  0.9971 -0.2029  0.7133
14752TIP3   OH265746   1.943   6.375  14.751 -0.4570 -0.4401 -0.0756
14752TIP3    H165747   2.003   6.317  14.704 -0.2725 -0.4290  0.1429
14752TIP3    H265748   1.883   6.315  14.796  0.4085 -0.4993  1.0386
14753TIP3   OH265749   3.216   2.905  16.631 -0.0552  0.3751 -0.0738
14753TIP3    H165750   3.142   2.965  16.619 -1.9946 -1.8025  0.2708
14753TIP3    H265751   3.274   2.951  16.691 -1.3270  2.0097 -0.0191
14754TIP3   OH265752   3.890   0.645  16.855 -0.0041  0.3857 -0.3871
14754TIP3    H165753   3.917   0.645  16.763  1.8076  1.7269  0.0668
14754TIP3    H265754   3.928   0.565  16.892  0.3683  0.4988 -0.5280
14755TIP3   OH265755   1.484   6.645   3.630  0.6606  0.2349  0.6298
14755TIP3    H165756   1.432   6.565   3.629  2.1930 -0.7933  0.3533
14755TIP3    H265757   1.448   6.696   3.704 -0.8068 -0.3412  0.3504
14756TIP3   OH265758   2.953   0.532  16.627  0.1979  0.1693  0.3394
14756TIP3    H165759   2.957   0.458  16.566  0.0569  0.4360 -0.0029
14756TIP3    H265760   2.958   0.609  16.570  0.2207  0.4222  0.6827
14757TIP3   OH265761   1.629   1.419  15.044 -0.1279  0.2964 -0.0156
14757TIP3    H165762   1.592   1.403  15.131 -0.8768  0.6944 -0.2544
14757TIP3    H265763   1.700   1.356  15.036 -0.2276  0.0774  0.7816
14758TIP3   OH265764   2.564   3.934  11.937  0.5799 -0.0681  0.1521
14758TIP3    H165765   2.482   3.958  11.980 -0.0842 -3.7278  1.3024
14758TIP3    H265766   2.538   3.875  11.867  2.1702  0.0320 -0.5611
14759TIP3   OH265767   1.436   3.555   4.891  0.3394  0.6413 -0.0926
14759TIP3    H165768   1.370   3.619   4.863  0.1223  0.9637  1.0860
14759TIP3    H265769   1.385   3.477   4.913  0.5557  0.2181 -1.0272
14760TIP3   OH265770   2.546   5.179  11.324 -0.1489 -0.2403 -0.2260
14760TIP3    H165771   2.612   5.143  11.383  1.0508  0.3324 -1.1742
14760TIP3    H265772   2.483   5.108  11.312  0.6229 -1.0144  0.2279
14761TIP3   OH265773   6.241   2.430  16.894 -0.4582  0.5797  0.1080
14761TIP3    H165774   6.228   2.515  16.853  1.3277  0.4046 -0.9068
14761TIP3    H265775   6.219   2.444  16.986 -3.9117  1.1442 -0.6878
14762TIP3   OH265776   0.759   1.736  13.090 -0.2108 -0.1671  0.1987
14762TIP3    H165777   0.791   1.667  13.148 -0.8533  1.8415  3.1168
14762TIP3    H265778   0.676   1.701  13.056  0.3527 -1.5210  0.1177
14763TIP3   OH265779   1.549   4.618  11.773  0.1153 -0.0138  0.9646
14763TIP3    H165780   1.535   4.524  11.762  1.2517 -0.0553 -0.3958
14763TIP3    H265781   1.639   4.633  11.744 -1.1538  2.0266 -2.6236
14764TIP3   OH265782   4.575   2.788  15.709 -0.4077 -0.8381 -0.0497
14764TIP3    H165783   4.618   2.866  15.742 -2.0389  0.9948 -2.0077
14764TIP3    H265784   4.647   2.734  15.674  0.5946  0.5943 -0.2694
14765TIP3   OH265785   4.792   3.207  10.597  0.5783  0.0547  0.2938
14765TIP3    H165786   4.860   3.270  10.573  0.5296  0.5748  1.4657
14765TIP3    H265787   4.839   3.134  10.635  0.7369 -1.2149 -2.1444
14766TIP3   OH265788   4.391   1.493  12.130  0.0254  0.2797  0.1023
14766TIP3    H165789   4.434   1.444  12.059 -0.5081  0.3075 -0.2462
14766TIP3    H265790   4.425   1.454  12.210  0.3660  0.0061 -0.1698
14767TIP3   OH265791   5.720   0.289   0.772  0.6235  0.4953 -0.0081
14767TIP3    H165792   5.715   0.371   0.722  1.1806  0.1540 -0.6442
14767TIP3    H265793   5.814   0.267   0.771  0.2803 -1.1776 -1.5600
14768TIP3   OH265794   4.402   1.513   5.250 -0.6697 -0.2283 -0.4671
14768TIP3    H165795   4.407   1.473   5.337  1.0316  1.9455  0.5412
14768TIP3    H265796   4.317   1.485   5.216 -1.5624 -0.8725  2.0506
14769TIP3   OH265797   4.000   0.712   1.439  0.0977 -0.1189 -0.5366
14769TIP3    H165798   4.030   0.709   1.529 -0.7200 -0.5392 -0.2663
14769TIP3    H265799   3.984   0.805   1.422  0.4232 -0.0196 -0.3119
14770TIP3   OH265800   2.509   2.940  14.832 -0.1995 -0.2431  0.2978
14770TIP3    H165801   2.454   3.018  14.839 -0.8338 -0.6578  0.0066
14770TIP3    H265802   2.569   2.946  14.907  0.1000  0.7783 -0.0080
14771TIP3   OH265803   0.123   2.125  14.715 -0.0594  0.2388 -0.1640
14771TIP3    H165804   0.110   2.132  14.810 -2.4612 -0.0994 -0.4091
14771TIP3    H265805   0.105   2.212  14.682 -0.8020 -0.0241 -0.4556
14772TIP3   OH265806   4.288   6.733   2.084  0.1167  0.9246 -0.0564
14772TIP3    H165807   4.210   6.719   2.138  1.4638 -2.1580  1.3520
14772TIP3    H265808   4.293   6.655   2.028  0.5307  2.5518 -2.4296
14773TIP3   OH265809   4.577   5.818  13.868  0.6587 -0.5304  0.4449
14773TIP3    H165810   4.592   5.825  13.962  1.9363  0.2081  0.2027
14773TIP3    H265811   4.575   5.908  13.837 -0.0285 -0.7581 -0.2022
14774TIP3   OH265812   1.344   0.934  11.669  0.2050  0.3655  0.4987
14774TIP3    H165813   1.260   0.980  11.671  1.1269  2.1231  1.1289
14774TIP3    H265814   1.379   0.946  11.757  0.7631 -1.0927  0.4995
14775TIP3   OH265815   1.327   5.818   5.579  0.0915 -0.4636 -0.1209
14775TIP3    H165816   1.357   5.727   5.571 -0.0616 -0.4106 -1.6808
14775TIP3    H265817   1.234   5.814   5.558 -0.0725 -0.0364  0.5202
14776TIP3   OH265818   5.766   4.335   0.740 -0.7138 -0.2745 -0.0411
14776TIP3    H165819   5.734   4.407   0.685  1.6012  1.8586  1.1793
14776TIP3    H265820   5.822   4.284   0.682 -0.1750  0.5616 -0.2759
14777TIP3   OH265821   2.780   4.234  16.098 -0.1827  0.1287 -0.8906
14777TIP3    H165822   2.831   4.166  16.142 -0.7716 -0.1225 -0.5864
14777TIP3    H265823   2.812   4.233  16.007  0.4158  0.0422 -0.6853
14778TIP3   OH265824   1.800   4.073   3.319 -0.9576 -0.3974  0.0664
14778TIP3    H165825   1.821   4.137   3.251  0.5881 -2.2732 -1.3433
14778TIP3    H265826   1.779   4.126   3.396 -0.3521  1.7827 -1.1728
14779TIP3   OH265827   3.309   0.610   0.010  0.4417  0.2130  0.4493
14779TIP3    H165828   3.321   0.559   0.090  1.4726 -1.1696 -0.5351
14779TIP3    H265829   3.272   0.548  -0.053  1.4723  0.7356 -0.7116
14780TIP3   OH265830   1.209   4.866  11.775  0.4232  0.2916 -0.6798
14780TIP3    H165831   1.210   4.802  11.845  0.8211 -0.1681 -1.0992
14780TIP3    H265832   1.212   4.814  11.695  2.0251  0.8413 -1.0171
14781TIP3   OH265833   2.988   1.287  16.101  0.3358  0.0316  0.9199
14781TIP3    H165834   3.079   1.302  16.126  0.4815 -0.2493  0.5566
14781TIP3    H265835   2.938   1.348  16.156  0.8759  1.4719 -0.1487
14782TIP3   OH265836   3.571   1.111  15.499  0.7859  0.2535 -1.0556
14782TIP3    H165837   3.565   1.155  15.414 -0.3887 -1.6467 -2.0218
14782TIP3    H265838   3.624   1.033  15.481 -0.5651 -0.8543 -0.3684
14783TIP3   OH265839   6.160   2.280   5.468  0.2226  0.0961  0.2039
14783TIP3    H165840   6.177   2.186   5.468  0.0483  0.0591 -0.8395
14783TIP3    H265841   6.065   2.287   5.465  0.2593  0.2794 -1.7066
14784TIP3   OH265842   4.413   1.267  13.068 -0.0183 -0.0771  0.1689
14784TIP3    H165843   4.345   1.334  13.057  0.1723  0.2613  0.9764
14784TIP3    H265844   4.405   1.239  13.159  0.7732 -0.2029  0.2084
14785TIP3   OH265845   1.268   6.256   6.056  0.8447  0.1751 -0.0611
14785TIP3    H165846   1.291   6.206   5.978  0.7520 -1.6155  1.0074
14785TIP3    H265847   1.341   6.243   6.116  0.7057  1.1406  0.3371
14786TIP3   OH265848   0.674   4.135  10.477 -0.1431 -0.5521  0.5317
14786TIP3    H165849   0.749   4.082  10.506 -0.1674 -1.0444 -0.2682
14786TIP3    H265850   0.622   4.075  10.425 -0.1422  0.2781 -0.4439
14787TIP3   OH265851   0.440   2.628  17.110 -0.1298  0.3473 -0.6848
14787TIP3    H165852   0.351   2.627  17.073 -0.4265 -1.5167 -0.0239
14787TIP3    H265853   0.443   2.550  17.165  1.3451  1.3580  0.7184
14788TIP3   OH265854   2.918   2.340  14.696 -0.0380  0.5001 -0.0523
14788TIP3    H165855   2.906   2.432  14.672 -1.1803  0.2626 -0.4106
14788TIP3    H265856   2.864   2.292  14.634 -0.0625 -0.3681  0.6300
14789TIP3   OH265857   4.143   4.755  12.105  0.0917  0.0599 -0.2019
14789TIP3    H165858   4.197   4.803  12.042 -2.0305  0.8661 -1.5046
14789TIP3    H265859   4.199   4.682  12.134  1.7373  0.6534 -1.7115
14790TIP3   OH265860   4.891   6.155  12.520  0.0426  0.1126  0.3345
14790TIP3    H165861   4.843   6.098  12.581 -1.5670  0.3427 -0.6624
14790TIP3    H265862   4.823   6.204  12.474  1.3129  1.4836 -0.1784
14791TIP3   OH265863   5.296   3.507  16.743  0.0631 -0.1827  0.5683
14791TIP3    H165864   5.346   3.473  16.669 -1.2113 -0.0516 -0.3676
14791TIP3    H265865   5.332   3.595  16.758  1.1701 -0.6726  0.9393
14792TIP3   OH265866   0.398   6.309  12.300  0.2971 -0.2229  0.1448
14792TIP3    H165867   0.330   6.260  12.255  0.8569  0.0763 -1.0721
14792TIP3    H265868   0.451   6.242  12.344  1.2685 -0.8017 -1.7931
14793TIP3   OH265869   6.020   5.274  15.280 -0.1147  0.4065  0.2041
14793TIP3    H165870   6.105   5.252  15.243 -1.3313 -1.0926 -1.9159
14793TIP3    H265871   6.017   5.227  15.364  1.2086  0.6601  0.4064
14794TIP3   OH265872   0.065   1.778   5.930  0.5733  0.2885 -0.3922
14794TIP3    H165873   0.030   1.692   5.903 -0.6433  0.5144  0.3709
14794TIP3    H265874   0.016   1.799   6.009  1.2110  1.4789 -0.3023
14795TIP3   OH265875   1.771   0.992   4.593  0.1204 -0.0331  0.0349
14795TIP3    H165876   1.708   1.045   4.640 -0.0808 -0.8061  0.6446
14795TIP3    H265877   1.809   0.934   4.659  0.5045 -0.4895 -0.5703
14796TIP3   OH265878   3.654   3.261  11.610  0.3832  0.2042  0.1821
14796TIP3    H165879   3.744   3.233  11.590 -0.5556 -1.6729 -1.8469
14796TIP3    H265880   3.630   3.317  11.537 -0.2736  0.2626  0.4433
14797TIP3   OH265881   1.040   6.433  12.861 -0.7287 -0.0390 -0.1517
14797TIP3    H165882   1.085   6.495  12.804  3.1449 -2.3529  0.0188
14797TIP3    H265883   0.979   6.387  12.803  0.5359  0.0727 -1.6503
14798TIP3   OH265884   3.702   0.340  11.597  0.5644 -0.9810 -0.2399
14798TIP3    H165885   3.652   0.302  11.669  1.4066  0.2255  1.0348
14798TIP3    H265886   3.636   0.362  11.531 -0.4300 -0.7659  0.7886
14799TIP3   OH265887   2.352   1.269   5.779 -0.4265 -0.2108  0.2145
14799TIP3    H165888   2.331   1.218   5.701 -0.3610  0.4446 -0.2443
14799TIP3    H265889   2.302   1.228   5.849 -0.9703 -0.4342 -0.2951
14800TIP3   OH265890   0.762   4.810   1.516 -0.2210  0.3381 -0.5694
14800TIP3    H165891   0.758   4.759   1.435  0.3246  1.8881 -1.6100
14800TIP3    H265892   0.768   4.901   1.488  0.9240  0.8714  1.1978
14801TIP3   OH265893   4.523   1.757   5.275 -0.3842  0.2590  0.0059
14801TIP3    H165894   4.486   1.670   5.258  1.1919 -0.3343 -0.5587
14801TIP3    H265895   4.512   1.804   5.192 -1.1449  0.5819  0.2804
14802TIP3   OH265896   3.212   3.040  14.584 -0.2812 -0.3494 -0.6110
14802TIP3    H165897   3.184   2.973  14.521 -0.9400 -0.3203 -0.3556
14802TIP3    H265898   3.300   3.012  14.610  0.0052 -0.3690 -1.5300
14803TIP3   OH265899   4.739   0.841  15.375 -0.1351  0.1040  0.7523
14803TIP3    H165900   4.720   0.748  15.385  0.5626 -0.0439  0.7380
14803TIP3    H265901   4.792   0.846  15.296 -0.1766  0.5156  0.7500
14804TIP3   OH265902   1.349   3.323  11.797  0.1554  0.6299 -0.2221
14804TIP3    H165903   1.255   3.341  11.790 -0.3805 -2.1775 -1.5560
14804TIP3    H265904   1.383   3.336  11.708  0.4538 -1.0230 -0.3731
14805TIP3   OH265905   0.903   6.742   2.872  0.4977 -0.2184 -0.5310
14805TIP3    H165906   0.856   6.821   2.897  0.7006 -0.4029  0.4536
14805TIP3    H265907   0.875   6.726   2.781 -1.7352 -0.5936  0.1567
14806TIP3   OH265908   2.511   2.482  11.971  0.2948  0.4173 -0.1133
14806TIP3    H165909   2.514   2.576  11.990 -1.6999  0.3448  0.7790
14806TIP3    H265910   2.459   2.476  11.890 -1.9508 -0.0317  1.2905
14807TIP3   OH265911   0.643   1.037   3.701 -0.2058  0.1774 -0.2556
14807TIP3    H165912   0.711   1.097   3.731  0.5862  0.1640 -1.9036
14807TIP3    H265913   0.684   0.987   3.631 -1.6291 -0.4838 -0.6674
14808TIP3   OH265914   3.601   1.949  16.443  0.1590 -0.0827 -0.5836
14808TIP3    H165915   3.593   1.925  16.535 -0.9759 -0.0808 -0.6666
14808TIP3    H265916   3.692   1.929  16.421  0.6382  0.5442  0.7048
14809TIP3   OH265917   0.510   4.317   3.231 -0.5483  0.7034  0.3010
14809TIP3    H165918   0.448   4.366   3.178 -0.8496 -0.3509 -0.3512
14809TIP3    H265919   0.575   4.382   3.258  0.9101  0.9612 -3.2233
14810TIP3   OH265920   0.206   3.860  12.901 -0.3811 -0.2240 -0.0437
14810TIP3    H165921   0.144   3.788  12.893  0.4222 -1.0323  0.6485
14810TIP3    H265922   0.182   3.904  12.983 -1.2783  0.7400 -0.7863
14811TIP3   OH265923   3.892   0.875  11.226 -0.1006 -0.1442  0.4080
14811TIP3    H165924   3.817   0.932  11.206 -0.0072 -0.3583 -0.5961
14811TIP3    H265925   3.853   0.789  11.243 -0.1490 -0.0553  0.7506
14812TIP3   OH265926   5.452   2.340  17.052 -0.2731 -0.3828  0.3105
14812TIP3    H165927   5.440   2.426  17.012 -3.0831 -1.4232 -1.3628
14812TIP3    H265928   5.365   2.300  17.051  0.7999 -3.0328  1.6205
14813TIP3   OH265929   2.155   5.140  16.383 -0.3231  0.4018  0.0691
14813TIP3    H165930   2.209   5.151  16.461  1.3560 -0.9571 -0.8256
14813TIP3    H265931   2.193   5.065  16.338 -0.1676  2.0889 -2.8815
14814TIP3   OH265932   2.162   3.964  11.741  0.2433 -0.3691 -0.3150
14814TIP3    H165933   2.254   3.941  11.726  0.6239  0.3358  0.7973
14814TIP3    H265934   2.129   3.987  11.654  1.6879  1.2984 -0.4812
14815TIP3   OH265935   3.861   5.743   5.358  0.4176 -0.2163  0.0403
14815TIP3    H165936   3.939   5.713   5.312  0.9666  0.5286  0.4687
14815TIP3    H265937   3.888   5.749   5.449 -0.2945 -0.4393  0.2736
14816TIP3   OH265938   6.030   0.317  14.791  0.1012  0.4627 -0.4259
14816TIP3    H165939   6.032   0.222  14.801 -0.6279  0.5532  0.9027
14816TIP3    H265940   6.121   0.343  14.781  0.9055 -0.0146  3.8300
14817TIP3   OH265941   2.839   0.051   0.156  0.3410 -0.0217  0.6649
14817TIP3    H165942   2.910  -0.009   0.130  0.0816  0.2385 -0.7369
14817TIP3    H265943   2.881   0.137   0.162 -0.3583  0.8167 -3.5676
14818TIP3   OH265944   1.927   1.957   1.907 -0.2452  0.0896 -0.0908
14818TIP3    H165945   1.959   1.887   1.964 -0.2089 -0.2691 -0.5477
14818TIP3    H265946   1.842   1.926   1.876 -0.3046  0.3226 -0.1630
14819TIP3   OH265947   3.737   1.128   1.281  0.5403 -0.3784  0.3310
14819TIP3    H165948   3.785   1.082   1.349  1.2958 -1.4568 -0.8695
14819TIP3    H265949   3.805   1.160   1.221 -0.1412 -0.2098 -0.3680
14820TIP3   OH265950   2.943   6.513  16.669  0.1339  0.0401  0.4056
14820TIP3    H165951   2.934   6.601  16.633 -1.0577 -0.1455  0.1859
14820TIP3    H265952   2.912   6.456  16.598  0.6908 -0.5369  0.6264
14821TIP3   OH265953   6.531   3.554  12.540 -0.0714 -0.2998 -0.3245
14821TIP3    H165954   6.517   3.586  12.629  1.9835  2.1646 -0.7525
14821TIP3    H265955   6.526   3.633  12.485  2.3233 -1.1135 -1.8840
14822TIP3   OH265956   3.143   2.061  13.722 -0.4888 -0.4885  0.1099
14822TIP3    H165957   3.064   2.113  13.710 -0.1001  0.2946  0.8607
14822TIP3    H265958   3.173   2.043  13.633 -0.4398  0.8770 -0.1694
14823TIP3   OH265959   2.738   6.719  12.729  0.2593 -0.1117 -0.6372
14823TIP3    H165960   2.660   6.733  12.783  1.0585 -0.7637  0.7442
14823TIP3    H265961   2.707   6.729  12.639 -1.1227  1.0095 -0.0779
14824TIP3   OH265962   4.507   5.710   4.401  0.6892  0.3722  0.9095
14824TIP3    H165963   4.481   5.793   4.443  3.2100  0.8551  1.6968
14824TIP3    H265964   4.498   5.727   4.307 -1.1629  0.6702  1.1072
14825TIP3   OH265965   4.568   5.752   5.992  0.3839  0.2672 -0.3785
14825TIP3    H165966   4.595   5.782   6.078 -1.4125  0.8095  0.0297
14825TIP3    H265967   4.574   5.829   5.936 -1.5482  0.7844  0.0409
14826TIP3   OH265968   0.468   3.893   1.062  0.2588 -0.3288 -0.0144
14826TIP3    H165969   0.487   3.832   1.133 -1.5560 -1.4207 -0.4157
14826TIP3    H265970   0.389   3.939   1.091 -0.7301 -1.0682 -1.4659
14827TIP3   OH265971   3.927   0.897  14.982 -0.3660  0.2457 -0.3272
14827TIP3    H165972   3.923   0.946  14.899  1.2041  0.4237 -0.3288
14827TIP3    H265973   3.857   0.832  14.974 -1.8322  1.7933 -0.7556
14828TIP3   OH265974   5.145   0.034   5.984 -0.5119 -0.0323  0.1513
14828TIP3    H165975   5.069  -0.000   6.030  0.2575 -0.8976  0.8263
14828TIP3    H265976   5.220  -0.003   6.031  0.3228  0.7651 -0.5194
14829TIP3   OH265977   6.664   4.626  14.103 -0.2777 -0.2631  0.0114
14829TIP3    H165978   6.631   4.709  14.138  1.0180 -0.2315  1.2391
14829TIP3    H265979   6.585   4.579  14.076 -1.0249  1.4548 -0.9891
14830TIP3   OH265980   3.722   1.709   4.421  0.1519  0.2076  0.3864
14830TIP3    H165981   3.672   1.769   4.475  0.6533  0.3445  0.7126
14830TIP3    H265982   3.791   1.764   4.382  0.7183 -0.1725  0.8235
14831TIP3   OH265983   4.416   4.957  14.745  0.0879  0.2554 -0.2663
14831TIP3    H165984   4.502   4.944  14.786 -0.6419 -3.1583  0.4847
14831TIP3    H265985   4.360   4.988  14.816  0.0500 -0.4386  0.0148
14832TIP3   OH265986   4.842   4.846   5.211 -0.2418  0.3213 -0.2459
14832TIP3    H165987   4.845   4.933   5.172  1.2317  0.1772 -0.5020
14832TIP3    H265988   4.925   4.805   5.185 -0.4987 -0.8181  0.6548
14833TIP3   OH265989   4.261   1.782   5.446  0.3263 -0.1361 -0.3872
14833TIP3    H165990   4.325   1.714   5.467  0.6998  0.0973 -0.7568
14833TIP3    H265991   4.211   1.794   5.527  0.4504 -0.6389 -0.2340
14834TIP3   OH265992   2.229   0.592   4.141 -0.1736  0.3288  0.1055
14834TIP3    H165993   2.281   0.514   4.123  1.0047  1.0814  0.0976
14834TIP3    H265994   2.289   0.649   4.189 -0.3808  1.9747 -1.4743
14835TIP3   OH265995   3.548   2.064  14.523  0.4489 -0.1923  0.2593
14835TIP3    H165996   3.482   2.037  14.459  1.2943  0.0126 -0.7424
14835TIP3    H265997   3.632   2.045  14.480  1.0474  0.6441  1.0024
14836TIP3   OH265998   4.183   3.368  11.446 -0.0510 -0.6476  0.4363
14836TIP3    H165999   4.237   3.290  11.456  0.6747 -0.3334 -0.8788
14836TIP3    H266000   4.242   3.441  11.466  0.6535 -0.1760 -2.8412
14837TIP3   OH266001   2.263   5.661  13.469 -0.3955  0.1795 -0.4464
14837TIP3    H166002   2.357   5.676  13.483 -0.5188 -0.2898  1.0443
14837TIP3    H266003   2.241   5.588  13.527 -2.2381  2.0910  1.4649
14838TIP3   OH266004   5.143   3.937  12.983 -0.0735 -0.0520  0.3203
14838TIP3    H166005   5.210   3.956  12.918 -0.9889  1.0204 -0.3513
14838TIP3    H266006   5.127   4.021  13.026 -3.4474  0.6818 -1.9503
14839TIP3   OH266007   2.024   2.108  14.327  0.2051  0.1926  0.1948
14839TIP3    H166008   2.097   2.079  14.271  0.7115  2.1506 -0.2392
14839TIP3    H266009   2.026   2.203  14.321 -0.8920  0.3834  2.1312
14840TIP3   OH266010   3.524   6.661   0.317  0.3416 -0.0230  0.1661
14840TIP3    H166011   3.558   6.574   0.294  1.9052  0.7042 -0.3919
14840TIP3    H266012   3.496   6.699   0.234  2.1473  1.0029 -0.0279
14841TIP3   OH266013   6.223   2.145  14.652 -0.3614 -0.4176 -0.1727
14841TIP3    H166014   6.131   2.121  14.640 -0.7058  0.4266  0.6139
14841TIP3    H266015   6.259   2.075  14.707 -1.3080  0.6677  1.9452
14842TIP3   OH266016   4.764   2.316  13.203 -0.2598  0.0774 -0.3087
14842TIP3    H166017   4.729   2.384  13.261  0.5883 -0.4100  0.8197
14842TIP3    H266018   4.840   2.357  13.161 -0.3470  0.1491 -0.3961
14843TIP3   OH266019   5.421   2.124  14.973 -0.3814 -0.0814 -0.2289
14843TIP3    H166020   5.444   2.212  15.001  1.1913 -0.6106  0.2337
14843TIP3    H266021   5.399   2.077  15.053  0.4407 -0.5645 -0.2777
14844TIP3   OH266022   2.261   5.443  14.505  0.0568 -0.0355  0.1436
14844TIP3    H166023   2.300   5.372  14.556 -1.0255  0.1122  1.2329
14844TIP3    H266024   2.329   5.468  14.442  0.9653 -1.0837  0.6732
14845TIP3   OH266025   2.690   3.009   5.979  0.1541  0.1719  0.5187
14845TIP3    H166026   2.737   3.044   6.055 -0.8296  0.5203  0.9741
14845TIP3    H266027   2.599   3.003   6.008 -0.5317  1.7708 -1.1226
14846TIP3   OH266028   4.708   2.545  12.610  1.0137 -0.1718 -0.4498
14846TIP3    H166029   4.706   2.514  12.520  1.2577 -1.2318 -0.1010
14846TIP3    H266030   4.737   2.636  12.603  0.3550 -0.0198 -1.4880
14847TIP3   OH266031   0.684   4.128   3.195  0.4113  0.1554 -0.5306
14847TIP3    H166032   0.672   4.126   3.100 -0.4385  0.5768 -0.4351
14847TIP3    H266033   0.637   4.206   3.224  1.1469  0.3588  0.1765
14848TIP3   OH266034   5.285   3.740  15.090  0.3364 -0.8477  0.3015
14848TIP3    H166035   5.340   3.740  15.169  0.5986  0.6925  0.1588
14848TIP3    H266036   5.257   3.831  15.081 -1.2763 -1.3752 -0.3173
14849TIP3   OH266037   5.877   3.788  13.798 -0.2686  0.7965  0.0942
14849TIP3    H166038   5.784   3.781  13.778 -0.0344  1.0441 -1.1409
14849TIP3    H266039   5.901   3.701  13.830 -0.4855  0.0822 -1.5766
14850TIP3   OH266040   1.626   5.612  12.314  0.6432  0.0271 -0.1399
14850TIP3    H166041   1.621   5.550  12.242  0.1450 -0.1778  0.0719
14850TIP3    H266042   1.539   5.650  12.320  0.5285 -0.3508  0.7001
14851TIP3   OH266043   5.406   5.854   2.070  0.8112  0.1531 -0.4293
14851TIP3    H166044   5.366   5.930   2.113  3.0438  0.3870  1.4380
14851TIP3    H266045   5.372   5.778   2.117  0.9720  0.2175 -0.2072
14852TIP3   OH266046   0.016   6.504  15.660 -0.5453  0.2927  0.4732
14852TIP3    H166047   0.048   6.586  15.698 -0.2437  0.4850 -0.1724
14852TIP3    H266048   0.085   6.477  15.600 -1.5024  0.6384 -0.8304
14853TIP3   OH266049   5.821   5.034  16.558  0.6181  0.3412 -0.4276
14853TIP3    H166050   5.749   5.035  16.495 -0.5882 -0.6272  0.8588
14853TIP3    H266051   5.893   4.992  16.512  0.4214  1.3994 -1.7775
14854TIP3   OH266052   1.898   0.795  13.346 -0.0838  0.3435 -0.1320
14854TIP3    H166053   1.836   0.740  13.393 -1.0873  1.8282  0.3604
14854TIP3    H266054   1.860   0.804  13.258  0.4596 -0.3280 -0.4447
14855TIP3   OH266055   2.927   0.521   0.201  0.7699  0.3598 -0.3213
14855TIP3    H166056   2.915   0.532   0.107  1.5286  0.1157 -0.4457
14855TIP3    H266057   2.918   0.609   0.237 -0.8778  0.2904 -0.4527
14856TIP3   OH266058   1.269   1.884   2.371  0.3614  0.2273  0.3033
14856TIP3    H166059   1.182   1.870   2.334 -0.9771  1.9994  2.4915
14856TIP3    H266060   1.260   1.858   2.463  1.0339  3.6476  1.4970
14857TIP3   OH266061   4.455   0.085  11.824  0.2612 -0.0582 -0.1380
14857TIP3    H166062   4.412   0.041  11.750  0.9754 -1.8297  0.4364
14857TIP3    H266063   4.414   0.171  11.828 -2.8352 -1.4033  0.0258
14858TIP3   OH266064   6.543   5.007   2.959 -0.4235  0.0513  0.4463
14858TIP3    H166065   6.559   5.093   2.921  1.4688 -0.2515  0.4684
14858TIP3    H266066   6.466   5.019   3.015 -1.0441  1.3608 -0.6219
14859TIP3   OH266067   3.926   2.156  16.860 -0.2712 -0.1722  0.7439
14859TIP3    H166068   4.017   2.145  16.831 -0.9983 -0.9170 -1.5074
14859TIP3    H266069   3.919   2.250  16.879  1.3344 -0.3477  2.5303
14860TIP3   OH266070   6.481   6.394   1.587 -0.0216  0.4062  0.5530
14860TIP3    H166071   6.437   6.318   1.626  0.3680  0.7888  1.7955
14860TIP3    H266072   6.501   6.451   1.662  0.4770  1.3272 -0.2563
14861TIP3   OH266073   1.398   6.086  14.621 -0.7720  0.5457 -0.2040
14861TIP3    H166074   1.475   6.128  14.658 -1.2238  0.8925  0.3612
14861TIP3    H266075   1.363   6.150  14.560 -0.4260  0.2531 -0.7160
14862TIP3   OH266076   5.853   6.727  15.286  0.1203 -0.0546 -0.3540
14862TIP3    H166077   5.884   6.673  15.359  0.3021 -1.9244 -1.7506
14862TIP3    H266078   5.904   6.807  15.292  0.7114 -0.5041  1.0960
14863TIP3   OH266079   5.604   0.115   2.030  0.0515 -0.0678  0.3417
14863TIP3    H166080   5.537   0.054   2.062  0.3982 -1.0812 -0.7643
14863TIP3    H266081   5.664   0.124   2.103 -1.5366  1.2730  1.5365
14864TIP3   OH266082   1.578   6.415   6.783  0.2178 -0.2248 -0.1773
14864TIP3    H166083   1.613   6.504   6.780  0.7742 -0.2649 -5.6323
14864TIP3    H266084   1.655   6.359   6.793  0.2430 -0.1568  0.0193
14865TIP3   OH266085   4.654   5.356   4.258  0.0098  0.4017 -0.0112
14865TIP3    H166086   4.623   5.388   4.342  0.3867 -1.3046  0.8319
14865TIP3    H266087   4.676   5.264   4.274 -2.7424 -0.8817 -2.6612
14866TIP3   OH266088   0.275   0.366  15.574  0.0066  0.0027 -0.2913
14866TIP3    H166089   0.357   0.361  15.624 -1.0680  0.8574  1.6627
14866TIP3    H266090   0.240   0.277  15.579  0.9903 -0.4786 -1.5091
14867TIP3   OH266091   1.285   1.376   3.416 -0.0421 -0.3436  0.1145
14867TIP3    H166092   1.207   1.322   3.405 -0.2461 -0.2268  0.9152
14867TIP3    H266093   1.323   1.381   3.329 -2.0387  1.2695 -0.7524
14868TIP3   OH266094   2.939   2.921  14.922 -0.2706  0.5492 -0.1738
14868TIP3    H166095   3.030   2.894  14.936 -0.5998  0.8487  3.4723
14868TIP3    H266096   2.944   3.015  14.904  0.1149  0.7645  1.0061
14869TIP3   OH266097   0.228   4.714  15.904 -0.1368 -0.1202 -0.1287
14869TIP3    H166098   0.156   4.660  15.872 -0.8327  0.7705 -0.1231
14869TIP3    H266099   0.218   4.797  15.857  2.0492 -0.6029 -1.6115
14870TIP3   OH266100   1.032   5.377   1.637  0.0183  0.6397  0.1712
14870TIP3    H166101   1.056   5.451   1.694 -0.7518  1.6219 -0.7332
14870TIP3    H266102   0.954   5.339   1.678 -0.7547  1.5741 -0.3910
14871TIP3   OH266103   2.383   6.118  15.784  0.0246 -0.4905 -0.5708
14871TIP3    H166104   2.363   6.024  15.786  1.8493 -0.9076 -0.5480
14871TIP3    H266105   2.457   6.128  15.844 -0.6608  1.1236  0.0681
14872TIP3   OH266106   5.672   0.295  15.169 -0.1367 -0.3963 -0.4143
14872TIP3    H166107   5.639   0.271  15.256  1.2982 -1.8479 -0.2250
14872TIP3    H266108   5.681   0.390  15.173  2.6572 -0.5831  2.1616
14873TIP3   OH266109   2.890   5.196  15.992 -0.2046 -0.2060  0.4524
14873TIP3    H166110   2.957   5.235  16.048 -1.1382  0.1244  1.3592
14873TIP3    H266111   2.845   5.270  15.953  1.3246 -0.4130 -1.9014
14874TIP3   OH266112   6.505   6.722  15.287  0.5520  0.0994 -0.2312
14874TIP3    H166113   6.571   6.709  15.219  0.6376 -2.3989  0.2337
14874TIP3    H266114   6.460   6.638  15.293 -0.5764  0.7719  1.6559
14875TIP3   OH266115   4.430   3.441  14.912  0.2187  0.1880 -0.7628
14875TIP3    H166116   4.388   3.527  14.908  2.3019  1.2952 -0.2600
14875TIP3    H266117   4.462   3.426  14.822  0.3735  0.2293 -0.7155
14876TIP3   OH266118   1.167   6.550  14.877  0.4506 -0.0021 -0.4605
14876TIP3    H166119   1.215   6.501  14.811  2.9469  2.4451 -0.6547
14876TIP3    H266120   1.084   6.573  14.834  1.3311  0.1409 -2.1765
14877TIP3   OH266121   0.992   1.627  14.998 -0.1171 -0.1106  0.0886
14877TIP3    H166122   1.085   1.620  14.977 -0.4064 -0.1141 -1.2680
14877TIP3    H266123   0.955   1.543  14.971 -0.6261  0.1439 -0.0214
14878TIP3   OH266124   1.643   4.113   3.566 -0.2250  0.8683 -0.0625
14878TIP3    H166125   1.589   4.133   3.490 -0.6370  1.1877  0.3068
14878TIP3    H266126   1.696   4.192   3.579 -0.9094  1.2281  0.6085
14879TIP3   OH266127   4.117   5.780   5.926 -0.0062 -0.0751  0.6969
14879TIP3    H166128   4.066   5.849   5.883  0.4742 -0.4020 -0.4631
14879TIP3    H266129   4.165   5.825   5.995  0.1550  0.7261  0.0847
14880TIP3   OH266130   3.582   2.782   2.448 -0.1065 -0.3874 -0.1658
14880TIP3    H166131   3.592   2.771   2.543 -0.5374  1.5258  0.1255
14880TIP3    H266132   3.488   2.795   2.435 -0.0954 -0.9977 -0.9181
14881TIP3   OH266133   1.485   4.929  12.136 -0.2757 -0.2595  0.0808
14881TIP3    H166134   1.433   4.883  12.070 -0.4707  0.9198 -0.6130
14881TIP3    H266135   1.431   4.927  12.215 -1.5465  1.1940 -0.7065
14882TIP3   OH266136   6.805   2.449  13.185 -0.2507 -0.2795  0.3253
14882TIP3    H166137   6.887   2.443  13.136 -0.1343 -0.3912  0.5332
14882TIP3    H266138   6.802   2.368  13.237  1.3050  1.3473  3.1698
14883TIP3   OH266139   3.340   5.781   1.794  0.3321  0.0049 -0.0890
14883TIP3    H166140   3.263   5.741   1.835  0.1924  1.2994  0.9897
14883TIP3    H266141   3.321   5.776   1.700 -2.5375  2.8015  0.1322
14884TIP3   OH266142   0.009   5.324  15.159 -0.4166 -0.0740  0.3788
14884TIP3    H166143  -0.051   5.397  15.143  0.3298  0.4492 -0.0359
14884TIP3    H266144  -0.048   5.247  15.162 -1.2437  0.5395  1.0620
14885TIP3   OH266145   0.030   1.312   0.083 -0.2075  0.1134 -0.6253
14885TIP3    H166146   0.006   1.386   0.028  1.5204  0.2120 -1.2973
14885TIP3    H266147  -0.017   1.238   0.046 -0.3116  0.4846 -1.2441
14886TIP3   OH266148   4.722   6.800  14.157  0.3440 -0.1082  0.2859
14886TIP3    H166149   4.808   6.795  14.115  0.5265 -1.6975  0.7702
14886TIP3    H266150   4.666   6.745  14.101 -0.2225  0.4451  0.2996
14887TIP3   OH266151   1.301   3.736  16.052  0.0729 -0.4237 -0.5415
14887TIP3    H166152   1.384   3.751  16.098 -0.9860  2.3001  0.6924
14887TIP3    H266153   1.326   3.726  15.960  1.8398 -1.0303 -0.0355
14888TIP3   OH266154   5.147   4.132   5.726 -0.1606  0.3802  0.1797
14888TIP3    H166155   5.076   4.104   5.784  0.8642 -1.8107  0.4872
14888TIP3    H266156   5.103   4.177   5.655 -1.7147  0.5350  1.1872
14889TIP3   OH266157   3.160   5.308   7.009  0.0881 -0.6105  0.0921
14889TIP3    H166158   3.098   5.347   6.947 -1.2514 -0.3863  1.5235
14889TIP3    H266159   3.229   5.272   6.953 -0.0716  1.2641 -1.4311
14890TIP3   OH266160   2.919   0.494  17.065 -0.3420  0.0845 -0.3760
14890TIP3    H166161   2.904   0.427  16.999 -0.4856  0.9641 -1.2669
14890TIP3    H266162   2.977   0.557  17.023  0.6224  0.0168  0.7961
14891TIP3   OH266163   1.625   1.980   5.785  0.3365 -0.4768  0.2900
14891TIP3    H166164   1.622   2.024   5.700 -0.7728  0.7707  0.9369
14891TIP3    H266165   1.551   2.016   5.833 -2.9202 -5.4248 -0.2358
14892TIP3   OH266166   0.441   5.448   4.503 -0.7837 -0.6106 -0.1332
14892TIP3    H166167   0.361   5.420   4.548  0.0852  0.7480  2.5144
14892TIP3    H266168   0.468   5.526   4.551  1.2145 -0.0368 -2.0640
14893TIP3   OH266169   5.833   5.124  13.506  0.3845 -0.1282 -0.4379
14893TIP3    H166170   5.834   5.195  13.441 -0.0869 -0.8487 -1.2428
14893TIP3    H266171   5.821   5.170  13.590  0.0973  0.7503 -0.9414
14894TIP3   OH266172   0.651   4.959   4.604 -0.4354 -0.6335  0.0028
14894TIP3    H166173   0.674   5.044   4.567  0.9707 -1.2034 -0.4945
14894TIP3    H266174   0.563   4.971   4.638 -0.1269  1.1287  0.2765
14895TIP3   OH266175   3.001   6.655   0.677 -0.3150 -0.0318  0.4543
14895TIP3    H166176   3.039   6.570   0.658 -0.1943  0.3892 -1.4737
14895TIP3    H266177   3.010   6.666   0.771  3.1801 -0.5146  0.3043
14896TIP3   OH266178   1.290   2.437   2.258 -0.5425 -0.2677  0.0530
14896TIP3    H166179   1.231   2.392   2.318 -1.7451 -2.8013 -2.8094
14896TIP3    H266180   1.377   2.422   2.296 -1.1837 -2.4182  0.8117
14897TIP3   OH266181   4.947   4.697  13.458  0.3472  0.0149 -0.1428
14897TIP3    H166182   4.897   4.684  13.539  1.7204  0.8413  0.8870
14897TIP3    H266183   4.882   4.693  13.389 -0.9932  0.0635  1.0666
14898TIP3   OH266184   1.168   1.514   2.663 -0.4015 -0.5021 -0.5378
14898TIP3    H166185   1.218   1.486   2.740 -0.4366  0.4536 -0.1502
14898TIP3    H266186   1.079   1.485   2.680 -0.7547  1.0917  0.5625
14899TIP3   OH266187   5.965   5.416  17.081  0.1529  0.3869 -0.0498
14899TIP3    H166188   5.955   5.505  17.113  0.5064  0.6555 -0.6668
14899TIP3    H266189   5.951   5.422  16.986 -0.7924 -0.3750  0.0209
14900TIP3   OH266190   4.327   3.666  10.876  0.4756 -0.3123 -0.0915
14900TIP3    H166191   4.324   3.681  10.782 -1.1955 -0.7842 -0.1537
14900TIP3    H266192   4.390   3.730  10.909 -0.9462  1.8117 -1.2134
14901TIP3   OH266193   0.507   2.407   2.604  0.0827 -0.3699 -0.2934
14901TIP3    H166194   0.414   2.395   2.624 -0.0147  1.9098  0.9662
14901TIP3    H266195   0.509   2.476   2.539  0.8876 -1.0757 -1.0423
14902TIP3   OH266196   3.159   5.038  15.723 -0.2530 -0.1850  0.0111
14902TIP3    H166197   3.176   5.023  15.815 -1.3508 -1.3421  0.0463
14902TIP3    H266198   3.065   5.026  15.713 -0.2258  0.3806 -1.1837
14903TIP3   OH266199   3.654   0.952  11.437  0.0392  0.1665 -0.2364
14903TIP3    H166200   3.707   0.904  11.501  1.1884 -0.9966 -1.9555
14903TIP3    H266201   3.607   0.884  11.389 -0.4545  0.9708 -0.9271
14904TIP3   OH266202   2.421   5.985  13.226 -0.0939 -0.0684 -0.2308
14904TIP3    H166203   2.334   5.994  13.264  0.2561  0.7329  0.4086
14904TIP3    H266204   2.447   6.074  13.204 -0.0125 -0.4496 -1.7651
14905TIP3   OH266205   6.663   6.323  16.300  0.2421 -0.8168  0.3475
14905TIP3    H166206   6.611   6.392  16.259  1.3612  0.9212  1.6831
14905TIP3    H266207   6.660   6.250  16.239 -0.6661  0.5623 -1.3286
14906TIP3   OH266208   0.342   0.685  11.764 -0.3422  0.4079 -0.5209
14906TIP3    H166209   0.250   0.685  11.792 -0.2850  2.3275 -0.1606
14906TIP3    H266210   0.389   0.644  11.836 -0.7195  1.1641  0.1715
14907TIP3   OH266211   3.410   5.696  15.040 -0.1282  0.1648  0.5622
14907TIP3    H166212   3.473   5.701  15.112  1.8022  2.5770 -1.1409
14907TIP3    H266213   3.438   5.620  14.989  0.6910  0.5014  0.4926
14908TIP3   OH266214   2.180   6.083   0.551  0.2676  0.7324 -1.2725
14908TIP3    H166215   2.148   6.148   0.489 -2.5382  1.0402  0.3466
14908TIP3    H266216   2.159   5.999   0.511  1.3532  0.8295 -2.0998
14909TIP3   OH266217   5.539   4.923   3.475  0.0381  0.2655  0.2383
14909TIP3    H166218   5.498   4.872   3.545  0.8003  1.4312  1.5778
14909TIP3    H266219   5.520   5.014   3.497  0.1049  0.6623 -1.2105
14910TIP3   OH266220   5.467   0.941  14.877  0.7853 -0.4403  0.2017
14910TIP3    H166221   5.547   0.989  14.899  0.9812 -0.1316 -1.0863
14910TIP3    H266222   5.479   0.914  14.786 -1.4191  1.3967 -0.7299
14911TIP3   OH266223   1.729   0.701   3.979  0.1180  0.0268  0.6381
14911TIP3    H166224   1.662   0.651   4.026 -0.9073  0.8684  0.1187
14911TIP3    H266225   1.810   0.651   3.992 -0.2618 -0.1331  2.6978
14912TIP3   OH266226   4.432   0.785   4.133 -0.2712  0.1247  0.5667
14912TIP3    H166227   4.373   0.732   4.079  0.0406 -1.8418  2.0465
14912TIP3    H266228   4.501   0.724   4.159  1.2524  1.8239  0.6662
14913TIP3   OH266229   2.480   4.769  13.760 -0.4203 -0.1539  0.6650
14913TIP3    H166230   2.436   4.825  13.824  0.0286 -0.1523  0.9738
14913TIP3    H266231   2.506   4.829  13.690  2.2253  0.5053  2.0930
14914TIP3   OH266232   1.675   6.264   2.834  0.1265 -0.3931 -0.2149
14914TIP3    H166233   1.711   6.177   2.817  0.6229 -0.5045  1.3129
14914TIP3    H266234   1.582   6.256   2.809 -0.0053 -1.5764  0.5551
14915TIP3   OH266235   4.616   1.265   5.939 -0.5960 -0.0996  0.7356
14915TIP3    H166236   4.524   1.241   5.947 -0.4597 -0.9632 -0.1287
14915TIP3    H266237   4.640   1.240   5.850 -0.0134  1.8461  0.3071
14916TIP3   OH266238   3.113   0.832   3.662  0.5656 -0.3132 -0.6575
14916TIP3    H166239   3.173   0.847   3.588  0.3937 -1.2961 -1.0173
14916TIP3    H266240   3.038   0.888   3.643  1.5434  1.3240  0.0521
14917TIP3   OH266241   2.858   5.295   4.910 -0.2380 -0.4053  1.0272
14917TIP3    H166242   2.952   5.314   4.915 -0.5900  1.2555  2.0630
14917TIP3    H266243   2.854   5.200   4.899  1.5486 -0.5642  1.3450
14918TIP3   OH266244   3.075   2.144   5.628  0.4181  0.1649 -0.0606
14918TIP3    H166245   3.117   2.190   5.701 -0.7340  1.4551 -0.1504
14918TIP3    H266246   3.002   2.201   5.604  0.4024 -0.5454 -1.8223
14919TIP3   OH266247   0.518   2.474   2.972  0.2714  0.3525  0.6148
14919TIP3    H166248   0.593   2.422   3.002 -0.0469  0.2737  1.2807
14919TIP3    H266249   0.551   2.522   2.895  0.6282 -0.6611  0.1239
14920TIP3   OH266250   2.839   5.669  14.322  0.5804  0.1651  0.3381
14920TIP3    H166251   2.776   5.698  14.388 -0.1263 -0.0690 -0.2137
14920TIP3    H266252   2.903   5.618  14.371  0.3001  0.3483  0.9051
14921TIP3   OH266253   2.437   4.019  13.331  0.3275 -0.2403 -0.2660
14921TIP3    H166254   2.436   3.924  13.317 -2.2163 -0.5884  1.4715
14921TIP3    H266255   2.403   4.055  13.249 -2.6596 -1.2507  0.3843
14922TIP3   OH266256   0.183   1.442   1.106  0.4226 -0.3598  0.2915
14922TIP3    H166257   0.121   1.370   1.096 -1.7996  1.3085  1.0917
14922TIP3    H266258   0.238   1.416   1.180  0.7272 -1.9012 -0.4441
14923TIP3   OH266259   0.433   4.544  11.024 -0.0076  0.1774  0.3292
14923TIP3    H166260   0.497   4.614  11.010  1.3090 -1.0350  0.0265
14923TIP3    H266261   0.467   4.470  10.974 -2.0398 -0.3184 -0.4320
14924TIP3   OH266262   6.265   6.745   1.188 -0.1155  0.3264 -0.5400
14924TIP3    H166263   6.192   6.790   1.143 -1.4703 -1.2777 -0.0514
14924TIP3    H266264   6.223   6.699   1.260  1.4437 -0.5024 -0.1331
14925TIP3   OH266265   4.640   4.078  13.818 -0.3486 -0.0633  0.0211
14925TIP3    H166266   4.545   4.081  13.804 -0.1792 -0.7000 -1.4111
14925TIP3    H266267   4.661   3.985  13.823  0.0623  0.0861  1.5059
14926TIP3   OH266268   5.439   5.513  12.168 -0.0448 -0.5695 -0.0218
14926TIP3    H166269   5.433   5.570  12.092 -1.3728 -0.6811 -0.0214
14926TIP3    H266270   5.394   5.433  12.142 -1.5884 -0.1750  1.2434
14927TIP3   OH266271   2.734   2.821  15.857 -0.2034 -0.0884  0.2584
14927TIP3    H166272   2.799   2.786  15.918 -2.2727 -3.9206  0.5626
14927TIP3    H266273   2.679   2.878  15.910  1.0749  0.7800  0.6868
14928TIP3   OH266274   5.767   3.877  15.935  0.0180  0.2575  0.7136
14928TIP3    H166275   5.823   3.926  15.994 -0.0640  0.8948  0.2752
14928TIP3    H266276   5.818   3.799  15.911  0.8906  1.0232  0.0049
14929TIP3   OH266277   4.849   4.878   0.128  0.2590  0.2055 -0.0271
14929TIP3    H166278   4.794   4.864   0.051 -1.2551 -0.5153  1.1388
14929TIP3    H266279   4.789   4.906   0.197  1.5100  0.4261  1.0312
14930TIP3   OH266280   4.907   4.657   4.046 -0.1562 -0.4261  0.1175
14930TIP3    H166281   4.879   4.740   4.084  2.9941 -0.5999  3.3141
14930TIP3    H266282   4.831   4.599   4.057 -0.7573  0.6816  2.7136
14931TIP3   OH266283   3.105   2.709   3.643 -0.1028  0.3513 -0.4233
14931TIP3    H166284   3.098   2.751   3.557 -1.3257  1.9203  0.4104
14931TIP3    H266285   3.135   2.778   3.702  0.1168 -0.5430  0.5481
14932TIP3   OH266286   3.760   6.463  15.403  0.7293  0.4754  0.4996
14932TIP3    H166287   3.824   6.395  15.381 -1.3670 -2.3535  2.4360
14932TIP3    H266288   3.779   6.486  15.494  0.6536  1.6862  0.2340
14933TIP3   OH266289   5.770   1.146   5.981 -0.4271  0.5846  0.2351
14933TIP3    H166290   5.763   1.151   5.885 -1.6745  0.2852  0.2971
14933TIP3    H266291   5.761   1.053   6.000 -2.4932  0.8697  0.7930
14934TIP3   OH266292   2.942   5.489  15.930  0.0717  0.3905  0.2528
14934TIP3    H166293   2.974   5.509  15.842 -1.1395  0.4499 -0.1986
14934TIP3    H266294   2.854   5.455  15.916 -0.5330  1.3590  1.5072
14935TIP3   OH266295   6.384   4.616  14.077  0.5906 -0.3728 -0.2806
14935TIP3    H166296   6.314   4.551  14.068 -0.1190  0.4089 -0.5045
14935TIP3    H266297   6.412   4.632  13.987 -0.5134  0.9850 -0.4163
14936TIP3   OH266298   3.694   4.742   3.717  0.1468 -0.1210  0.6936
14936TIP3    H166299   3.625   4.802   3.747  0.0514 -0.7010  1.6574
14936TIP3    H266300   3.691   4.750   3.622  1.4224  2.8860  0.7744
14937TIP3   OH266301   3.564   6.375   2.450  0.0131  0.0488 -0.3304
14937TIP3    H166302   3.536   6.460   2.483  0.3349 -0.8088  2.3758
14937TIP3    H266303   3.510   6.312   2.498  0.9938 -1.3311 -0.9806
14938TIP3   OH266304   4.663   2.070  15.464  0.6978  0.2308  0.4692
14938TIP3    H166305   4.612   2.084  15.544  0.7142 -0.2574  0.5687
14938TIP3    H266306   4.638   2.142  15.407  0.6215  0.5386  0.8827
14939TIP3   OH266307   5.375   3.502  12.369 -1.0293 -0.2213  0.7194
14939TIP3    H166308   5.456   3.546  12.395 -1.0688 -0.0204  0.5074
14939TIP3    H266309   5.357   3.535  12.281 -1.7365  0.3001  1.0523
14940TIP3   OH266310   3.726   6.047  12.926 -0.1032  0.4844 -0.1674
14940TIP3    H166311   3.639   6.054  12.888 -0.1484 -0.4995 -0.2772
14940TIP3    H266312   3.740   6.130  12.971 -0.7299  1.0039 -0.9037
14941TIP3   OH266313   0.565   6.106  11.203 -0.2317 -0.0689 -0.3256
14941TIP3    H166314   0.548   6.017  11.234 -0.2366 -0.1226 -0.4810
14941TIP3    H266315   0.660   6.112  11.197 -0.2493 -0.2277 -0.7899
14942TIP3   OH266316   5.630   5.644  11.603 -0.4417  0.0122 -0.2094
14942TIP3    H166317   5.710   5.635  11.552 -0.3464 -0.2024 -0.0261
14942TIP3    H266318   5.655   5.697  11.679 -0.6288  0.4908 -0.4806
14943TIP3   OH266319   3.493   1.367  11.429  0.4378 -0.1003  0.4002
14943TIP3    H166320   3.507   1.299  11.495  0.1752 -2.3109 -1.6982
14943TIP3    H266321   3.400   1.389  11.436 -0.6798 -3.4483 -1.9093
14944TIP3   OH266322   0.232   0.720   5.426  0.1327  0.2339  0.4412
14944TIP3    H166323   0.153   0.670   5.447 -0.4833  0.8603 -0.3204
14944TIP3    H266324   0.199   0.801   5.388  1.1590 -0.1401 -1.3326
14945TIP3   OH266325   6.251   3.601  11.681 -0.0551 -0.3092  0.1001
14945TIP3    H166326   6.302   3.682  11.688 -0.0930 -0.2560 -0.2227
14945TIP3    H266327   6.233   3.592  11.587 -2.2618  0.6926  0.3487
14946TIP3   OH266328   0.275   6.332   3.099 -0.2740 -0.0483 -0.1541
14946TIP3    H166329   0.200   6.381   3.131  0.7584  1.6650 -0.2251
14946TIP3    H266330   0.283   6.358   3.007  0.4040 -0.2035 -0.1439
14947TIP3   OH266331   5.092   4.756   1.394 -0.0488 -0.1624 -0.9233
14947TIP3    H166332   5.132   4.714   1.318 -0.0145 -1.4475 -0.2222
14947TIP3    H266333   5.113   4.698   1.467 -0.8733  0.5653 -0.0865
14948TIP3   OH266334   5.792   2.362   3.209  0.5112 -0.1168  0.1152
14948TIP3    H166335   5.784   2.456   3.228 -0.3323  0.0004 -0.7649
14948TIP3    H266336   5.832   2.359   3.122 -2.0582 -0.4862 -1.1354
14949TIP3   OH266337   5.410   4.244  13.501  0.2719  0.4883  0.5168
14949TIP3    H166338   5.316   4.230  13.491  0.6519 -1.5893 -0.9451
14949TIP3    H266339   5.440   4.170  13.554  1.1261  0.9007  0.6263
14950TIP3   OH266340   6.586   0.907   1.176  0.0156 -0.2673  0.0234
14950TIP3    H166341   6.619   0.975   1.118 -1.1542  0.5398  0.2616
14950TIP3    H266342   6.631   0.827   1.148  0.7820  0.4385 -0.8151
14951TIP3   OH266343   4.785   6.027  15.039  0.1086  0.6580  0.7792
14951TIP3    H166344   4.691   6.036  15.052 -0.1878  0.3534 -0.9020
14951TIP3    H266345   4.823   6.044  15.126 -1.4439  1.2476  1.3876
14952TIP3   OH266346   4.207   3.814   4.789  0.2229  0.5689  0.3193
14952TIP3    H166347   4.285   3.812   4.733 -0.4619  1.5792 -0.7232
14952TIP3    H266348   4.172   3.725   4.784  1.9483 -0.2597  1.8021
14953TIP3   OH266349   5.231   2.105  15.272 -0.5845  0.0231  0.1831
14953TIP3    H166350   5.247   2.012  15.256 -2.7281  0.0562 -2.8647
14953TIP3    H266351   5.165   2.106  15.342 -0.5959 -0.7260  0.1921
14954TIP3   OH266352   4.931   0.141  14.037 -0.1931 -0.3235 -0.3372
14954TIP3    H166353   4.990   0.197  14.088  0.0389 -0.2589 -0.6744
14954TIP3    H266354   4.969   0.053  14.045 -1.1319 -0.6355  1.0588
14955TIP3   OH266355   1.204   5.990  15.443  0.1040 -0.5040 -0.4986
14955TIP3    H166356   1.175   6.054  15.377 -0.1517 -0.2958 -0.1873
14955TIP3    H266357   1.296   6.012  15.459  0.0928 -0.3871 -0.5944
14956TIP3   OH266358   5.872   4.985  15.130 -0.5274  0.6904  0.7431
14956TIP3    H166359   5.814   4.928  15.080  0.9165  0.3447 -0.6172
14956TIP3    H266360   5.925   5.030  15.064  2.0939 -0.4654  1.9178
14957TIP3   OH266361   2.844   0.145  10.801 -0.2275 -0.2152  0.3952
14957TIP3    H166362   2.760   0.099  10.805 -0.1303 -0.3730  0.6638
14957TIP3    H266363   2.822   0.234  10.775 -0.5529 -0.0645  1.1724
14958TIP3   OH266364   1.630   2.028  15.744  0.8254 -0.2623 -0.4064
14958TIP3    H166365   1.632   1.934  15.723  0.7003 -0.0681 -1.3174
14958TIP3    H266366   1.557   2.062  15.692 -0.6836 -0.0669  1.7073
14959TIP3   OH266367   0.248   6.283  15.006  0.5423  0.2517 -0.3887
14959TIP3    H166368   0.327   6.336  15.017  0.3583  0.8999 -1.9332
14959TIP3    H266369   0.279   6.201  14.969  0.6024  0.1214 -0.0469
14960TIP3   OH266370   1.810   4.385  15.500  0.5622 -0.0814  0.1456
14960TIP3    H166371   1.810   4.424  15.412  0.1111 -2.2542 -0.9024
14960TIP3    H266372   1.902   4.363  15.516  0.5995  0.0264  0.0828
14961TIP3   OH266373   3.572   0.180  14.273  0.0804 -0.0958  0.0777
14961TIP3    H166374   3.628   0.113  14.313 -0.6647 -1.4943 -1.1268
14961TIP3    H266375   3.529   0.223  14.347  0.2216 -1.2818  0.8729
14962TIP3   OH266376   5.194   1.824  11.266 -0.0351 -0.4415  0.3165
14962TIP3    H166377   5.156   1.830  11.179 -0.3003  1.5359  0.5251
14962TIP3    H266378   5.139   1.761  11.312 -0.7854 -0.3945 -0.4946
14963TIP3   OH266379   2.201   5.742  15.110  0.1197  0.3862 -0.1116
14963TIP3    H166380   2.162   5.810  15.164 -0.6634 -0.9560  1.0679
14963TIP3    H266381   2.151   5.745  15.028  0.4168  1.5419 -0.2535
14964TIP3   OH266382   1.057   3.705   4.766  0.2859 -0.2590  0.5304
14964TIP3    H166383   1.109   3.657   4.702  0.7976  0.7248  0.1925
14964TIP3    H266384   1.046   3.644   4.838  1.5861 -0.6269  0.4431
14965TIP3   OH266385   5.563   5.830   4.575  0.3387 -0.4863  0.4821
14965TIP3    H166386   5.511   5.884   4.635 -1.8157 -1.8880 -0.0028
14965TIP3    H266387   5.573   5.885   4.497  0.0494  0.0199  0.7966
14966TIP3   OH266388   0.772   0.002   0.790 -0.0754 -0.1258  0.1789
14966TIP3    H166389   0.765  -0.086   0.752 -0.7634 -0.5157  1.1830
14966TIP3    H266390   0.810  -0.012   0.877 -0.2425  0.5642  0.3712
14967TIP3   OH266391   6.195   1.388   5.032  0.3766  0.8068  0.2051
14967TIP3    H166392   6.172   1.308   4.985  0.8837  0.5724  0.3549
14967TIP3    H266393   6.255   1.434   4.973  0.9346  0.5602  0.5754
14968TIP3   OH266394   2.274   5.165   3.067 -0.0573 -0.2956  0.3686
14968TIP3    H166395   2.181   5.183   3.055 -0.0924 -0.3687  0.5390
14968TIP3    H266396   2.279   5.107   3.143  0.1016 -0.5500  0.1710
14969TIP3   OH266397   0.412   1.440   1.980  0.5278 -0.2009  0.6326
14969TIP3    H166398   0.319   1.462   1.981  0.7287  0.7240  2.3829
14969TIP3    H266399   0.449   1.495   1.912 -0.0170  0.3344  0.7573
14970TIP3   OH266400   1.465   0.662  14.139  0.3220  0.0112 -0.7105
14970TIP3    H166401   1.399   0.719  14.176 -0.6869  0.0746 -2.5221
14970TIP3    H266402   1.436   0.573  14.161  0.5174  0.0820 -0.1349
14971TIP3   OH266403   5.423   6.297  16.891 -0.3245  0.5234  0.4136
14971TIP3    H166404   5.403   6.305  16.984 -0.6515  1.4300  0.2803
14971TIP3    H266405   5.518   6.298  16.887 -0.2108 -2.1591  0.9291
14972TIP3   OH266406   6.552   0.714  12.107  0.2515 -0.2643 -0.1486
14972TIP3    H166407   6.624   0.660  12.074  0.6724 -0.5665  1.1662
14972TIP3    H266408   6.480   0.699  12.047  1.0034 -0.6891 -0.9631
14973TIP3   OH266409   4.797   4.209  11.900 -0.0386 -0.2209  0.0694
14973TIP3    H166410   4.840   4.280  11.852 -0.5187  0.1769  0.2140
14973TIP3    H266411   4.825   4.222  11.991  0.0445 -0.3518  0.0632
14974TIP3   OH266412   1.616   4.336  17.070  0.1137 -0.4391  0.0919
14974TIP3    H166413   1.566   4.254  17.080  2.2432 -1.7469  0.6246
14974TIP3    H266414   1.605   4.360  16.978 -3.1990  0.5577  0.6066
14975TIP3   OH266415   1.485   0.380   0.950 -0.4641 -0.1856 -0.0185
14975TIP3    H166416   1.419   0.446   0.927  0.5180  0.6375 -0.5681
14975TIP3    H266417   1.501   0.394   1.043 -0.8315 -0.1755  0.0452
14976TIP3   OH266418   5.420   4.190  11.107 -0.6901  0.2552 -0.1376
14976TIP3    H166419   5.446   4.146  11.188 -1.7883 -0.1438  0.0224
14976TIP3    H266420   5.477   4.152  11.040 -0.0130  0.3327  0.3833
14977TIP3   OH266421   5.346   6.395   3.793  0.5013 -0.1900  0.3012
14977TIP3    H166422   5.251   6.393   3.781  0.6863  1.9375 -2.5023
14977TIP3    H266423   5.370   6.304   3.808 -1.8360 -0.9658 -0.2509
14978TIP3   OH266424   4.049   5.429   2.831 -0.0629 -0.0493 -0.7758
14978TIP3    H166425   4.079   5.358   2.887  2.4095 -0.4224 -2.4178
14978TIP3    H266426   3.998   5.386   2.763  2.9289 -0.6761 -2.8182
14979TIP3   OH266427   1.061   2.349  12.168  0.9672 -0.5832 -0.2406
14979TIP3    H166428   1.010   2.277  12.206  0.2196  0.6396  1.1748
14979TIP3    H266429   0.995   2.413  12.140  1.6403 -0.1695 -0.9284
14980TIP3   OH266430   4.393   6.265  12.079 -0.0592  0.1318 -0.1617
14980TIP3    H166431   4.457   6.266  12.007 -2.1366  1.3930 -2.1381
14980TIP3    H266432   4.390   6.356  12.109 -0.2383 -0.1129  0.5695
14981TIP3   OH266433   4.622   3.713  14.204  0.1429 -0.0735 -0.4032
14981TIP3    H166434   4.608   3.794  14.156 -2.5755 -0.7772 -1.0087
14981TIP3    H266435   4.597   3.734  14.294  0.4344  0.0111 -0.3408
14982TIP3   OH266436   1.337   5.973  15.852 -0.3187  0.3304 -0.3429
14982TIP3    H166437   1.328   5.900  15.913 -2.2145  0.1068 -0.8191
14982TIP3    H266438   1.426   6.006  15.867  0.0304 -1.0732  0.9792
14983TIP3   OH266439   2.899   2.121   5.201 -0.3407  0.4368 -0.2883
14983TIP3    H166440   2.809   2.109   5.230  0.1163 -0.7069  0.7656
14983TIP3    H266441   2.893   2.176   5.123 -1.9947 -0.1501 -0.6037
14984TIP3   OH266442   1.173   2.949   5.246 -0.2063  0.5577 -0.0570
14984TIP3    H166443   1.144   2.932   5.156  2.5655  2.4246 -1.4427
14984TIP3    H266444   1.179   2.862   5.286 -1.4628 -0.3232 -1.6494
14985TIP3   OH266445   2.106   5.603  12.710 -0.0789 -0.2577  0.8687
14985TIP3    H166446   2.026   5.612  12.763  0.1176  0.3114  1.0702
14985TIP3    H266447   2.162   5.675  12.738  0.0120  0.0798 -0.1452
14986TIP3   OH266448   1.646   0.139  13.974 -0.2030  0.0854  0.2956
14986TIP3    H166449   1.672   0.205  13.910  0.2527 -0.9622 -0.6277
14986TIP3    H266450   1.727   0.112  14.015 -0.2681 -0.5222  0.0403
14987TIP3   OH266451   4.070   4.799  13.853  0.0175  0.5513 -0.0692
14987TIP3    H166452   4.059   4.724  13.911  0.6465  0.5077 -0.0064
14987TIP3    H266453   4.081   4.762  13.766 -0.8602  0.6158 -0.2202
14988TIP3   OH266454   4.411   1.520   1.714 -0.2772  0.5343  0.1501
14988TIP3    H166455   4.500   1.498   1.741 -0.2887 -0.8670 -0.8674
14988TIP3    H266456   4.362   1.525   1.796  0.5568  0.5402  0.6668
14989TIP3   OH266457   6.724   0.775   0.158 -0.2035 -0.0351 -0.0135
14989TIP3    H166458   6.633   0.802   0.170 -0.7711 -1.6951 -0.2933
14989TIP3    H266459   6.761   0.778   0.246 -1.2533 -1.6923  0.5333
14990TIP3   OH266460   4.779   5.726  11.514  0.3136  0.0039  0.0542
14990TIP3    H166461   4.733   5.700  11.434 -0.0330 -0.4032  0.3769
14990TIP3    H266462   4.719   5.785  11.559  0.7104  0.6137 -0.2204
14991TIP3   OH266463   6.247   5.085  15.138 -0.1362 -0.6913  0.2668
14991TIP3    H166464   6.224   5.019  15.203 -2.9540 -1.7753 -1.6658
14991TIP3    H266465   6.180   5.078  15.070  1.6456  1.5592 -1.9541
14992TIP3   OH266466   5.431   1.238   5.138  0.0179 -0.3486  0.4083
14992TIP3    H166467   5.437   1.329   5.168  2.0903 -0.4541  0.4318
14992TIP3    H266468   5.398   1.190   5.214  1.3557  0.0136  1.2479
14993TIP3   OH266469   2.257   4.708  15.804  0.0307 -0.4275  0.4894
14993TIP3    H166470   2.275   4.640  15.739 -0.1075  0.3412 -0.3704
14993TIP3    H266471   2.162   4.707  15.814 -0.1203  0.6335 -0.6488
14994TIP3   OH266472   2.154   1.847   5.133 -0.4182 -0.5681  0.2978
14994TIP3    H166473   2.111   1.832   5.218 -0.0549  0.0149  0.5933
14994TIP3    H266474   2.084   1.836   5.069 -1.8765  3.3992  0.9154
14995TIP3   OH266475   6.222   2.831   2.634  0.2050 -0.3467 -0.4303
14995TIP3    H166476   6.288   2.858   2.698 -1.4616  0.9721  0.8330
14995TIP3    H266477   6.247   2.876   2.553  0.1713  1.1669  0.3688
14996TIP3   OH266478   5.526   6.009  15.945 -0.4314 -0.3600 -0.0734
14996TIP3    H166479   5.493   6.021  16.034  0.3545 -1.1939  0.3434
14996TIP3    H266480   5.542   5.915  15.938  0.6830 -0.1410 -0.6662
14997TIP3   OH266481   6.817   3.443   5.654 -0.3003  0.8134  0.6116
14997TIP3    H166482   6.786   3.523   5.611  0.7681  1.0859  0.3308
14997TIP3    H266483   6.796   3.456   5.746  1.5046  2.2563  0.8725
14998TIP3   OH266484   3.279   0.149  13.740  0.3213 -0.3192  0.2945
14998TIP3    H166485   3.186   0.127  13.749  0.1180  0.1463 -0.5412
14998TIP3    H266486   3.322   0.065  13.724  0.0316 -0.5213  0.5639
14999TIP3   OH266487   4.695   4.303  15.012  0.5684 -0.1016  0.1733
14999TIP3    H166488   4.768   4.297  15.074 -1.0338 -0.1431  2.1740
14999TIP3    H266489   4.656   4.216  15.013 -0.6859  0.4414  0.7008
15000TIP3   OH266490   5.628   4.529   3.943  0.8156 -0.7614 -0.1045
15000TIP3    H166491   5.611   4.598   4.007  1.8366  0.1656 -0.7825
15000TIP3    H266492   5.717   4.499   3.963 -0.1108 -2.9103  1.0770
15001TIP3   OH266493   3.216   2.726  13.483  0.6647  0.3711  0.0523
15001TIP3    H166494   3.251   2.815  13.492  0.0859  0.4993  1.1586
15001TIP3    H266495   3.279   2.681  13.426  1.0606  1.4270 -0.3620
15002TIP3   OH266496   6.455   5.216   3.416  0.1304 -0.1269 -0.0032
15002TIP3    H166497   6.479   5.189   3.505  0.8175  0.8992  0.1525
15002TIP3    H266498   6.362   5.238   3.422  0.4827  1.2515  0.8316
15003TIP3   OH266499   5.152   5.004  16.924  0.4670 -0.0045  0.0872
15003TIP3    H166500   5.231   5.055  16.910  0.8295 -0.8510 -1.1910
15003TIP3    H266501   5.090   5.065  16.963  0.8943  1.4211 -1.3478
15004TIP3   OH266502   5.278   3.891   4.266  0.8001  0.2866  0.1360
15004TIP3    H166503   5.347   3.826   4.271  0.5797  0.0865  0.6336
15004TIP3    H266504   5.318   3.965   4.221  1.0769 -0.1566 -0.3634
15005TIP3   OH266505   2.416   1.138  11.996 -0.0004 -0.3337 -0.5281
15005TIP3    H166506   2.340   1.171  11.947  0.7870  1.5952 -0.5442
15005TIP3    H266507   2.384   1.127  12.085 -0.8093 -1.5145 -0.9374
15006TIP3   OH266508   2.087   4.528   3.163 -0.7670 -0.6818 -0.0929
15006TIP3    H166509   2.068   4.622   3.167 -0.3566 -0.6288  1.4507
15006TIP3    H266510   2.174   4.520   3.204 -1.5300 -1.8943  1.4120
15007TIP3   OH266511   4.142   1.573  13.323 -0.0565  0.4487 -0.4414
15007TIP3    H166512   4.157   1.534  13.236 -1.6158 -1.5266  0.0950
15007TIP3    H266513   4.208   1.533  13.379 -1.4222 -1.2547  0.0301
15008TIP3   OH266514   3.995   3.454  12.167  0.0651 -0.0932 -0.4787
15008TIP3    H166515   3.981   3.509  12.091 -0.9418  0.1264 -0.1522
15008TIP3    H266516   4.087   3.467  12.190  0.3176  0.0077 -1.5086
15009TIP3   OH266517   6.733   0.199  11.697  0.2549  1.0189 -0.6305
15009TIP3    H166518   6.638   0.209  11.685  0.3345  2.5976 -0.2592
15009TIP3    H266519   6.768   0.286  11.677  1.3399  1.1943  1.6834
15010TIP3   OH266520   1.605   0.376  16.496  0.0829  0.2207 -0.6626
15010TIP3    H166521   1.558   0.295  16.479 -2.1308  1.2294  0.2026
15010TIP3    H266522   1.566   0.439  16.435  1.3628  0.7718 -0.9357
15011TIP3   OH266523   5.701   5.944  15.158 -0.3852 -0.9079  0.6016
15011TIP3    H166524   5.708   5.967  15.251  1.7482  0.4352  0.1678
15011TIP3    H266525   5.747   5.861  15.150  0.7085 -0.3205  0.5538
15012TIP3   OH266526   1.589   3.763  16.088 -0.2049  0.8442 -0.6138
15012TIP3    H166527   1.575   3.671  16.110 -1.6266  0.5693 -2.4269
15012TIP3    H266528   1.620   3.803  16.170 -4.1204 -0.2631  1.6843
15013TIP3   OH266529   4.723   0.512   1.094 -0.4010 -1.3630 -0.2376
15013TIP3    H166530   4.663   0.439   1.106  0.5795 -2.1036  0.3606
15013TIP3    H266531   4.743   0.542   1.182  0.6659 -1.6151 -0.3749
15014TIP3   OH266532   4.748   3.998  11.575 -0.3568 -0.0323  0.2495
15014TIP3    H166533   4.811   4.058  11.534 -1.6330  1.8670  0.9396
15014TIP3    H266534   4.731   3.932  11.508 -0.4762  1.5438 -1.3524
15015TIP3   OH266535   4.383   1.712  10.633 -0.6094  0.0370  0.5976
15015TIP3    H166536   4.420   1.624  10.638 -0.3187  0.1501  0.5039
15015TIP3    H266537   4.438   1.765  10.691 -0.6426  0.2014  0.4824
15016TIP3   OH266538   0.871   5.625  15.123  0.2672  0.2526  0.5541
15016TIP3    H166539   0.913   5.663  15.200  1.6985  1.6608 -0.8436
15016TIP3    H266540   0.941   5.615  15.059 -0.8113 -1.2106 -0.4759
15017TIP3   OH266541   0.567   6.479   1.207 -0.0240 -0.6933  0.0045
15017TIP3    H166542   0.624   6.537   1.156 -3.5795  2.3185 -0.9116
15017TIP3    H266543   0.479   6.500   1.178 -1.8399 -3.6155  2.7926
15018TIP3   OH266544   3.158   1.339  16.863  0.0123 -0.3403 -0.1286
15018TIP3    H166545   3.190   1.290  16.938  0.0307 -0.6734 -0.3507
15018TIP3    H266546   3.064   1.321  16.861 -0.1049  0.2095  0.2094
15019TIP3   OH266547   2.805   6.822   1.921 -0.2189  0.6878 -0.0060
15019TIP3    H166548   2.796   6.883   1.848 -1.5105  0.4399 -0.0730
15019TIP3    H266549   2.843   6.743   1.882 -0.0865  0.8647 -0.2360
15020TIP3   OH266550   0.958   2.959   5.840 -0.1658  0.1831 -0.3205
15020TIP3    H166551   1.007   2.881   5.813 -0.5614  0.1310 -0.9156
15020TIP3    H266552   1.002   2.988   5.920  0.2424 -0.4098 -0.3175
15021TIP3   OH266553   2.155   0.766  13.313  0.3801  0.3022 -0.2923
15021TIP3    H166554   2.159   0.673  13.293  1.3248  0.2929 -0.0859
15021TIP3    H266555   2.061   0.785  13.319  0.1812 -0.6465 -0.2517
15022TIP3   OH266556   2.198   3.815   4.387  0.1313 -0.5008  0.3662
15022TIP3    H166557   2.228   3.759   4.316  1.0841  0.8646 -0.3611
15022TIP3    H266558   2.212   3.763   4.467  0.5135 -1.4679 -0.3147
15023TIP3   OH266559   2.314   4.248   2.681 -0.0936 -0.6824 -0.0221
15023TIP3    H166560   2.317   4.286   2.594  0.5093 -1.7496 -0.4804
15023TIP3    H266561   2.322   4.154   2.667  0.2230 -0.8582  1.1985
15024TIP3   OH266562   5.702   1.978   3.804 -0.4524 -0.5885 -0.0069
15024TIP3    H166563   5.749   2.057   3.779  0.8084 -1.2517  0.1610
15024TIP3    H266564   5.629   1.972   3.742  0.9064 -0.6453 -1.6745
15025TIP3   OH266565   6.477   0.214   3.495 -0.6870 -0.1953  0.2604
15025TIP3    H166566   6.469   0.231   3.401  0.4286  0.8068  0.3247
15025TIP3    H266567   6.406   0.152   3.514 -2.2009  1.0874 -0.8551
15026TIP3   OH266568   4.667   5.458   6.097  0.2643  0.2054 -0.6122
15026TIP3    H166569   4.760   5.476   6.081  0.3958  1.0399  0.9043
15026TIP3    H266570   4.624   5.543   6.082 -0.0285  0.2067  0.1944
15027TIP3   OH266571   0.407   2.520  16.171 -0.0174  0.4051 -0.0236
15027TIP3    H166572   0.498   2.521  16.201  0.5851 -0.8823 -1.6678
15027TIP3    H266573   0.368   2.599  16.210  1.1861 -0.1288  2.4491
15028TIP3   OH266574   3.217   6.444   0.600  0.1579 -0.2014  0.3282
15028TIP3    H166575   3.245   6.519   0.652 -0.8270  0.9203 -0.6937
15028TIP3    H266576   3.180   6.483   0.520 -3.5293 -1.5563  1.1996
15029TIP3   OH266577   2.769   6.447   6.303  0.0261  0.0555 -0.4645
15029TIP3    H166578   2.822   6.396   6.365  1.2489  0.5364 -1.0949
15029TIP3    H266579   2.734   6.381   6.242  0.7728 -0.1432 -0.6818
15030TIP3   OH266580   0.486   2.645  12.874 -0.5139 -0.2932  0.4040
15030TIP3    H166581   0.572   2.670  12.838 -1.1331  1.7586  0.2276
15030TIP3    H266582   0.502   2.561  12.917  1.2451 -0.7012 -0.8985
15031TIP3   OH266583   2.332   5.698  10.364 -0.1190 -0.0070 -0.6474
15031TIP3    H166584   2.334   5.629  10.430  1.0131  1.6313  1.1327
15031TIP3    H266585   2.254   5.679  10.312 -2.2208 -0.3186  2.3523
15032TIP3   OH266586   4.120   3.521   2.903  0.1901  0.4630 -0.2356
15032TIP3    H166587   4.054   3.451   2.904  0.0638  0.5574  1.4185
15032TIP3    H266588   4.191   3.487   2.957  2.0721 -0.0988 -2.8755
15033TIP3   OH266589   0.249   0.572  14.611 -0.0655  0.3211 -0.0734
15033TIP3    H166590   0.302   0.649  14.595  0.2859  0.3799  1.2250
15033TIP3    H266591   0.165   0.606  14.642 -0.8880  0.2289 -2.0601
15034TIP3   OH266592   0.384   2.840  15.385 -0.0383  0.4992  0.1583
15034TIP3    H166593   0.391   2.812  15.293 -0.7708  1.2976 -0.1431
15034TIP3    H266594   0.438   2.919  15.390 -1.3131  1.4109  0.0042
15035TIP3   OH266595   1.514   6.310  16.019  0.0257 -0.3183 -0.1484
15035TIP3    H166596   1.420   6.298  16.035  0.0656 -2.8828 -1.2695
15035TIP3    H266597   1.550   6.221  16.025  2.5957  0.7348  1.3088
15036TIP3   OH266598   5.314   4.120  11.499 -0.0015 -0.6028 -0.3206
15036TIP3    H166599   5.317   4.197  11.441  0.9365 -1.2842 -1.2176
15036TIP3    H266600   5.397   4.121  11.545 -0.8701  0.1054  1.2948
15037TIP3   OH266601   2.084   1.076   2.893  0.3538 -0.7247  0.4997
15037TIP3    H166602   2.132   1.010   2.844 -0.3929 -0.7898 -0.1588
15037TIP3    H266603   2.004   1.091   2.842 -0.9050 -1.4717  2.1690
15038TIP3   OH266604   3.217   2.078  12.589 -0.4037  0.1286 -0.0971
15038TIP3    H166605   3.185   2.026  12.664  0.0769  0.2022  0.1626
15038TIP3    H266606   3.312   2.083  12.602 -0.4298  0.9895 -0.1739
15039TIP3   OH266607   2.718   0.031  15.734  0.9263  0.2890  0.3607
15039TIP3    H166608   2.687  -0.047  15.780  0.9883 -0.7465 -1.2885
15039TIP3    H266609   2.638   0.076  15.707  0.8860  0.3410  0.5665
15040TIP3   OH266610   1.433   6.689  13.392  0.2381 -0.1444  0.1885
15040TIP3    H166611   1.378   6.614  13.412  0.3919 -0.0094  1.1492
15040TIP3    H266612   1.521   6.663  13.419  0.6259 -0.2706 -1.1219
15041TIP3   OH266613   4.247   1.111   1.780  0.1780 -0.0969 -0.6482
15041TIP3    H166614   4.198   1.186   1.747  1.7215  0.5186 -1.6660
15041TIP3    H266615   4.227   1.109   1.874 -0.6791  0.9529 -0.7821
15042TIP3   OH266616   2.909   5.547  11.857 -0.2239  0.6613  0.1546
15042TIP3    H166617   2.936   5.638  11.868  0.0434  0.6313 -0.2087
15042TIP3    H266618   2.919   5.530  11.763 -0.7911  0.4179  0.1336
15043TIP3   OH266619   5.965   1.763  16.173 -0.6451 -0.2787  1.0307
15043TIP3    H166620   5.954   1.718  16.089  0.2603  2.6154 -0.7691
15043TIP3    H266621   5.880   1.755  16.216 -1.4709 -0.9207 -0.6410
15044TIP3   OH266622   6.377   5.994  13.251 -0.0625 -0.3777 -0.3659
15044TIP3    H166623   6.397   5.973  13.160 -1.7235 -1.7975 -0.4560
15044TIP3    H266624   6.282   6.002  13.254  0.0080  0.3869  1.1226
15045TIP3   OH266625   2.817   4.342   4.508 -0.3615  0.3753 -0.2840
15045TIP3    H166626   2.906   4.316   4.529 -0.2344  0.6089 -0.5361
15045TIP3    H266627   2.822   4.434   4.486 -0.9528  0.8480  1.4024
15046TIP3   OH266628   1.403   1.988   0.078  0.4274  0.1088 -0.1536
15046TIP3    H166629   1.376   1.921   0.141  1.5610  0.5376  0.8188
15046TIP3    H266630   1.366   2.069   0.113  2.1256  0.5611  0.7105
15047TIP3   OH266631   0.554   4.631   0.085 -0.5221  0.6442  0.6258
15047TIP3    H166632   0.494   4.622   0.011  0.1822 -1.0741  0.2134
15047TIP3    H266633   0.641   4.621   0.046 -0.0630  1.2124  1.4819
15048TIP3   OH266634   0.540   1.696  13.410  0.8731 -0.2041  0.0895
15048TIP3    H166635   0.567   1.663  13.496  1.4353 -1.7579 -0.6423
15048TIP3    H266636   0.623   1.716  13.366  0.5758  0.9412  0.0065
15049TIP3   OH266637   5.189   3.649  12.690 -0.4702 -0.1338  0.1007
15049TIP3    H166638   5.151   3.689  12.769  4.1196  2.4682  1.3646
15049TIP3    H266639   5.187   3.555  12.707 -0.8026  0.2755  2.7231
15050TIP3   OH266640   2.363   1.412  12.320 -0.1902  0.4936  0.2568
15050TIP3    H166641   2.365   1.377  12.409 -0.2180 -0.9045 -0.2743
15050TIP3    H266642   2.343   1.337  12.265  0.4539  1.2206 -1.0032
15051TIP3   OH266643   3.917   4.959   0.068  0.3247  0.3038  0.6464
15051TIP3    H166644   3.839   4.915   0.034 -0.1867  0.1649  1.9379
15051TIP3    H266645   3.882   5.026   0.127  1.1894 -0.1847  1.7447
15052TIP3   OH266646   1.544   5.674  11.581 -0.1018 -0.3464  0.3560
15052TIP3    H166647   1.540   5.682  11.676  2.0751  1.3895  0.4026
15052TIP3    H266648   1.520   5.584  11.563  0.7187 -1.1070  2.6889
15053TIP3   OH266649   0.663   1.509   4.096 -0.2519 -0.0421  0.6412
15053TIP3    H166650   0.668   1.578   4.163 -1.8392 -0.3847  1.1643
15053TIP3    H266651   0.735   1.451   4.117  1.2466  1.5235  0.0693
15054TIP3   OH266652   6.639   4.571   4.605  0.2835  0.2930  0.1351
15054TIP3    H166653   6.667   4.613   4.524  0.1813 -0.5088 -0.3257
15054TIP3    H266654   6.544   4.583   4.606  0.4470  1.9301  1.0864
15055TIP3   OH266655   0.378   4.601  17.015  0.4417 -0.7421 -0.1918
15055TIP3    H166656   0.365   4.551  16.935 -0.1201 -1.7176  0.4837
15055TIP3    H266657   0.304   4.577  17.071  2.1353 -2.1247  1.6091
15056TIP3   OH266658   6.026   0.943  11.596  0.0888  0.0094 -0.1779
15056TIP3    H166659   6.104   0.987  11.562 -0.3932  0.5505 -0.6019
15056TIP3    H266660   5.967   0.938  11.521  0.2257 -1.5997 -0.2073
15057TIP3   OH266661   2.072   3.419   6.680 -0.2437  0.1309  0.1837
15057TIP3    H166662   2.015   3.361   6.630 -0.1864 -0.5163  0.8536
15057TIP3    H266663   2.034   3.421   6.767 -1.6815  3.0688 -0.3986
15058TIP3   OH266664   4.218   0.495   1.461  1.0154  0.1063  0.0854
15058TIP3    H166665   4.274   0.543   1.401 -0.3070  2.1684  0.3719
15058TIP3    H266666   4.130   0.526   1.441  0.3936 -0.1638  2.1510
15059TIP3   OH266667   0.594   3.602  16.941 -0.7307  0.1623 -0.0397
15059TIP3    H166668   0.642   3.683  16.923 -3.5218  1.9729  0.0743
15059TIP3    H266669   0.563   3.573  16.856  0.7128 -1.1804 -0.1560
15060TIP3   OH266670   1.491   5.253  11.023 -0.8055  0.0630  0.3660
15060TIP3    H166671   1.540   5.228  10.944 -1.4718 -0.4928  0.1222
15060TIP3    H266672   1.544   5.323  11.062 -0.9417  1.0194 -1.0844
15061TIP3   OH266673   5.234   1.211  16.958 -0.4660 -0.3773 -0.3220
15061TIP3    H166674   5.268   1.161  17.032  0.6591  2.1235  0.9809
15061TIP3    H266675   5.139   1.199  16.962 -0.4247 -0.3792  1.5004
15062TIP3   OH266676   6.503   2.674   0.466  0.0503  0.4203  0.0673
15062TIP3    H166677   6.453   2.755   0.449 -1.7703 -0.7281 -0.3385
15062TIP3    H266678   6.504   2.667   0.561 -1.2901  0.0703  0.0744
15063TIP3   OH266679   6.670   4.965   3.443 -0.3726  0.1118 -0.6984
15063TIP3    H166680   6.583   4.935   3.469 -0.7602  0.1496 -1.8552
15063TIP3    H266681   6.723   4.885   3.439 -0.0153  0.2214  1.1253
15064TIP3   OH266682   0.600   2.010  14.272  0.0201  0.3619  0.1291
15064TIP3    H166683   0.609   1.933  14.216  2.4046  1.8359 -1.7130
15064TIP3    H266684   0.513   2.001  14.311 -1.1479 -1.5931 -2.5863
15065TIP3   OH266685   5.115   1.710   4.742  1.1325  0.7128  0.0161
15065TIP3    H166686   5.142   1.666   4.823 -0.0161 -1.4229 -0.6618
15065TIP3    H266687   5.137   1.647   4.673 -2.3883  0.2060 -0.8462
15066TIP3   OH266688   4.297   4.050   4.387 -0.5314 -0.2001  0.0490
15066TIP3    H166689   4.219   4.060   4.332  0.2031  1.9735 -0.7128
15066TIP3    H266690   4.264   4.060   4.476 -1.2368 -0.0643 -0.2149
15067TIP3   OH266691   0.709   5.695  14.653  0.3163  0.3190 -0.3264
15067TIP3    H166692   0.634   5.716  14.597  0.2811  0.2785 -0.2947
15067TIP3    H266693   0.774   5.659  14.593  0.3714  0.5037 -0.3779
15068TIP3   OH266694   3.218   5.476   5.519  0.0373 -0.0879  0.3634
15068TIP3    H166695   3.244   5.557   5.561 -2.7833 -0.2179  2.6636
15068TIP3    H266696   3.136   5.497   5.474  0.6622 -1.0730 -1.3342
15069TIP3   OH266697   3.735   0.351  13.869  0.2181 -0.5905 -0.0290
15069TIP3    H166698   3.675   0.412  13.826  1.0172 -0.6394 -1.2739
15069TIP3    H266699   3.799   0.329  13.801  0.4155 -2.1865  0.6387
15070TIP3   OH266700   5.578   1.687  12.031  0.0434 -0.1040  0.0417
15070TIP3    H166701   5.501   1.636  12.007 -0.0030 -0.6649  1.3190
15070TIP3    H266702   5.616   1.713  11.947 -0.8105 -0.9047 -0.6164
15071TIP3   OH266703   3.192   0.207   2.307  0.5040 -0.0183 -0.2482
15071TIP3    H166704   3.159   0.128   2.264  2.5797 -0.4261 -1.2576
15071TIP3    H266705   3.272   0.178   2.351  0.3385  1.1769  0.8826
15072TIP3   OH266706   6.174   4.016  14.227  0.1476 -0.3799  0.4295
15072TIP3    H166707   6.253   4.052  14.188 -1.4625  1.0991 -1.7101
15072TIP3    H266708   6.165   3.929  14.188  1.4224 -1.1914  1.8219
15073TIP3   OH266709   0.255   2.693   4.052 -0.1861  0.0132 -0.0035
15073TIP3    H166710   0.220   2.678   3.964 -0.0522  2.2084 -0.4802
15073TIP3    H266711   0.343   2.726   4.039  0.6582 -1.6226  1.0826
15074TIP3   OH266712   1.441   0.003  14.472  0.2424  0.2504  0.0448
15074TIP3    H166713   1.352  -0.031  14.481  0.4297 -0.3481 -0.3087
15074TIP3    H266714   1.497  -0.075  14.476  0.6814  0.5065 -0.8410
15075TIP3   OH266715   6.465   4.907  12.528 -0.4335 -0.0406 -0.4863
15075TIP3    H166716   6.478   4.814  12.507 -2.7865 -0.3593 -0.7632
15075TIP3    H266717   6.495   4.916  12.619 -0.6193 -1.1859 -0.3011
15076TIP3   OH266718   0.045   0.091   1.525  0.0977 -0.2010  0.0955
15076TIP3    H166719   0.061   0.183   1.544  0.1525 -0.2715  0.3983
15076TIP3    H266720   0.027   0.089   1.431 -0.9888  0.2625  0.2807
15077TIP3   OH266721   1.129   4.017  12.909 -0.1507  0.3217  0.2755
15077TIP3    H166722   1.104   4.062  12.829  0.5368 -0.2300 -0.2771
15077TIP3    H266723   1.130   3.924  12.885 -0.9404  0.0506  1.2129
15078TIP3   OH266724   5.446   0.277  14.027 -0.2532  0.3018  0.6643
15078TIP3    H166725   5.519   0.281  14.088  0.0339 -1.9072  0.5568
15078TIP3    H266726   5.486   0.250  13.944 -1.0864 -0.4111  0.4772
15079TIP3   OH266727   6.631   2.166   1.975 -0.3419 -0.8045 -0.0353
15079TIP3    H166728   6.543   2.172   1.939 -0.5382  0.0084  0.5398
15079TIP3    H266729   6.620   2.185   2.069  0.4882 -0.2212 -0.0391
15080TIP3   OH266730   5.389   6.815   6.174 -0.1610 -0.6419  0.1959
15080TIP3    H166731   5.471   6.829   6.127 -0.9049 -0.0225 -0.9428
15080TIP3    H266732   5.392   6.877   6.247  1.0049 -1.6242  1.0397
15081TIP3   OH266733   0.209   0.017   4.404  0.3238 -1.2106 -0.0067
15081TIP3    H166734   0.283  -0.043   4.403  0.7924 -0.7235  1.7137
15081TIP3    H266735   0.244   0.098   4.441 -0.4857 -0.1149 -1.5546
15082TIP3   OH266736   1.879   5.781   3.859  0.0301 -0.5546 -0.0157
15082TIP3    H166737   1.848   5.743   3.776 -0.0937  0.3743 -0.4036
15082TIP3    H266738   1.942   5.848   3.832  2.1619 -2.1264  0.7263
15083TIP3   OH266739   5.499   6.817   1.644 -0.0801 -0.1832  0.5895
15083TIP3    H166740   5.499   6.741   1.586  3.5667 -0.0421  0.1690
15083TIP3    H266741   5.432   6.875   1.608 -0.7084 -1.8182 -1.0197
15084TIP3   OH266742   3.436   5.164   3.383  0.6366 -0.0177 -0.1478
15084TIP3    H166743   3.500   5.101   3.349  1.1628  0.9310 -0.9924
15084TIP3    H266744   3.378   5.180   3.308  0.4727  0.4475  0.0796
15085TIP3   OH266745   6.278   4.565   0.724  0.0741 -0.5978  0.1767
15085TIP3    H166746   6.281   4.512   0.804  1.9709 -1.6922 -0.5599
15085TIP3    H266747   6.256   4.503   0.655 -4.4643  0.8027  0.0815
15086TIP3   OH266748   3.262   3.706   5.955 -0.1844  0.5417  0.1956
15086TIP3    H166749   3.330   3.747   6.007  1.3819 -0.8117 -0.6923
15086TIP3    H266750   3.278   3.612   5.965 -2.1081  0.1714  0.1826
15087TIP3   OH266751   3.427   3.791  16.550 -0.1243 -0.1136  0.8884
15087TIP3    H166752   3.476   3.843  16.613 -0.8373 -0.1332  1.4782
15087TIP3    H266753   3.376   3.855  16.500  0.6754 -0.0708  0.1081
15088TIP3   OH266754   2.695   4.466   3.830 -0.1738 -0.4852 -0.1913
15088TIP3    H166755   2.619   4.414   3.800  0.6987 -1.2757 -1.1241
15088TIP3    H266756   2.729   4.417   3.904 -0.0475 -0.6181 -0.3359
15089TIP3   OH266757   4.126   2.805  15.206  0.6199  0.8837  0.1719
15089TIP3    H166758   4.143   2.715  15.178  0.4241  1.1514 -0.8296
15089TIP3    H266759   4.199   2.826  15.265  0.7427  0.1244  0.2991
15090TIP3   OH266760   0.065   4.437  13.255  0.1465 -0.1588  0.0616
15090TIP3    H166761   0.132   4.376  13.286  0.6759 -0.2033 -1.1064
15090TIP3    H266762   0.108   4.488  13.187 -1.0855 -0.4383 -0.9860
15091TIP3   OH266763   5.279   5.170  16.458 -0.1855 -0.3325 -0.2685
15091TIP3    H166764   5.227   5.206  16.530 -0.0793 -0.2619 -0.2273
15091TIP3    H266765   5.217   5.159  16.386 -0.3306 -0.5728 -0.1075
15092TIP3   OH266766   5.870   4.943   2.915  0.4564 -0.2742  0.0652
15092TIP3    H166767   5.840   4.853   2.907  1.1611 -0.4392 -1.0320
15092TIP3    H266768   5.966   4.937   2.915  0.5127  0.4601  0.0218
15093TIP3   OH266769   1.353   6.586  15.101 -0.1150 -0.1527  0.3749
15093TIP3    H166770   1.295   6.577  15.026 -1.0074  0.1108  1.0129
15093TIP3    H266771   1.409   6.660  15.080  2.0975 -2.2288 -1.5738
15094TIP3   OH266772   4.301   6.173  13.362  0.6116 -0.7440 -0.6286
15094TIP3    H166773   4.228   6.124  13.324  1.5337 -2.8008  0.1477
15094TIP3    H266774   4.332   6.228  13.290 -1.2314 -0.3483 -1.1700
15095TIP3   OH266775   1.804   4.786  16.231  0.3165  0.0927 -0.3469
15095TIP3    H166776   1.876   4.847  16.246  1.1060 -0.7715 -0.5026
15095TIP3    H266777   1.741   4.807  16.299  1.4751 -0.2321  0.8805
15096TIP3   OH266778   4.573   5.226  14.866 -0.0267  0.5767 -0.1707
15096TIP3    H166779   4.489   5.255  14.830  0.7549  1.2305 -1.5613
15096TIP3    H266780   4.570   5.251  14.958 -0.3895  2.8783 -0.7520
15097TIP3   OH266781   2.481   5.607   4.114  0.4554 -0.3665 -0.1644
15097TIP3    H166782   2.568   5.572   4.134  0.6735  0.3370  0.1378
15097TIP3    H266783   2.449   5.551   4.043  1.1953 -0.5638 -0.3562
15098TIP3   OH266784   3.541   1.674   0.288 -1.1740  0.5520  0.2471
15098TIP3    H166785   3.560   1.763   0.318 -1.5851  0.5854  0.4215
15098TIP3    H266786   3.535   1.623   0.369  1.5737 -0.1863  0.0962
15099TIP3   OH266787   2.595   0.914  11.904  0.0401  0.2161  0.1353
15099TIP3    H166788   2.501   0.900  11.894  0.0747 -1.6525  1.8739
15099TIP3    H266789   2.603   0.962  11.986  0.5920  1.3980 -0.5743
15100TIP3   OH266790   2.370   3.163   4.896 -0.3243 -0.0533 -0.6924
15100TIP3    H166791   2.357   3.211   4.814 -0.1785  0.3986 -0.4547
15100TIP3    H266792   2.378   3.231   4.962  1.5574 -0.3262 -0.5776
15101TIP3   OH266793   6.474   1.414   2.471 -0.3613 -0.5173  0.0300
15101TIP3    H166794   6.391   1.445   2.433 -0.1486 -0.1665 -0.1556
15101TIP3    H266795   6.529   1.492   2.475 -0.5970 -0.4002  1.6763
15102TIP3   OH266796   4.356   3.374   3.673  0.3049 -0.5378  0.0977
15102TIP3    H166797   4.321   3.315   3.739 -1.0171  1.0277  0.8586
15102TIP3    H266798   4.443   3.399   3.706  1.3698 -2.8220 -0.7786
15103TIP3   OH266799   2.317   4.924  16.296  0.7913  0.3018  0.5015
15103TIP3    H166800   2.355   4.970  16.221 -1.0245  0.8729 -0.1212
15103TIP3    H266801   2.352   4.835  16.290  2.2827  0.8876  0.1861
15104TIP3   OH266802   6.598   1.534  13.400  0.2553  0.4641  0.1247
15104TIP3    H166803   6.692   1.547  13.393  0.7286 -1.2780  2.0884
15104TIP3    H266804   6.577   1.471  13.331  0.1307  2.1884 -1.4937
15105TIP3   OH266805   6.537   5.007  14.405  0.1168 -0.0992 -0.3441
15105TIP3    H166806   6.561   5.094  14.439 -0.4866 -0.5930  1.4297
15105TIP3    H266807   6.486   5.026  14.327 -1.7282  1.2610  1.0978
15106TIP3   OH266808   0.828   1.762  14.010  0.1094  0.0357 -0.1207
15106TIP3    H166809   0.871   1.813  13.940  1.0988  0.5559  0.8278
15106TIP3    H266810   0.900   1.720  14.056 -0.6433 -1.4592 -0.2768
15107TIP3   OH266811   6.285   4.531  11.623 -0.3632 -0.4284  0.3499
15107TIP3    H166812   6.227   4.518  11.699 -0.5341 -1.8573  0.0212
15107TIP3    H266813   6.290   4.444  11.583  0.4075  0.1229 -0.7929
15108TIP3   OH266814   4.776   0.585  11.614  0.3079 -0.3103 -0.1121
15108TIP3    H166815   4.830   0.514  11.649  0.6223  0.6035  1.3229
15108TIP3    H266816   4.840   0.651  11.585  0.0020  0.0669  0.0606
15109TIP3   OH266817   3.468   1.756   6.073 -0.2275 -0.5473 -0.6595
15109TIP3    H166818   3.515   1.828   6.031  1.7297 -1.5641 -0.3222
15109TIP3    H266819   3.381   1.792   6.091  0.8785  1.9922  0.1659
15110TIP3   OH266820   3.381   3.172   6.763 -0.6865 -0.3814  0.3134
15110TIP3    H166821   3.449   3.110   6.786  2.2598  1.3132 -2.9553
15110TIP3    H266822   3.306   3.118   6.738  1.2102 -2.5888 -0.9527
15111TIP3   OH266823   0.944   1.184  16.999 -0.1346  0.0862  0.5968
15111TIP3    H166824   0.874   1.126  17.029 -0.4059  0.3865  0.5507
15111TIP3    H266825   1.025   1.137  17.019 -0.3840 -1.4462 -1.6767
15112TIP3   OH266826   6.806   0.066   3.217 -0.0149  0.2362 -0.1996
15112TIP3    H166827   6.823  -0.007   3.275 -0.7569  0.3641  0.1762
15112TIP3    H266828   6.755   0.029   3.145  0.8995  0.0777 -0.7881
15113TIP3   OH266829   6.188   2.860   0.711  0.1523 -0.0474  0.5222
15113TIP3    H166830   6.099   2.867   0.676  0.3180 -0.4940 -0.0052
15113TIP3    H266831   6.178   2.875   0.805 -0.3303  0.9656  0.3199
15114TIP3   OH266832   4.250   4.499  16.811 -0.6884  1.0202 -0.0156
15114TIP3    H166833   4.209   4.550  16.881 -1.6755  1.2330 -0.7199
15114TIP3    H266834   4.185   4.432  16.789  0.9343 -1.2399  1.5339
15115TIP3   OH266835   2.186   5.597  12.454  0.3396 -0.0182  0.5415
15115TIP3    H166836   2.263   5.653  12.463 -0.4346  1.2157 -0.1469
15115TIP3    H266837   2.163   5.572  12.543  1.3091 -0.0723  0.7797
15116TIP3   OH266838   3.075   1.853   2.390 -0.1967 -0.3615  0.0612
15116TIP3    H166839   3.104   1.801   2.315  0.6713  0.2995 -0.0849
15116TIP3    H266840   3.155   1.898   2.420 -0.3648 -1.1756  1.8503
15117TIP3   OH266841   0.558   3.258   1.214  0.1401 -0.3508  0.0669
15117TIP3    H166842   0.521   3.266   1.126 -0.2391 -1.0264  0.1569
15117TIP3    H266843   0.648   3.228   1.199  0.7882  1.6002 -0.1655
15118TIP3   OH266844   0.132   6.707   6.384 -0.4551  0.3884  0.6662
15118TIP3    H166845   0.041   6.731   6.369 -0.6918 -0.2811  0.9721
15118TIP3    H266846   0.183   6.779   6.348 -1.0724  0.1811 -0.6513
15119TIP3   OH266847   5.392   2.357  11.243 -0.0986  0.2057  0.2989
15119TIP3    H166848   5.376   2.450  11.260  3.0461  0.8038  0.4308
15119TIP3    H266849   5.467   2.355  11.183 -0.2672 -2.2637  0.0499
15120TIP3   OH266850   6.031   5.559  11.189  0.2832  0.0463  0.3340
15120TIP3    H166851   5.991   5.513  11.115 -3.3460  0.3965  1.8631
15120TIP3    H266852   5.972   5.633  11.205  1.5135  0.5614  2.9366
15121TIP3   OH266853   6.368   1.296  16.328  0.6275 -0.2663  0.2622
15121TIP3    H166854   6.278   1.330  16.324  0.7333  0.2442  1.5997
15121TIP3    H266855   6.417   1.352  16.268 -0.4160 -2.2965 -2.6639
15122TIP3   OH266856   1.405   4.132  10.248 -0.1213  0.6447  0.0170
15122TIP3    H166857   1.458   4.159  10.322 -0.6546  0.1645  0.5928
15122TIP3    H266858   1.444   4.049  10.219 -0.0702  0.7009 -0.0757
15123TIP3   OH266859   4.213   5.778   1.788  0.4985 -0.3305  0.4539
15123TIP3    H166860   4.290   5.830   1.764 -0.3912  1.9341  2.2377
15123TIP3    H266861   4.202   5.791   1.882 -0.9940 -2.1400  0.6025
15124TIP3   OH266862   1.133   3.015  15.821  0.9139 -0.2138  0.4606
15124TIP3    H166863   1.078   3.017  15.899  1.6647 -1.7949  1.0763
15124TIP3    H266864   1.219   2.988  15.853  0.5824 -3.7859 -1.2041
15125TIP3   OH266865   5.616   5.886   0.740  0.3140  0.0116 -0.2629
15125TIP3    H166866   5.636   5.805   0.693  1.0952  0.7662 -1.3008
15125TIP3    H266867   5.530   5.871   0.780  1.3130 -2.0431  1.2662
15126TIP3   OH266868   1.918   2.157  16.178 -0.5530 -0.3394  0.0619
15126TIP3    H166869   1.907   2.063  16.163 -1.1647 -0.0163 -1.6650
15126TIP3    H266870   1.832   2.186  16.208 -0.6473 -0.1684 -0.3675
15127TIP3   OH266871   1.283   1.472   1.962 -0.0665 -0.3263  0.1291
15127TIP3    H166872   1.342   1.461   2.036 -0.6373 -1.2396  0.4639
15127TIP3    H266873   1.197   1.486   2.002 -0.3227 -0.4702 -0.3628
15128TIP3   OH266874   1.604   3.978   5.178  0.5793  0.8472 -0.2581
15128TIP3    H166875   1.657   3.947   5.251  0.3102 -1.8434 -1.0915
15128TIP3    H266876   1.518   3.995   5.215  0.4123 -0.6054  0.0816
15129TIP3   OH266877   5.757   6.413   0.628 -0.6225 -0.3296  1.0993
15129TIP3    H166878   5.691   6.420   0.559 -1.0117  1.3853  1.6179
15129TIP3    H266879   5.839   6.433   0.584 -1.0383  2.2715  1.3641
15130TIP3   OH266880   0.893   3.741  16.297  0.2573 -0.0586  0.0550
15130TIP3    H166881   0.964   3.799  16.268  0.6621 -0.3246  0.5080
15130TIP3    H266882   0.896   3.746  16.393  0.9811 -1.6446  0.1334
15131TIP3   OH266883   5.001   1.361   4.231  0.6458  0.4721  0.1688
15131TIP3    H166884   5.073   1.373   4.168  1.4661 -0.0291  0.9790
15131TIP3    H266885   4.971   1.271   4.215 -0.8381  1.1614 -1.1833
15132TIP3   OH266886   1.231   3.606   4.577 -0.2741 -0.2004  0.1265
15132TIP3    H166887   1.306   3.548   4.561 -0.3161 -0.2865  0.2416
15132TIP3    H266888   1.253   3.687   4.530 -0.4907 -0.5266 -0.5593
15133TIP3   OH266889   0.360   5.899   1.030  0.1620  0.6492  0.3126
15133TIP3    H166890   0.444   5.908   0.985 -1.0154  0.9216 -1.9886
15133TIP3    H266891   0.383   5.886   1.122  2.6927  1.0049 -0.2008
15134TIP3   OH266892   5.424   0.799  12.080 -0.7221  0.3457  0.1069
15134TIP3    H166893   5.443   0.874  12.136 -0.8443  0.6902 -0.3032
15134TIP3    H266894   5.328   0.798  12.073 -0.8055 -0.5817  1.0885
15135TIP3   OH266895   0.453   1.306  10.962 -0.1697 -0.0330 -0.5573
15135TIP3    H166896   0.461   1.245  10.889 -0.2844  0.2590 -0.8163
15135TIP3    H266897   0.449   1.250  11.040 -1.9990 -0.4614 -0.9003
15136TIP3   OH266898   0.585   1.711  10.165 -0.0072  0.7595 -0.2468
15136TIP3    H166899   0.497   1.679  10.146  0.2238  0.2266 -0.4489
15136TIP3    H266900   0.590   1.795  10.119 -1.2306  1.9912  1.7380
15137TIP3   OH266901   1.697   2.720   1.309  0.1896  0.0996  0.4773
15137TIP3    H166902   1.768   2.669   1.269 -0.8748 -1.4205  0.4596
15137TIP3    H266903   1.633   2.731   1.240 -0.2676  0.1759  0.9081
15138TIP3   OH266904   2.784   1.240   2.654  0.0354 -0.1478  0.2352
15138TIP3    H166905   2.758   1.206   2.740  0.7769  1.6840  1.2378
15138TIP3    H266906   2.751   1.330   2.653  1.7803  0.5271 -0.5492
15139TIP3   OH266907   2.640   4.713  15.226 -0.1491 -0.2744  0.6791
15139TIP3    H166908   2.565   4.764  15.193 -1.4402 -2.2260  0.4372
15139TIP3    H266909   2.710   4.731  15.164 -1.0949 -0.1138 -0.3873
15140TIP3   OH266910   3.998   0.848   2.920 -0.1565 -0.6082 -0.3612
15140TIP3    H166911   3.978   0.839   2.827  1.9927 -3.9595 -0.6724
15140TIP3    H266912   4.087   0.885   2.922 -0.7742  0.9383  0.4861
15141TIP3   OH266913   0.199   0.833  13.428 -0.0430 -0.3435  0.0414
15141TIP3    H166914   0.180   0.916  13.473  0.3517 -0.1165 -0.1973
15141TIP3    H266915   0.227   0.774  13.497  1.2283  0.2072  0.0282
15142TIP3   OH266916   5.448   0.237  15.845 -0.5890  0.2918  0.3678
15142TIP3    H166917   5.424   0.151  15.878 -0.0738 -0.5150 -1.2557
15142TIP3    H266918   5.370   0.291  15.860 -1.1461 -0.6098  0.8328
15143TIP3   OH266919   2.465   4.676  11.356  0.2149  0.0328  0.1818
15143TIP3    H166920   2.538   4.615  11.346  0.1797 -0.0679  0.5156
15143TIP3    H266921   2.453   4.682  11.451 -2.0121 -2.0834  0.1208
15144TIP3   OH266922   2.709   2.408  16.707 -0.1828  0.0813  0.5666
15144TIP3    H166923   2.799   2.375  16.718 -0.1945  0.0972  0.7134
15144TIP3    H266924   2.695   2.465  16.783 -0.3834 -0.0682  0.6417
15145TIP3   OH266925   4.756   2.358  14.021  0.2243  0.3493  0.0339
15145TIP3    H166926   4.700   2.406  14.083 -0.3849 -0.4548  0.1179
15145TIP3    H266927   4.715   2.372  13.936  0.5374  0.6832 -0.0662
15146TIP3   OH266928   6.692   4.466  17.054 -0.0942 -0.7081  0.1548
15146TIP3    H166929   6.699   4.561  17.057 -0.3204 -0.6660 -0.4881
15146TIP3    H266930   6.625   4.444  17.119 -0.6953 -0.3512 -0.3392
15147TIP3   OH266931   5.577   5.675  14.980  0.0084 -0.1050  0.1806
15147TIP3    H166932   5.485   5.660  15.002  0.4759 -0.0339  2.4540
15147TIP3    H266933   5.624   5.652  15.060  1.9453  0.2269 -0.8169
15148TIP3   OH266934   3.671   1.349  13.517 -0.1770  0.3253 -0.8254
15148TIP3    H166935   3.741   1.356  13.581 -0.2316 -2.0956 -0.3973
15148TIP3    H266936   3.716   1.354  13.432  0.2552  0.7334 -0.5788
15149TIP3   OH266937   5.906   5.922   3.305  0.7730 -0.1850 -0.2054
15149TIP3    H166938   5.953   5.999   3.337 -0.7705  1.1924 -1.0857
15149TIP3    H266939   5.923   5.920   3.211 -1.3675  0.7722 -0.6882
15150TIP3   OH266940   1.046   3.550  11.998 -0.2749 -0.0914 -0.1199
15150TIP3    H166941   0.995   3.592  12.068  0.6784 -0.3615  0.7570
15150TIP3    H266942   0.981   3.526  11.932 -1.0142  1.4987 -0.0093
15151TIP3   OH266943   5.378   4.850   4.501 -0.1429 -0.3365  1.2165
15151TIP3    H166944   5.416   4.776   4.453 -1.7335 -1.6017  1.8209
15151TIP3    H266945   5.359   4.815   4.588  0.0016  1.0901  1.8536
15152TIP3   OH266946   1.821   4.903  12.681 -0.3515 -0.4379  0.2824
15152TIP3    H166947   1.852   4.984  12.639  1.2916 -0.9492  0.4143
15152TIP3    H266948   1.763   4.863  12.616 -0.8444  0.6180  0.0424
15153TIP3   OH266949   5.450   2.193   3.041 -0.1112  0.3982 -0.1975
15153TIP3    H166950   5.409   2.230   3.119 -0.1575  1.0380 -0.5166
15153TIP3    H266951   5.434   2.258   2.972  0.5296  0.1679 -0.5767
15154TIP3   OH266952   6.702   0.216   2.954 -0.6695  0.3032 -0.0127
15154TIP3    H166953   6.674   0.217   2.862 -0.5917 -1.5936 -0.0937
15154TIP3    H266954   6.796   0.233   2.951 -0.2893 -1.6974 -0.4846
15155TIP3   OH266955   5.828   1.002   0.284 -0.5009  0.2506  0.1812
15155TIP3    H166956   5.873   1.062   0.343  0.1267  1.9797 -1.9294
15155TIP3    H266957   5.738   1.034   0.282 -0.9033 -0.7286  1.2787
15156TIP3   OH266958   6.256   4.036  10.895 -0.2484  0.1973  0.2234
15156TIP3    H166959   6.204   3.958  10.877  2.4105 -0.9866 -3.5656
15156TIP3    H266960   6.208   4.107  10.852 -0.7610 -0.1090  0.2833
15157TIP3   OH266961   4.209   6.541  13.255  0.2022 -0.5885 -0.1679
15157TIP3    H166962   4.159   6.571  13.179  0.3639 -1.5095 -0.6547
15157TIP3    H266963   4.283   6.494  13.217  1.9290  1.4186  0.5038
15158TIP3   OH266964   2.403   4.447   5.379 -0.1041 -0.0685  0.2844
15158TIP3    H166965   2.414   4.425   5.287  0.3317  0.0446  0.3060
15158TIP3    H266966   2.330   4.393   5.408 -1.2603  1.0283 -0.5040
15159TIP3   OH266967   2.227   1.022   0.544  0.6800  0.3377 -0.1055
15159TIP3    H166968   2.281   1.076   0.601  3.3979 -1.4051 -0.8254
15159TIP3    H266969   2.158   0.987   0.602  2.0457  0.3496  1.6092
15160TIP3   OH266970   6.225   5.938   5.105  0.0937 -0.2515  0.0305
15160TIP3    H166971   6.221   5.851   5.146 -0.6371 -0.3389 -0.2072
15160TIP3    H266972   6.247   5.997   5.177 -0.7697 -0.4611  0.4831
15161TIP3   OH266973   6.780   4.475   1.701 -0.4367 -0.2985  0.0907
15161TIP3    H166974   6.738   4.392   1.726  1.6967 -1.1211  1.1710
15161TIP3    H266975   6.793   4.467   1.606 -0.7478 -0.9576  0.0982
15162TIP3   OH266976   6.447   1.571   1.557  0.3378 -0.3274  0.5318
15162TIP3    H166977   6.421   1.652   1.514  0.2880  0.6919  2.4063
15162TIP3    H266978   6.374   1.511   1.542 -0.3278  0.4830  0.4633
15163TIP3   OH266979   4.259   4.134   0.808  0.4038  0.7675  0.3761
15163TIP3    H166980   4.302   4.137   0.894  0.1946 -1.1467  0.6057
15163TIP3    H266981   4.268   4.043   0.780 -2.6756  0.4404  0.0455
15164TIP3   OH266982   0.404   1.264   1.564  0.5462 -0.1859 -0.3265
15164TIP3    H166983   0.310   1.256   1.579  0.6990 -2.3004 -0.1315
15164TIP3    H266984   0.441   1.272   1.652  0.7134 -2.3320 -0.1507
15165TIP3   OH266985   2.218   3.076   2.959 -0.2403 -0.0675 -0.2425
15165TIP3    H166986   2.170   3.114   3.033 -0.3198 -0.2786 -0.1849
15165TIP3    H266987   2.260   2.998   2.996 -0.2040 -0.1210 -0.3971
15166TIP3   OH266988   0.487   1.649   3.213  0.8717 -0.5225  0.6372
15166TIP3    H166989   0.481   1.635   3.118  1.2686 -0.1794  0.5597
15166TIP3    H266990   0.580   1.644   3.232  0.7512 -1.0654  1.0876
15167TIP3   OH266991   0.513   5.814  12.215 -0.3849  0.2384 -0.2098
15167TIP3    H166992   0.540   5.725  12.191 -0.4363 -0.8148  3.0548
15167TIP3    H266993   0.420   5.818  12.195 -0.6189 -0.8785  0.5256
15168TIP3   OH266994   5.841   1.947  11.239  0.0985  0.1256 -0.6616
15168TIP3    H166995   5.817   1.914  11.152 -1.3231  0.9989 -0.6196
15168TIP3    H266996   5.835   2.042  11.232  0.1634  0.2185  0.3532
15169TIP3   OH266997   2.546   3.584  15.425  0.0541 -0.2610  0.2347
15169TIP3    H166998   2.485   3.521  15.465  1.8753 -0.7357  2.4574
15169TIP3    H266999   2.629   3.537  15.423  0.8518  1.1529 -0.6605
15170TIP3   OH267000   0.927   1.306  10.864  0.3396 -0.2334  0.2483
15170TIP3    H167001   0.924   1.277  10.773  0.5977 -2.6474  0.9345
15170TIP3    H267002   0.909   1.227  10.915  1.5055  0.7493  2.3263
15171TIP3   OH267003   4.183   6.724  13.465  0.9121  0.7628 -0.4938
15171TIP3    H167004   4.162   6.652  13.405  1.3535  0.6669 -0.5342
15171TIP3    H267005   4.135   6.702  13.545  0.8510  0.5500 -0.5865
15172TIP3   OH267006   1.603   1.453   3.365  0.5206 -0.0152  0.4951
15172TIP3    H167007   1.525   1.431   3.315  0.0395 -0.0255  1.2275
15172TIP3    H267008   1.572   1.516   3.431  1.2460  0.4314  0.4240
15173TIP3   OH267009   6.384   5.090  14.173 -0.7057  0.1629  0.4806
15173TIP3    H167010   6.292   5.066  14.186 -0.5225 -0.3972  0.7784
15173TIP3    H267011   6.382   5.184  14.152 -1.3574  0.1065  0.2876
15174TIP3   OH267012   4.178   3.981  16.533  0.0067  0.0524  0.3870
15174TIP3    H167013   4.140   3.962  16.448 -0.4149  0.6570  0.4312
15174TIP3    H267014   4.207   4.072  16.526 -0.3611  0.2233  0.9981
15175TIP3   OH267015   6.040   4.397  15.100 -0.2335 -0.0994  0.1795
15175TIP3    H167016   6.002   4.381  15.014  1.0918  0.3355 -0.5066
15175TIP3    H267017   6.133   4.407  15.084 -0.0737  0.9026  1.5455
15176TIP3   OH267018   4.967   6.610  13.619  0.4952  0.2165 -0.0882
15176TIP3    H167019   4.909   6.678  13.587 -0.1418 -0.8506 -1.3087
15176TIP3    H267020   5.016   6.651  13.690 -1.3821  1.2939  0.6493
15177TIP3   OH267021   1.204   1.171  11.823 -0.7213 -0.9737  0.4340
15177TIP3    H167022   1.267   1.101  11.837 -0.4442 -0.5341  1.4872
15177TIP3    H267023   1.255   1.252  11.833 -1.2451 -0.6132  0.2805
15178TIP3   OH267024   1.698   6.176   0.285 -0.6526 -0.7354  0.3360
15178TIP3    H167025   1.653   6.237   0.227  1.0869  0.4096  0.0974
15178TIP3    H267026   1.654   6.185   0.369  1.9404  4.0493  1.5398
15179TIP3   OH267027   1.293   2.603  16.018  0.0214 -0.0123 -0.0955
15179TIP3    H167028   1.281   2.512  15.992 -0.2044  0.2992 -1.1439
15179TIP3    H267029   1.356   2.600  16.089  0.1091 -0.9792 -0.2048
15180TIP3   OH267030   1.281   0.059  13.347 -0.0892  0.1939 -0.8991
15180TIP3    H167031   1.339  -0.016  13.358  1.5797  1.6800  1.1232
15180TIP3    H267032   1.211   0.045  13.411  0.2857  0.3910 -0.4377
15181TIP3   OH267033   2.956   0.380   4.708  0.5711 -0.0034  0.3869
15181TIP3    H167034   3.017   0.454   4.701  0.9359 -0.4502 -1.5994
15181TIP3    H267035   2.884   0.402   4.650 -0.3774 -0.2678  1.4219
15182TIP3   OH267036   4.770   0.699  11.987  0.2006 -0.2057 -0.1001
15182TIP3    H167037   4.843   0.662  11.939  0.6201  0.4494  0.0239
15182TIP3    H267038   4.705   0.629  11.990  0.7744 -0.7496 -0.3107
15183TIP3   OH267039   1.707   5.494   3.696 -0.9133  0.0841  0.3178
15183TIP3    H167040   1.738   5.554   3.629  0.3370 -2.0932 -1.1806
15183TIP3    H267041   1.670   5.550   3.764  1.8541  2.6519 -0.1081
15184TIP3   OH267042   1.727   2.444   2.888 -0.2054 -0.2563  0.1849
15184TIP3    H167043   1.713   2.456   2.982  0.2912  1.4532  0.0662
15184TIP3    H267044   1.779   2.363   2.882 -0.9857 -0.8700  1.2973
15185TIP3   OH267045   4.113   3.599  11.027  0.6667 -0.1202  0.2756
15185TIP3    H167046   4.031   3.611  10.980  0.0727 -1.6233  0.8890
15185TIP3    H267047   4.181   3.608  10.960 -0.0120  0.6826 -0.3109
15186TIP3   OH267048   0.411   1.194   2.377  0.1225 -0.7116  0.3298
15186TIP3    H167049   0.411   1.181   2.282 -0.0242 -1.8080  0.4592
15186TIP3    H267050   0.343   1.259   2.392 -1.2709 -2.0093 -0.1587
15187TIP3   OH267051   3.455   4.350   0.195 -0.2943 -0.7704 -0.1531
15187TIP3    H167052   3.515   4.399   0.252  0.7519 -1.2407 -0.8438
15187TIP3    H267053   3.509   4.321   0.122 -1.6967  0.1864 -1.6428
15188TIP3   OH267054   4.901   4.493  12.355  0.1354 -0.1884  0.0974
15188TIP3    H167055   4.973   4.436  12.382 -1.1708 -1.6452  0.6779
15188TIP3    H267056   4.844   4.497  12.432 -0.0994  1.4631 -0.1332
15189TIP3   OH267057   0.969   0.880  12.096  0.3432 -0.8025  0.0520
15189TIP3    H167058   0.942   0.967  12.127  0.0032 -0.8243 -0.1846
15189TIP3    H267059   0.935   0.875  12.007  1.1164 -0.8368 -0.2434
15190TIP3   OH267060   1.142   3.043   6.051  0.1487 -0.0763  0.0063
15190TIP3    H167061   1.234   3.021   6.068  0.2569  1.8331  2.4311
15190TIP3    H267062   1.138   3.138   6.061 -2.5630 -0.3249  2.8778
15191TIP3   OH267063   4.551   5.073   4.662  0.6687 -0.1672  0.1868
15191TIP3    H167064   4.597   5.090   4.744 -1.3724 -0.6169  1.4823
15191TIP3    H267065   4.510   5.156   4.640  0.6806 -0.2205 -0.0402
15192TIP3   OH267066   2.266   3.535   3.202  0.2966 -0.0835  0.0292
15192TIP3    H167067   2.290   3.605   3.263  0.5666  0.9413 -1.2094
15192TIP3    H267068   2.298   3.565   3.117 -3.9714  0.7014 -1.5103
15193TIP3   OH267069   5.349   5.286  13.647 -0.3674 -0.0150  0.5028
15193TIP3    H167070   5.281   5.258  13.709 -0.5198  3.0244  1.9206
15193TIP3    H267071   5.311   5.269  13.561 -1.3871 -1.6968  1.2365
15194TIP3   OH267072   0.026   5.444   5.431 -0.4189  0.3291  0.8964
15194TIP3    H167073   0.054   5.487   5.350 -0.8132 -1.1274 -0.0489
15194TIP3    H267074   0.026   5.514   5.497  0.7543  1.3593 -0.1531
15195TIP3   OH267075   0.144   1.228  14.911  0.2383  0.3321 -0.7675
15195TIP3    H167076   0.204   1.234  14.985 -0.7238  1.4385 -0.0524
15195TIP3    H267077   0.118   1.135  14.909 -1.0937  0.5909  1.4211
15196TIP3   OH267078   4.239   3.803  11.261 -0.1566 -0.0825  0.5673
15196TIP3    H167079   4.327   3.774  11.235 -0.4321 -0.6098  0.1863
15196TIP3    H267080   4.232   3.892  11.226 -0.6359 -0.8871 -1.5588
15197TIP3   OH267081   1.109   6.517   5.602  0.2594 -0.0672 -0.8884
15197TIP3    H167082   1.179   6.582   5.597 -0.8386  1.0308 -3.2502
15197TIP3    H267083   1.145   6.447   5.657  2.2876  1.5299 -0.0714
15198TIP3   OH267084   2.809   2.698   0.064 -0.7875 -0.3077  0.0162
15198TIP3    H167085   2.772   2.635   0.003  1.0962 -0.4205 -1.0693
15198TIP3    H267086   2.866   2.646   0.121 -1.2384  0.0461  0.8121
15199TIP3   OH267087   4.374   6.284   3.198 -0.1796  0.1794 -0.2916
15199TIP3    H167088   4.372   6.359   3.258 -2.6151  0.8508 -1.1085
15199TIP3    H267089   4.396   6.323   3.113 -1.9144  0.0720 -0.8104
15200TIP3   OH267090   1.719   2.147  17.101 -0.9438  0.0509  0.2087
15200TIP3    H167091   1.721   2.081  17.170  1.3884  1.3727  1.5466
15200TIP3    H267092   1.675   2.222  17.141 -0.0535  0.6423  0.1110
15201TIP3   OH267093   3.486   6.304  13.280  0.2243 -0.1168  0.4146
15201TIP3    H167094   3.496   6.275  13.189 -0.8935 -2.2066  0.8785
15201TIP3    H267095   3.557   6.367  13.294 -0.1100  0.9352 -2.1389
15202TIP3   OH267096   4.451   6.195   4.038 -0.2394  0.3920 -0.5261
15202TIP3    H167097   4.496   6.270   4.000  1.6663 -0.9446 -1.0568
15202TIP3    H267098   4.419   6.145   3.963  0.5119 -0.4784 -0.2853
15203TIP3   OH267099   1.612   6.678   3.375  0.2779 -0.0685 -0.5262
15203TIP3    H167100   1.664   6.599   3.389  0.9573  0.4924  0.2878
15203TIP3    H267101   1.539   6.670   3.436 -0.3462 -0.6381 -1.3347
15204TIP3   OH267102   6.793   0.042   3.547 -0.3579 -0.3476  0.0765
15204TIP3    H167103   6.727   0.013   3.485  1.4090 -0.2005 -1.9817
15204TIP3    H267104   6.785  -0.018   3.621 -3.1732  0.0858  0.2188
15205TIP3   OH267105   6.528   3.709   1.853  0.6185  0.4281 -0.6173
15205TIP3    H167106   6.562   3.691   1.765 -0.4444 -1.3868 -0.7160
15205TIP3    H267107   6.452   3.765   1.838  0.6383  0.3975 -0.8404
15206TIP3   OH267108   3.929   5.958  15.858  0.2479 -0.3521 -0.1204
15206TIP3    H167109   4.008   5.995  15.821  0.3258  0.4447  0.7964
15206TIP3    H267110   3.917   6.004  15.941 -2.0518  0.7287 -0.9548
15207TIP3   OH267111   0.836   6.319  15.779  0.0188  0.4411  0.6199
15207TIP3    H167112   0.899   6.250  15.800 -0.5565 -0.7550 -1.3769
15207TIP3    H267113   0.881   6.400  15.803  1.4910 -0.4965  1.1683
15208TIP3   OH267114   0.301   4.449  11.991 -0.0664  0.3354 -0.6894
15208TIP3    H167115   0.314   4.397  11.912  0.3086  0.8075 -0.9502
15208TIP3    H267116   0.278   4.536  11.958 -1.7739  0.0776 -0.2464
15209TIP3   OH267117   4.943   2.383   4.591 -0.5212  0.0809  0.2117
15209TIP3    H167118   5.028   2.341   4.600 -0.4892 -0.1702 -1.0897
15209TIP3    H267119   4.945   2.425   4.505 -1.6246  0.2804  0.2611
15210TIP3   OH267120   0.197   5.744  16.134 -0.3906 -0.0195 -0.6565
15210TIP3    H167121   0.197   5.817  16.073 -0.9504  1.4173  0.9930
15210TIP3    H267122   0.105   5.733  16.160 -0.4828 -1.9770 -1.5890
15211TIP3   OH267123   4.575   4.721   5.556 -0.6208 -0.1062  0.0860
15211TIP3    H167124   4.548   4.697   5.468 -0.3681 -0.7140  0.1675
15211TIP3    H267125   4.656   4.770   5.544  0.5612 -1.9698  0.0777
15212TIP3   OH267126   1.778   2.186  15.517  0.4509 -0.2360  0.3109
15212TIP3    H167127   1.775   2.260  15.577 -0.7909 -0.4099  0.4859
15212TIP3    H267128   1.752   2.111  15.570 -0.1183 -0.4812 -0.3031
15213TIP3   OH267129   5.522   1.163   0.757 -0.4894  0.0661  0.3754
15213TIP3    H167130   5.515   1.245   0.707  0.9950  0.6777  1.0952
15213TIP3    H267131   5.434   1.125   0.754 -0.7365  0.6751 -1.6546
15214TIP3   OH267132   2.357   5.393   3.937 -0.1686 -0.1144 -0.6525
15214TIP3    H167133   2.386   5.439   3.859 -0.8275  0.6762 -0.4391
15214TIP3    H267134   2.394   5.305   3.927  1.7433  0.6515 -0.6836
15215TIP3   OH267135   4.745   6.583   5.108  0.1751  0.6907  0.5895
15215TIP3    H167136   4.703   6.503   5.137 -0.6070  0.4532 -1.0671
15215TIP3    H267137   4.817   6.554   5.051  0.3025  1.1604  0.5032
15216TIP3   OH267138   6.127   6.201  15.321 -0.0317 -0.1473 -0.1533
15216TIP3    H167139   6.096   6.116  15.290 -1.2100 -0.0370  0.6464
15216TIP3    H267140   6.118   6.259  15.246 -0.4071 -0.4459 -0.3415
15217TIP3   OH267141   6.715   1.859  12.526 -0.1837 -0.0636  0.5126
15217TIP3    H167142   6.811   1.856  12.526 -0.1701  0.1059 -0.3344
15217TIP3    H267143   6.693   1.921  12.456 -0.8895  1.1395  1.7338
15218TIP3   OH267144   1.182   1.810   2.629  0.0245 -0.3434  0.1768
15218TIP3    H167145   1.147   1.721   2.621 -0.8714  0.0534 -0.4540
15218TIP3    H267146   1.106   1.867   2.616  0.6880  0.5230  0.0156
15219TIP3   OH267147   3.155   3.329  13.568 -0.0405  0.3764 -0.2408
15219TIP3    H167148   3.134   3.273  13.493  0.7849 -0.3221  0.0380
15219TIP3    H267149   3.069   3.356  13.602 -0.5362 -1.5635  0.2301
15220TIP3   OH267150   0.381   1.895   0.324  0.3587 -0.3832 -0.6267
15220TIP3    H167151   0.466   1.920   0.287  0.0617  0.2050 -0.9369
15220TIP3    H267152   0.323   1.966   0.297 -0.1497 -0.6067 -0.1131
15221TIP3   OH267153   0.573   1.752  11.223  0.1590 -0.2252  0.3562
15221TIP3    H167154   0.558   1.658  11.229 -1.2754 -0.1007 -0.7586
15221TIP3    H267155   0.647   1.761  11.163  0.3314 -0.6257  0.5047
15222TIP3   OH267156   5.732   3.476   1.960 -0.1195  0.8355  0.4981
15222TIP3    H167157   5.671   3.450   1.891 -0.6172  0.5152  1.0484
15222TIP3    H267158   5.715   3.570   1.972 -0.9104  0.6448  1.0181
15223TIP3   OH267159   1.256   1.886  15.474  0.2302 -0.0891 -0.0999
15223TIP3    H167160   1.278   1.794  15.494 -1.5672 -0.6282 -0.4365
15223TIP3    H267161   1.175   1.902  15.523  1.0718  1.6922  0.8127
15224TIP3   OH267162   4.498   6.482  16.876  0.5786 -0.5152 -0.1104
15224TIP3    H167163   4.420   6.433  16.904  0.4802 -0.1798  0.2022
15224TIP3    H267164   4.529   6.525  16.955 -0.3296  1.3348 -0.7220
15225TIP3   OH267165   4.890   0.461  15.133  0.1482  0.3665  0.2342
15225TIP3    H167166   4.836   0.395  15.175 -1.0741 -0.4173 -2.3340
15225TIP3    H267167   4.976   0.421  15.126 -0.3356 -0.6180 -0.4073
15226TIP3   OH267168   2.962   6.380   5.618  0.6601 -0.5306 -0.0572
15226TIP3    H167169   3.042   6.399   5.568 -0.1571  1.3864 -0.7603
15226TIP3    H267170   2.892   6.418   5.565 -0.3384  0.9033  2.1399
15227TIP3   OH267171   1.512   4.053  15.351  0.4936 -0.4113  0.0342
15227TIP3    H167172   1.502   3.962  15.323  1.5454 -0.7332  0.6374
15227TIP3    H267173   1.450   4.063  15.424 -1.8847  0.2856 -1.9549
15228TIP3   OH267174   4.475   3.212   5.631 -0.0461 -0.1914 -0.0555
15228TIP3    H167175   4.482   3.197   5.725  0.5733 -0.9077 -0.2117
15228TIP3    H267176   4.556   3.258   5.608 -0.0418 -0.3201 -0.2998
15229TIP3   OH267177   4.882   2.714  16.808  0.0778  0.8175 -0.7436
15229TIP3    H167178   4.953   2.662  16.769  0.5900  0.6056  0.4113
15229TIP3    H267179   4.921   2.801  16.819  0.3315  0.5887  0.2953
15230TIP3   OH267180   5.797   6.830   2.398 -0.1545 -0.0114  0.1424
15230TIP3    H167181   5.740   6.881   2.340  0.7544  0.1928 -0.5942
15230TIP3    H267182   5.885   6.853   2.371  0.2894 -1.9477 -0.1752
15231TIP3   OH267183   5.246   0.620   1.022 -0.0938 -0.1074  0.1662
15231TIP3    H167184   5.259   0.527   1.006 -1.1093 -0.1987 -0.2005
15231TIP3    H267185   5.162   0.626   1.068 -0.4222  0.6790 -0.5022
15232TIP3   OH267186   1.072   4.308  13.732  0.2419  0.0138  0.5621
15232TIP3    H167187   1.054   4.270  13.646  0.7448 -1.0461  0.9123
15232TIP3    H267188   1.156   4.353  13.721  0.1296  0.1848  0.4039
15233TIP3   OH267189   5.456   2.578   0.921  0.7499  0.0025  0.3150
15233TIP3    H167190   5.449   2.482   0.917 -0.0512  0.0803 -1.7356
15233TIP3    H267191   5.513   2.601   0.848  3.9998  0.9626  2.9314
15234TIP3   OH267192   3.937   6.843   1.971  0.4257  0.6385  0.6308
15234TIP3    H167193   3.970   6.931   1.952  0.0698  0.5536 -0.4606
15234TIP3    H267194   3.981   6.787   1.907 -1.4719  0.4582 -0.5923
15235TIP3   OH267195   1.303   3.153   1.139 -0.1202 -0.3478  0.1842
15235TIP3    H167196   1.238   3.096   1.099  2.5539 -1.2316 -3.3820
15235TIP3    H267197   1.301   3.233   1.087  1.4675 -0.3214  0.1199
15236TIP3   OH267198   3.349   1.124  11.832  0.4326  0.0132  0.0143
15236TIP3    H167199   3.344   1.113  11.927  0.3549 -1.2223 -0.1165
15236TIP3    H267200   3.288   1.196  11.813 -0.2381 -0.3322  0.7969
15237TIP3   OH267201   1.055   4.810   2.952  0.2426 -0.5534  0.1602
15237TIP3    H167202   1.071   4.725   2.912 -0.3009 -0.5463 -0.0884
15237TIP3    H267203   1.001   4.857   2.888 -1.9587 -1.0846  1.4946
15238TIP3   OH267204   4.245   0.073  15.283  0.6277  0.2570 -0.5193
15238TIP3    H167205   4.188   0.149  15.276 -0.1275 -0.4363 -2.7084
15238TIP3    H267206   4.312   0.086  15.215  1.3524 -0.3508  0.0543
15239TIP3   OH267207   5.868   3.236  16.871  0.3087 -0.6612  0.1929
15239TIP3    H167208   5.821   3.319  16.862  2.0984  0.8619  3.0962
15239TIP3    H267209   5.921   3.231  16.792  0.1614  1.0103 -0.0673
15240TIP3   OH267210   0.719   4.009  10.827  0.1946  0.2456 -0.0715
15240TIP3    H167211   0.802   3.964  10.843  0.8724 -0.0880 -3.7174
15240TIP3    H267212   0.742   4.102  10.827  0.0674  0.2942  1.1208
15241TIP3   OH267213   0.078   5.546   2.634  0.0369  0.9901 -0.8939
15241TIP3    H167214   0.009   5.505   2.581  0.2636 -1.7889  0.7908
15241TIP3    H267215   0.031   5.609   2.689 -0.6969  1.3208 -1.8590
15242TIP3   OH267216   4.352   0.720   1.867  0.7218 -0.1775  0.7732
15242TIP3    H167217   4.275   0.663   1.855  0.3684  0.0439  1.8130
15242TIP3    H267218   4.416   0.687   1.805  0.2916 -1.3099  0.8968
15243TIP3   OH267219   5.120   4.572  10.329 -0.2894  0.6262 -0.1965
15243TIP3    H167220   5.148   4.656  10.366 -3.2188  1.9051 -0.5480
15243TIP3    H267221   5.135   4.509  10.399  0.6093  1.7090  0.6345
15244TIP3   OH267222   2.919   2.072  15.535 -0.0742 -0.4185 -0.2045
15244TIP3    H167223   2.928   2.014  15.460 -0.9628  1.3814 -1.8021
15244TIP3    H267224   2.971   2.150  15.512 -1.0465  0.5171  0.6407
15245TIP3   OH267225   4.560   5.013   6.660 -0.0801 -0.4712 -0.2249
15245TIP3    H167226   4.630   4.981   6.603  0.0948 -2.5205  1.0520
15245TIP3    H267227   4.480   4.984   6.618  0.0106 -1.2666  0.1474
15246TIP3   OH267228   1.428   6.837   3.845 -0.1668 -0.0979  0.3234
15246TIP3    H167229   1.512   6.874   3.875  0.5743 -0.3451 -1.3567
15246TIP3    H267230   1.368   6.912   3.843 -0.3488 -0.1009  2.5889
15247TIP3   OH267231   6.472   4.541  15.627 -0.0937 -0.2815  0.5320
15247TIP3    H167232   6.543   4.542  15.563 -0.9309 -1.3635 -0.4667
15247TIP3    H267233   6.497   4.606  15.692  1.9766 -0.8570  0.3880
15248TIP3   OH267234   1.115   6.320  14.102  0.1302 -0.1698 -0.0248
15248TIP3    H167235   1.095   6.249  14.162  0.1535  0.1940  0.4204
15248TIP3    H267236   1.153   6.277  14.025  0.2131 -0.6260  0.2683
15249TIP3   OH267237   2.111   5.044  13.434 -0.0477  0.2413  0.2911
15249TIP3    H167238   2.048   5.112  13.459 -1.3770 -0.9700  0.3774
15249TIP3    H267239   2.080   5.012  13.349  1.1530  0.4392 -0.2321
15250TIP3   OH267240   6.471   6.827   2.645 -0.2382  0.0617  0.5938
15250TIP3    H167241   6.546   6.769   2.658 -0.3309 -0.0317  0.7011
15250TIP3    H267242   6.395   6.777   2.674 -0.5130 -0.3625 -0.7849
15251TIP3   OH267243   6.757   1.326  13.545  0.8935 -0.1343  0.2105
15251TIP3    H167244   6.771   1.380  13.623 -4.0911  0.7298  0.8621
15251TIP3    H267245   6.796   1.376  13.473  1.1754  1.6214  1.5164
15252TIP3   OH267246   1.283   5.364  16.161  0.0296 -0.8918 -0.5632
15252TIP3    H167247   1.298   5.324  16.247  0.6498  1.3231  0.4240
15252TIP3    H267248   1.191   5.389  16.162  0.7277  1.9510  0.8031
15253TIP3   OH267249   0.403   0.695  14.029  0.5325 -0.3181 -0.2866
15253TIP3    H167250   0.491   0.657  14.037  0.2471 -0.6224  1.7364
15253TIP3    H267251   0.371   0.702  14.118 -1.9521 -1.2397 -1.0169
15254TIP3   OH267252   1.568   6.412  13.640 -0.5735 -0.5098 -0.6497
15254TIP3    H167253   1.525   6.391  13.557 -0.1058 -2.8750 -0.3595
15254TIP3    H267254   1.661   6.403  13.622 -0.4798 -3.7498  0.6413
15255TIP3   OH267255   4.372   5.079  15.608 -0.2324  0.1632  0.0168
15255TIP3    H167256   4.312   5.074  15.534  1.2205 -0.8836 -1.1481
15255TIP3    H267257   4.430   5.152  15.587  0.0344  0.0175  0.2412
15256TIP3   OH267258   0.745   3.334   1.850 -0.2436 -0.3617 -0.0941
15256TIP3    H167259   0.802   3.407   1.827 -0.3241 -0.0063  0.8154
15256TIP3    H267260   0.755   3.272   1.777  0.4767  0.1728 -0.4573
15257TIP3   OH267261   2.061   6.502   0.659 -0.0157 -0.3991 -0.1615
15257TIP3    H167262   2.037   6.493   0.566 -0.6053  0.8271 -0.1428
15257TIP3    H267263   1.977   6.507   0.705  0.2791 -0.4132  0.3836
15258TIP3   OH267264   4.973   3.349   1.261  0.2650 -0.1331 -0.1726
15258TIP3    H167265   4.937   3.421   1.210  1.7492  0.3176 -0.6494
15258TIP3    H267266   4.949   3.369   1.351  0.3322  0.7773 -0.3438
15259TIP3   OH267267   4.852   2.790  13.628 -0.6208 -0.3545  0.0139
15259TIP3    H167268   4.832   2.879  13.599 -0.1302 -0.2634 -0.0588
15259TIP3    H267269   4.808   2.782  13.712 -1.0030 -0.1823 -0.1682
15260TIP3   OH267270   2.738   4.910  14.988  0.2796 -0.2685 -0.1590
15260TIP3    H167271   2.763   4.867  14.906  0.9411 -0.8133  0.3173
15260TIP3    H267272   2.798   4.984  14.996 -0.9933  0.9411 -1.0852
15261TIP3   OH267273   6.604   5.807  13.295  0.0932  0.3087  0.8333
15261TIP3    H167274   6.648   5.759  13.225 -0.3234  0.8833  0.1649
15261TIP3    H267275   6.511   5.797  13.277 -0.0038  2.2294  0.0367
15262TIP3   OH267276   1.747   0.845  13.124 -0.4153 -0.4603  0.0688
15262TIP3    H167277   1.729   0.938  13.114 -0.4114 -0.6445 -2.1358
15262TIP3    H267278   1.806   0.823  13.053  0.8849 -1.8614  1.4927
15263TIP3   OH267279   6.557   2.462  14.918  0.0483 -0.6574 -0.0296
15263TIP3    H167280   6.552   2.369  14.939 -1.8362 -0.2066  1.7716
15263TIP3    H267281   6.592   2.503  14.997 -0.1174  0.2893 -0.4302
15264TIP3   OH267282   4.473   0.473  16.917  0.4776  0.4255 -0.1140
15264TIP3    H167283   4.447   0.393  16.964  0.4313  0.6109  0.1802
15264TIP3    H267284   4.424   0.470  16.835  0.7821 -0.0511 -0.2830
15265TIP3   OH267285   4.091   4.180  15.582  0.0967  0.5310  0.1522
15265TIP3    H167286   4.074   4.274  15.578 -0.4316  0.4105 -1.0121
15265TIP3    H267287   4.035   4.148  15.652 -0.1714  1.0051  0.1551
15266TIP3   OH267288   3.333   1.115  12.100 -0.7850 -0.0319 -0.7677
15266TIP3    H167289   3.305   1.207  12.092 -1.7742 -0.0567  1.5638
15266TIP3    H267290   3.276   1.079  12.168  1.4514 -1.5953  0.3808
15267TIP3   OH267291   4.986   5.297  16.464 -0.3355  0.4456 -0.2302
15267TIP3    H167292   4.943   5.221  16.503  1.6752 -0.9514 -0.5847
15267TIP3    H267293   5.046   5.328  16.532 -0.9411  1.5819 -0.1888
15268TIP3   OH267294   2.799   0.819   3.459 -0.6949  0.2353  0.3266
15268TIP3    H167295   2.804   0.794   3.551 -1.3842  0.9555  0.5739
15268TIP3    H267296   2.724   0.879   3.454 -2.0825 -1.4976 -1.0896
15269TIP3   OH267297   4.264   6.606   0.301  0.5451  0.0857 -0.0486
15269TIP3    H167298   4.247   6.626   0.393 -3.3744 -0.7872 -0.4295
15269TIP3    H267299   4.350   6.562   0.302  0.4409 -0.2906  3.2315
15270TIP3   OH267300   5.721   4.689  10.871  0.3253 -0.2695  0.4095
15270TIP3    H167301   5.703   4.669  10.779  0.1303 -0.2234  0.4392
15270TIP3    H267302   5.742   4.604  10.910 -1.7109 -0.6199  0.8244
15271TIP3   OH267303   6.720   4.902   6.148 -0.2864  0.5238  0.1775
15271TIP3    H167304   6.724   4.920   6.055  2.5588  1.8082  0.4486
15271TIP3    H267305   6.690   4.984   6.187  1.4894  1.0256  0.5662
15272TIP3   OH267306   4.347   6.067   2.397 -0.4830  0.0373 -1.1549
15272TIP3    H167307   4.265   6.018   2.396 -0.4224 -0.0806 -3.0486
15272TIP3    H267308   4.324   6.149   2.442 -0.7808 -1.2764  1.3060
15273TIP3   OH267309   1.641   1.320  12.906 -0.1056  1.1677  0.5276
15273TIP3    H167310   1.707   1.364  12.852  0.5356  0.9449  1.1175
15273TIP3    H267311   1.558   1.348  12.869  0.3181  0.6063 -0.9215
15274TIP3   OH267312   1.432   0.789   0.571  0.2572  0.4224  0.1359
15274TIP3    H167313   1.443   0.717   0.509  0.8670 -0.0108  0.7358
15274TIP3    H267314   1.407   0.747   0.653 -0.3682  0.9765  0.2460
15275TIP3   OH267315   4.294   1.925  11.045  0.4539 -0.3356  0.8404
15275TIP3    H167316   4.310   1.942  11.138  2.8059 -2.3149  0.8838
15275TIP3    H267317   4.285   1.830  11.039  0.7798 -0.2872 -1.0138
15276TIP3   OH267318   0.208   4.077  14.407  0.0337 -0.0361  0.4448
15276TIP3    H167319   0.176   4.160  14.371  1.6774  0.3436 -0.2224
15276TIP3    H267320   0.300   4.093  14.426  0.6756 -2.0330 -0.7462
15277TIP3   OH267321   3.650   1.741  15.720 -0.0483  0.3439 -0.7062
15277TIP3    H167322   3.602   1.812  15.676  0.9301  0.7435 -1.1835
15277TIP3    H267323   3.736   1.780  15.739 -0.0895 -0.1729  0.6167
15278TIP3   OH267324   0.829   3.455   4.120 -0.2205 -0.1736  0.6071
15278TIP3    H167325   0.782   3.429   4.199  0.4596  0.1859  1.1518
15278TIP3    H267326   0.840   3.550   4.129 -1.3594  0.1007 -0.6118
15279TIP3   OH267327   1.840   4.521  16.869 -0.1363 -0.3173  0.4949
15279TIP3    H167328   1.891   4.538  16.790 -1.7289 -2.6229 -1.1754
15279TIP3    H267329   1.761   4.574  16.858 -1.3258 -2.1874 -0.6257
15280TIP3   OH267330   1.222   0.379   1.775  0.2634  0.2457  0.1947
15280TIP3    H167331   1.250   0.394   1.684  0.5778  1.9447  0.5290
15280TIP3    H267332   1.272   0.443   1.826 -0.0790 -0.5282  1.5450
15281TIP3   OH267333   0.151   3.984  13.854 -0.1933  0.0074 -0.3145
15281TIP3    H167334   0.064   4.010  13.822 -0.2572 -0.8697 -0.8805
15281TIP3    H267335   0.212   4.036  13.802 -0.3528 -0.0733 -0.5856
15282TIP3   OH267336   0.033   4.892  10.739  0.2719  0.4193  0.2703
15282TIP3    H167337   0.025   4.857  10.828  2.1772  0.5663  0.5498
15282TIP3    H267338   0.086   4.826  10.693 -0.6011  0.4008 -0.7391
15283TIP3   OH267339   2.980   0.582  15.594  0.1123  0.0446  0.0481
15283TIP3    H167340   2.999   0.564  15.501  0.5763  0.6067  0.0336
15283TIP3    H267341   2.972   0.495  15.633 -0.1876 -0.1974 -0.5417
15284TIP3   OH267342   3.361   4.847  12.396 -0.0549 -0.6158  0.0146
15284TIP3    H167343   3.440   4.845  12.342  0.7133 -1.5524  1.1134
15284TIP3    H267344   3.327   4.758  12.394 -0.2312 -0.5785  0.7530
15285TIP3   OH267345   0.256   3.838   3.473  0.5600  0.1299 -0.2835
15285TIP3    H167346   0.331   3.811   3.419  0.7039  0.8653 -0.4619
15285TIP3    H267347   0.293   3.852   3.560  0.1823 -1.8582  0.2469
15286TIP3   OH267348   5.685   6.838   0.642  0.0496  0.3338  0.0069
15286TIP3    H167349   5.678   6.804   0.731 -3.4883  0.5767 -0.0315
15286TIP3    H267350   5.731   6.921   0.651  1.4103 -0.5069  1.2732
15287TIP3   OH267351   2.181   4.869  15.551  0.3412  0.6567 -0.0722
15287TIP3    H167352   2.256   4.865  15.611 -0.2543  0.4813  0.6700
15287TIP3    H267353   2.219   4.896  15.468  1.4528 -0.7830 -0.0748
15288TIP3   OH267354   0.910   2.498   0.942  0.2716 -0.2538  0.5235
15288TIP3    H167355   0.818   2.501   0.971 -0.3131  0.1524 -1.2109
15288TIP3    H267356   0.959   2.539   1.013 -0.9423 -0.1450  1.3363
15289TIP3   OH267357   3.022   4.636   0.078 -0.3503  0.2614  0.8144
15289TIP3    H167358   3.107   4.627   0.035 -1.2525 -4.9111 -0.5146
15289TIP3    H267359   3.041   4.623   0.171  0.6285  3.5845  1.2220
15290TIP3   OH267360   0.159   4.691  10.556 -0.6143  0.0425 -0.3539
15290TIP3    H167361   0.091   4.639  10.513 -0.2123 -0.2239 -0.6807
15290TIP3    H267362   0.225   4.627  10.583  0.7565  0.5136 -2.3600
15291TIP3   OH267363   1.093   2.585  13.070  0.0002  0.1341 -0.9503
15291TIP3    H167364   1.081   2.496  13.037  0.8765  0.0159 -0.9868
15291TIP3    H267365   1.130   2.573  13.158  2.7840  0.4088 -1.9704
15292TIP3   OH267366   5.282   0.890   0.957 -0.0669 -0.0213 -0.2207
15292TIP3    H167367   5.270   0.802   0.993  1.1695 -0.0321  0.2349
15292TIP3    H267368   5.326   0.939   1.027  0.9419  0.4102 -1.1266
15293TIP3   OH267369   2.658   0.993  15.588 -0.1960  0.7090  0.2118
15293TIP3    H167370   2.722   0.923  15.579 -2.3096 -1.4338  0.8948
15293TIP3    H267371   2.686   1.041  15.666 -0.6135 -1.5818  1.8620
15294TIP3   OH267372   3.580   5.400  14.463 -0.3364  0.5990 -0.3592
15294TIP3    H167373   3.501   5.448  14.437 -1.5864 -0.3771  1.4218
15294TIP3    H267374   3.548   5.329  14.519  1.7974  0.0915  0.3146
15295TIP3   OH267375   2.327   0.574   1.690 -0.3676 -0.9325  0.2509
15295TIP3    H167376   2.391   0.503   1.687 -2.1424 -2.6505  0.8153
15295TIP3    H267377   2.295   0.573   1.781  0.0866  1.1093  0.4679
15296TIP3   OH267378   4.318   6.601   2.696  0.3924  0.5622 -0.4292
15296TIP3    H167379   4.359   6.520   2.666  0.8918  0.8254 -0.4511
15296TIP3    H267380   4.227   6.576   2.713  0.5650 -0.0253 -0.3454
15297TIP3   OH267381   2.221   5.165  10.937  0.2107  0.1918  0.0427
15297TIP3    H167382   2.167   5.183  10.860  1.1869 -1.5785 -1.0997
15297TIP3    H267383   2.293   5.228  10.932  1.7925 -1.6306 -2.0997
15298TIP3   OH267384   3.204   4.904  12.035 -0.2970  0.4823 -0.4374
15298TIP3    H167385   3.125   4.939  12.076  0.6709  3.6625 -0.9870
15298TIP3    H267386   3.175   4.870  11.951 -1.3901 -0.5044  0.3146
15299TIP3   OH267387   1.248   1.210  13.001 -0.6671 -0.2968 -0.0664
15299TIP3    H167388   1.186   1.192  13.071 -0.0118  0.1136  0.6279
15299TIP3    H267389   1.220   1.294  12.965 -0.5888 -0.1705  0.1657
15300TIP3   OH267390   0.114   2.371   5.094  0.1090  0.1406  0.2627
15300TIP3    H167391   0.166   2.338   5.020 -1.7016 -1.6474 -0.2882
15300TIP3    H267392   0.164   2.346   5.171  1.3667  0.8396 -0.2882
15301TIP3   OH267393   3.077   0.591  15.091 -0.0028 -0.1023 -0.4615
15301TIP3    H167394   3.038   0.598  15.178  0.5337  0.4086 -0.2613
15301TIP3    H267395   3.070   0.498  15.070  0.6194 -0.3749  0.4797
15302TIP3   OH267396   2.579   1.765   1.732 -0.1933 -0.1494  0.3621
15302TIP3    H167397   2.554   1.672   1.734 -1.1266  0.0770  3.4733
15302TIP3    H267398   2.551   1.800   1.816 -0.1602  3.0966 -0.8365
15303TIP3   OH267399   1.221   6.055  13.401 -0.6582  0.0408 -0.8154
15303TIP3    H167400   1.214   6.089  13.490 -0.6426  0.0150 -0.8047
15303TIP3    H267401   1.160   5.981  13.398  0.3276 -0.8086 -0.4260
15304TIP3   OH267402   5.945   4.203   0.576  0.1859 -0.0922  0.9619
15304TIP3    H167403   5.991   4.243   0.501  1.1165 -0.7463  1.1569
15304TIP3    H267404   6.012   4.148   0.617 -1.1758 -2.2552  0.4027
15305TIP3   OH267405   5.656   0.734   4.158 -0.0527  0.0515 -0.2799
15305TIP3    H167406   5.708   0.655   4.141  0.6440  0.5387 -0.4493
15305TIP3    H267407   5.618   0.756   4.074  0.2080  0.2127 -0.3573
15306TIP3   OH267408   6.419   1.739  13.081 -0.2861  0.1103  0.7967
15306TIP3    H167409   6.394   1.786  13.002  1.4306  0.6408  0.5253
15306TIP3    H267410   6.441   1.651  13.051 -1.6301 -0.3304  1.0229
15307TIP3   OH267411   5.114   4.338  14.880  0.2513 -0.0326 -0.1954
15307TIP3    H167412   5.204   4.316  14.904  0.1435  0.6557  0.9172
15307TIP3    H267413   5.065   4.256  14.894  0.3264  0.1505  1.3574
15308TIP3   OH267414   4.166   0.534   6.051 -0.1422 -0.4562 -0.0012
15308TIP3    H167415   4.197   0.560   5.964 -0.0918  1.3226  0.5167
15308TIP3    H267416   4.095   0.471   6.033 -1.2390  1.0891 -1.4100
15309TIP3   OH267417   2.504   2.933   3.469  0.0146  0.2607 -0.1736
15309TIP3    H167418   2.451   2.939   3.549 -0.3029  1.7270 -0.4711
15309TIP3    H267419   2.476   3.007   3.416 -0.5774 -1.3191 -2.1756
15310TIP3   OH267420   6.692   5.754   4.526  0.1185  0.1086  0.0395
15310TIP3    H167421   6.652   5.841   4.519  0.3839  0.3402  1.2123
15310TIP3    H267422   6.630   5.702   4.576 -0.7186 -0.8377 -1.8916
15311TIP3   OH267423   6.129   3.026   3.534 -0.1782  0.2243  0.5827
15311TIP3    H167424   6.150   3.022   3.627  0.2647 -0.0182  0.4757
15311TIP3    H267425   6.047   3.076   3.530  0.0710  0.6911  1.0609
15312TIP3   OH267426   4.731   5.798   6.196 -0.2792 -0.3347 -0.4067
15312TIP3    H167427   4.796   5.755   6.252 -0.4284 -0.5710 -0.4094
15312TIP3    H267428   4.699   5.871   6.248  3.7768  3.2176 -2.2924
15313TIP3   OH267429   6.210   6.368  12.510  0.0736 -0.5438  0.0683
15313TIP3    H167430   6.180   6.279  12.525  0.2978 -0.2707  2.7871
15313TIP3    H267431   6.274   6.384  12.580  0.0115  1.7567 -0.2948
15314TIP3   OH267432   0.590   5.835   3.641 -0.1293 -0.0460  0.0654
15314TIP3    H167433   0.520   5.896   3.619  0.6027 -0.2683 -3.4569
15314TIP3    H267434   0.661   5.891   3.672  0.4249  1.0040 -2.8145
15315TIP3   OH267435   0.707   6.264  15.554 -0.5188  0.5673  0.2506
15315TIP3    H167436   0.747   6.262  15.641 -0.5068 -1.1367  0.2353
15315TIP3    H267437   0.617   6.235  15.568  0.0758 -1.8748 -0.5485
15316TIP3   OH267438   4.247   5.949  13.492 -0.0031 -0.6965  0.0279
15316TIP3    H167439   4.159   5.957  13.527  0.1769 -1.1339  0.6093
15316TIP3    H267440   4.270   6.037  13.462 -0.6003 -0.5635 -0.0403
15317TIP3   OH267441   2.459   0.629  12.755  0.0688  0.4318  0.4274
15317TIP3    H167442   2.366   0.650  12.756  0.4550  2.4294  2.1620
15317TIP3    H267443   2.484   0.627  12.847  1.7987  0.1986 -0.0161
15318TIP3   OH267444   6.674   3.634   4.992  0.1319 -0.5014  0.5794
15318TIP3    H167445   6.747   3.573   4.995  1.1104  0.4813 -1.2136
15318TIP3    H267446   6.711   3.718   5.020 -0.8844 -0.4341  1.8181
15319TIP3   OH267447   5.318   4.224  12.799 -0.0405 -0.1493  0.1947
15319TIP3    H167448   5.335   4.134  12.826 -1.4242 -0.8603 -1.1557
15319TIP3    H267449   5.278   4.265  12.875  0.8340 -0.5708  0.9031
15320TIP3   OH267450   0.270   2.914  15.839 -0.1210 -0.6128  0.1641
15320TIP3    H167451   0.323   2.892  15.916 -1.7247  0.6082  1.7149
15320TIP3    H267452   0.235   2.830  15.809  1.0909 -1.1920  0.3301
15321TIP3   OH267453   6.035   2.641   6.266  0.1352  0.2133 -0.0550
15321TIP3    H167454   6.126   2.615   6.247  0.1575  0.1055  0.1850
15321TIP3    H267455   5.982   2.569   6.234  0.2769 -0.7989  1.8071
15322TIP3   OH267456   2.614   2.982   1.979 -0.5204  0.3503 -0.8473
15322TIP3    H167457   2.710   2.980   1.969 -0.4744 -0.4370 -0.2676
15322TIP3    H267458   2.595   3.073   2.003  0.2641  0.1260  0.7611
15323TIP3   OH267459   3.249   6.035   5.104  0.2149  0.1015  0.3320
15323TIP3    H167460   3.178   6.076   5.054  0.7476  0.7113  0.0601
15323TIP3    H267461   3.307   5.997   5.038  0.5914  0.3598  0.5080
15324TIP3   OH267462   2.549   0.028   6.171 -0.1936 -0.1259 -0.0838
15324TIP3    H167463   2.457   0.002   6.166 -0.5191  0.9273  0.1805
15324TIP3    H267464   2.597  -0.055   6.177 -1.1028 -0.6941 -0.4470
15325TIP3   OH267465   2.329   2.645  14.790 -0.0077 -0.2129  0.5824
15325TIP3    H167466   2.377   2.639  14.707  0.1530 -2.0848  0.7544
15325TIP3    H267467   2.237   2.642  14.765  0.0348 -2.1472  0.4711
15326TIP3   OH267468   1.316   0.466  13.122  0.4024 -0.0265 -0.3079
15326TIP3    H167469   1.305   0.484  13.029 -0.4729 -0.7912 -0.3631
15326TIP3    H267470   1.393   0.409  13.126  0.6558  0.2961 -0.5208
15327TIP3   OH267471   5.926   2.098   1.392  0.3144 -0.1916  0.3413
15327TIP3    H167472   5.842   2.117   1.351 -0.5459 -3.6990  0.1176
15327TIP3    H267473   5.907   2.096   1.486  0.1087 -0.8753  0.2968
15328TIP3   OH267474   1.426   3.329   3.777  0.3204  0.7656 -0.3826
15328TIP3    H167475   1.491   3.328   3.707 -0.8973  1.4679 -1.5755
15328TIP3    H267476   1.402   3.421   3.785 -0.9881  0.4433 -0.4258
15329TIP3   OH267477   3.948   3.161  13.152  0.2409 -0.7301 -0.2047
15329TIP3    H167478   4.024   3.132  13.102  0.2539 -0.4795 -0.3326
15329TIP3    H267479   3.931   3.250  13.120 -1.4784 -1.5663 -1.8203
15330TIP3   OH267480   4.803   4.220  15.797  0.1409  0.1411 -0.1355
15330TIP3    H167481   4.888   4.234  15.754  0.1554 -1.1469 -0.5801
15330TIP3    H267482   4.804   4.279  15.872  0.3447  2.0676 -1.5859
15331TIP3   OH267483   5.762   3.032  13.942  0.5816  0.4679 -0.4472
15331TIP3    H167484   5.716   2.963  13.895  0.1892  0.4408 -0.0273
15331TIP3    H267485   5.843   2.990  13.972 -0.0641 -0.0804  0.5844
15332TIP3   OH267486   1.535   4.242  12.327 -0.1811 -0.0451 -0.5874
15332TIP3    H167487   1.543   4.336  12.314 -0.3125  0.2610  1.3107
15332TIP3    H267488   1.441   4.224  12.317 -0.3427  0.2561  0.2998
15333TIP3   OH267489   4.100   6.237  12.980 -0.1429  0.2985 -0.7680
15333TIP3    H167490   4.056   6.189  12.910  1.0581 -0.1333 -1.2516
15333TIP3    H267491   4.191   6.246  12.950  0.6660 -0.7467  1.1157
15334TIP3   OH267492   2.299   1.632  12.129 -0.1939 -0.0473 -0.4825
15334TIP3    H167493   2.214   1.639  12.084 -0.0048  1.5681 -0.6708
15334TIP3    H267494   2.280   1.582  12.208 -1.4978  0.8725 -0.1711
15335TIP3   OH267495   3.665   5.028  14.450 -0.3342 -0.3104 -0.0994
15335TIP3    H167496   3.578   5.067  14.457 -1.2291 -1.8365 -1.8191
15335TIP3    H267497   3.657   4.964  14.379  1.4201 -2.5302  1.5198
15336TIP3   OH267498   0.461   4.256   1.312  0.1481 -0.5322 -0.2128
15336TIP3    H167499   0.460   4.178   1.368 -3.6469 -0.6190 -0.1228
15336TIP3    H267500   0.436   4.224   1.225 -0.7136  0.4327 -0.3429
15337TIP3   OH267501   1.075   2.943  16.985  0.2078  0.8344 -0.0238
15337TIP3    H167502   0.999   2.981  16.942  0.1613  1.1837  0.3598
15337TIP3    H267503   1.140   2.932  16.916  0.2374  1.6521 -0.1289
15338TIP3   OH267504   5.734   3.313  15.680 -0.0231  0.1367 -0.0246
15338TIP3    H167505   5.643   3.333  15.703  0.0818  0.2765  0.2713
15338TIP3    H267506   5.727   3.249  15.609 -0.3524 -0.1086  0.2217
15339TIP3   OH267507   1.152   5.515   2.211 -0.0445 -0.1107  0.1195
15339TIP3    H167508   1.136   5.535   2.303 -0.7483  1.0808 -0.2362
15339TIP3    H267509   1.145   5.420   2.205  2.0484 -0.4285  1.6554
15340TIP3   OH267510   6.044   5.430   1.248 -0.7555 -0.3050 -0.0607
15340TIP3    H167511   6.125   5.476   1.224 -0.7372 -1.4354 -2.4600
15340TIP3    H267512   6.070   5.373   1.320  0.9295 -1.4154 -1.4472
15341TIP3   OH267513   1.845   4.013  11.442  0.3932  0.4047  0.4022
15341TIP3    H167514   1.779   4.054  11.497 -0.2587 -0.1055  0.0082
15341TIP3    H267515   1.925   4.014  11.496 -0.4199 -0.8366  1.6986
15342TIP3   OH267516   2.077   3.771   5.233 -0.1264 -0.3547  0.4623
15342TIP3    H167517   2.042   3.745   5.148  1.6438 -0.8261 -0.1519
15342TIP3    H267518   2.058   3.865   5.239 -1.2975 -0.5453  0.0984
15343TIP3   OH267519   4.438   0.945  12.313 -0.4851  0.1177  0.2707
15343TIP3    H167520   4.381   0.946  12.236 -0.3872 -0.5900  0.1848
15343TIP3    H267521   4.423   0.859  12.353 -1.4723  0.9354  1.7534
15344TIP3   OH267522   2.541   5.031   3.420  0.0731  0.5474 -0.6741
15344TIP3    H167523   2.461   5.033   3.472  0.3148  0.5257 -0.2983
15344TIP3    H267524   2.522   4.971   3.348 -0.2962  0.6570 -0.6666
15345TIP3   OH267525   3.508   5.555  12.138  0.2485 -0.6296 -0.8176
15345TIP3    H167526   3.485   5.491  12.070  0.2156  0.2237 -1.6347
15345TIP3    H267527   3.589   5.522  12.176  0.0845 -1.3022 -1.0321
15346TIP3   OH267528   0.133   1.813  14.183 -0.9967  0.2991 -0.1657
15346TIP3    H167529   0.209   1.804  14.240 -0.4910  0.3993 -0.8185
15346TIP3    H267530   0.075   1.742  14.209 -0.8507  0.4381  0.5830
15347TIP3   OH267531   4.789   6.334  15.623 -0.8501 -0.6313 -1.0389
15347TIP3    H167532   4.879   6.316  15.651 -0.3347  0.7480 -1.7400
15347TIP3    H267533   4.794   6.419  15.579 -2.2777 -1.1058 -2.1867
15348TIP3   OH267534   4.398   5.799  12.433  0.6327  0.5525  0.2618
15348TIP3    H167535   4.434   5.834  12.514  0.2789 -0.6756  0.9694
15348TIP3    H267536   4.474   5.763  12.387  0.7589  0.7919  0.2794
15349TIP3   OH267537   5.867   2.384   2.953  0.0656  0.1991  0.1307
15349TIP3    H167538   5.930   2.448   2.987 -0.6097  0.5937  0.6628
15349TIP3    H267539   5.804   2.436   2.904  0.0425 -0.1698 -0.2349
15350TIP3   OH267540   1.776   1.938   4.559  0.3337  0.0097 -0.4496
15350TIP3    H167541   1.793   1.950   4.466  1.6468  0.7410 -0.1465
15350TIP3    H267542   1.859   1.909   4.595 -0.5807 -1.8613  0.2686
15351TIP3   OH267543   3.956   1.740  12.095  0.0432  0.0369 -0.0676
15351TIP3    H167544   3.969   1.703  12.008 -0.8524  1.5378 -0.8866
15351TIP3    H267545   4.044   1.757  12.128  0.4023 -0.9690 -0.4627
15352TIP3   OH267546   5.605   5.693   2.646  0.1071 -0.3044 -0.2064
15352TIP3    H167547   5.541   5.756   2.613  0.1464  0.8038  1.6662
15352TIP3    H267548   5.677   5.697   2.584 -1.4176 -1.3210 -2.1825
15353TIP3   OH267549   0.642   5.884   0.966  0.0852 -0.4265 -0.5561
15353TIP3    H167550   0.640   5.795   1.002  4.0501  0.0672  1.4083
15353TIP3    H267551   0.638   5.871   0.871 -0.3004 -2.6073 -0.3042
15354TIP3   OH267552   5.539   0.838  12.332  0.1363  0.2306  0.2186
15354TIP3    H167553   5.455   0.800  12.360  0.2323 -0.7659 -0.7896
15354TIP3    H267554   5.593   0.762  12.308  0.8979  0.9226 -0.3126
15355TIP3   OH267555   1.855   1.567  15.492  0.2081  0.9040 -0.1554
15355TIP3    H167556   1.761   1.554  15.507  0.2379 -1.7641 -1.7607
15355TIP3    H267557   1.867   1.553  15.398  2.4685 -0.9695  0.3100
15356TIP3   OH267558   0.500   0.975   6.173  0.1048  0.2491  0.1492
15356TIP3    H167559   0.555   1.032   6.120  0.0211 -0.2499 -0.5035
15356TIP3    H267560   0.488   1.021   6.255  0.2993  1.0177 -0.2474
15357TIP3   OH267561   3.167   0.132   5.659 -0.0774 -0.4612  0.2520
15357TIP3    H167562   3.155   0.037   5.666 -2.5041 -0.0704  3.5116
15357TIP3    H267563   3.243   0.151   5.715  1.5196 -0.5123 -1.7453
15358TIP3   OH267564   2.551   2.491   3.997  0.4236  0.1732 -0.0758
15358TIP3    H167565   2.619   2.451   4.051  1.2400 -1.1043 -1.9479
15358TIP3    H267566   2.577   2.583   3.990  2.8467 -0.5494 -1.9129
15359TIP3   OH267567   2.663   1.833  16.768 -0.0996  0.0320 -0.2556
15359TIP3    H167568   2.650   1.747  16.807  0.6261  0.7025  1.5782
15359TIP3    H267569   2.580   1.879  16.783  0.0887  0.2005  0.3017
15360TIP3   OH267570   3.613   5.631  13.547  0.8595  0.1776 -0.1758
15360TIP3    H167571   3.579   5.552  13.505  0.3211 -0.0784  0.7365
15360TIP3    H267572   3.627   5.606  13.638  1.2379  0.9722 -0.0082
15361TIP3   OH267573   5.782   4.431  14.330 -0.1484 -0.1216 -0.2191
15361TIP3    H167574   5.787   4.427  14.425  0.4874 -2.0331 -0.2768
15361TIP3    H267575   5.874   4.437  14.302 -0.3464  0.7378 -0.7128
15362TIP3   OH267576   3.586   4.341  14.425  0.1896 -0.2970  0.3489
15362TIP3    H167577   3.576   4.376  14.336 -2.3956 -0.6279  0.4356
15362TIP3    H267578   3.534   4.400  14.480 -0.4728 -1.6298  1.2013
15363TIP3   OH267579   3.224   0.135   2.032 -0.2702 -0.8918  0.6409
15363TIP3    H167580   3.198   0.184   1.954  2.0333 -0.8211 -0.1463
15363TIP3    H267581   3.141   0.113   2.075 -1.5071  1.3649 -0.3879
15364TIP3   OH267582   2.563   0.036   4.542 -0.9566  0.5871 -0.4995
15364TIP3    H167583   2.581   0.084   4.623 -0.5947  1.5109 -1.1179
15364TIP3    H267584   2.577  -0.056   4.566 -0.4856  0.8777  0.3887
15365TIP3   OH267585   5.776   1.212   3.453 -0.0616  0.2155  0.2494
15365TIP3    H167586   5.697   1.163   3.478  1.7013 -1.3832  3.1580
15365TIP3    H267587   5.841   1.144   3.434  0.6875  1.4989 -2.2164
15366TIP3   OH267588   1.473   0.372  12.313  0.2004  0.6957  0.1592
15366TIP3    H167589   1.527   0.294  12.298 -0.2517  0.6705 -1.5091
15366TIP3    H267590   1.519   0.442  12.266 -0.0682  1.1535  0.5757
15367TIP3   OH267591   1.287   2.222   1.048  0.3990  0.3276  0.1060
15367TIP3    H167592   1.253   2.225   1.137  2.0785 -1.8080  0.9222
15367TIP3    H267593   1.258   2.137   1.014  0.4192  0.7914 -1.1054
15368TIP3   OH267594   1.324   1.961  13.939 -0.1926  0.1800  0.0064
15368TIP3    H167595   1.275   1.902  13.881 -1.1167 -1.5342  2.3670
15368TIP3    H267596   1.257   2.002  13.993  0.6412  1.7992 -0.1193
15369TIP3   OH267597   0.625   0.885  11.008 -0.1220  0.2273 -0.7849
15369TIP3    H167598   0.705   0.937  11.020 -0.2885  0.0993  1.2332
15369TIP3    H267599   0.580   0.928  10.935  1.4547  0.7062 -1.5226
15370TIP3   OH267600   3.953   0.969   1.856  0.1107  0.0179  0.3449
15370TIP3    H167601   4.006   0.969   1.936  1.5254 -2.2256 -0.5035
15370TIP3    H267602   3.877   0.915   1.878 -1.1616  1.9562  1.0616
15371TIP3   OH267603   4.948   3.774   5.891  0.4377 -0.1854  0.0863
15371TIP3    H167604   4.875   3.721   5.858  1.2947 -1.3208 -0.0447
15371TIP3    H267605   5.025   3.741   5.844  0.9080  1.6655 -0.5046
15372TIP3   OH267606   1.909   2.680   1.805  0.0111 -0.0417 -0.0209
15372TIP3    H167607   1.910   2.776   1.798  0.4745  0.1205  1.9119
15372TIP3    H267608   1.818   2.659   1.826  0.3609  0.2024  1.8791
15373TIP3   OH267609   5.089   0.706   0.228 -0.8261 -0.3784 -0.1279
15373TIP3    H167610   5.166   0.753   0.195 -0.5581  0.3072  1.3965
15373TIP3    H267611   5.100   0.617   0.195 -0.1370  0.0594 -1.1435
15374TIP3   OH267612   1.705   5.885   2.426  0.5568  0.0461 -0.2864
15374TIP3    H167613   1.694   5.938   2.505 -0.4622 -1.0395  0.3300
15374TIP3    H267614   1.671   5.940   2.355  0.2117  0.4970  0.2198
15375TIP3   OH267615   0.975   2.992   2.255  0.2764  0.7100  0.3363
15375TIP3    H167616   0.988   2.974   2.348  1.7298  2.0456  0.4312
15375TIP3    H267617   1.058   2.967   2.214 -0.1460  0.6716 -0.5065
15376TIP3   OH267618   0.486   0.375   0.354 -0.1090  0.0637 -0.0596
15376TIP3    H167619   0.555   0.315   0.381 -0.3730 -0.4944 -0.5977
15376TIP3    H267620   0.482   0.364   0.259 -0.1144  0.9861 -0.1749
15377TIP3   OH267621   5.751   1.173   2.940  0.1428  0.3022 -0.0039
15377TIP3    H167622   5.778   1.215   3.022 -1.4643 -1.9428  1.8223
15377TIP3    H267623   5.658   1.195   2.932  0.2403  0.3308 -1.1378
15378TIP3   OH267624   4.575   1.728   0.043 -0.4083  0.5146 -0.3640
15378TIP3    H167625   4.661   1.731   0.001  0.8162 -0.5126  1.9319
15378TIP3    H267626   4.555   1.820   0.063  0.6483  0.6771  0.0040
15379TIP3   OH267627   1.094   4.002   0.900  0.2267 -0.2223 -0.2155
15379TIP3    H167628   1.007   3.962   0.905  0.0495  0.0786 -0.7395
15379TIP3    H267629   1.154   3.928   0.898 -0.0725 -0.4620 -0.6814
15380TIP3   OH267630   5.808   4.044  10.770  0.0903 -0.0039 -0.0211
15380TIP3    H167631   5.786   4.104  10.698 -1.5910 -2.3172 -1.5702
15380TIP3    H267632   5.900   4.023  10.756 -0.0239  0.1433 -1.0885
15381TIP3   OH267633   2.765   1.870   5.904 -0.0389  0.8160  0.2521
15381TIP3    H167634   2.802   1.828   5.826 -1.6042  0.6150 -0.4146
15381TIP3    H267635   2.842   1.892   5.957  1.2283  2.3348 -2.0118
15382TIP3   OH267636   3.716   1.944   4.872  0.7615 -0.0555 -0.2998
15382TIP3    H167637   3.723   1.934   4.777 -1.1542 -3.4416 -0.2500
15382TIP3    H267638   3.768   1.872   4.907 -0.5838 -0.4053  1.0995
15383TIP3   OH267639   5.050   4.713   6.170 -0.1760  0.0774  0.3293
15383TIP3    H167640   5.134   4.722   6.217 -0.1212 -1.0449  0.4655
15383TIP3    H267641   4.985   4.744   6.233  0.2000  1.9261 -0.1354
15384TIP3   OH267642   0.354   5.712  11.392 -0.1350  0.0132  0.0091
15384TIP3    H167643   0.294   5.715  11.317  1.4871  0.4607 -1.3459
15384TIP3    H267644   0.435   5.751  11.359  0.8526 -0.3917  1.8222
15385TIP3   OH267645   5.821   0.261   6.108  0.3279  0.1482  0.0534
15385TIP3    H167646   5.904   0.303   6.130  1.1188 -0.1849 -2.0407
15385TIP3    H267647   5.810   0.276   6.014 -1.9045  0.0065  0.2190
15386TIP3   OH267648   0.785   1.802  13.656 -0.1117  0.6634  0.2505
15386TIP3    H167649   0.816   1.869  13.717  1.2264  0.1495  0.1867
15386TIP3    H267650   0.781   1.847  13.572  0.9360  0.6467  0.1761
15387TIP3   OH267651   4.606   3.125  13.957  0.2636 -0.0901  0.3512
15387TIP3    H167652   4.567   3.147  13.872 -1.3454  0.5985  1.2252
15387TIP3    H267653   4.571   3.038  13.977  0.7943 -0.3342  0.2445
15388TIP3   OH267654   2.531   3.943   2.282 -0.2870  0.5912  0.8668
15388TIP3    H167655   2.475   3.949   2.360 -1.1888 -0.5534  0.3369
15388TIP3    H267656   2.489   3.876   2.228  1.7999 -0.5465  0.5896
15389TIP3   OH267657   2.563   0.053  13.605  0.0429  0.0195 -0.8631
15389TIP3    H167658   2.577  -0.002  13.682  0.7568  0.1397 -0.8990
15389TIP3    H267659   2.597   0.139  13.630 -0.3519  0.2403 -1.0785
15390TIP3   OH267660   5.440   3.245   2.933  0.9233 -0.0201  0.0423
15390TIP3    H167661   5.520   3.248   2.985  2.0976  3.1413 -1.6202
15390TIP3    H267662   5.369   3.253   2.996  2.1592  1.0336  1.3609
15391TIP3   OH267663   1.883   6.075  15.921 -0.7900 -0.7242 -0.0395
15391TIP3    H167664   1.885   6.067  15.826 -1.0922  0.1679 -0.1251
15391TIP3    H267665   1.948   6.142  15.941 -0.7612 -0.8752  0.3856
15392TIP3   OH267666   6.536   6.416  11.866  0.2346  0.8228  0.2838
15392TIP3    H167667   6.522   6.385  11.955 -0.9113  3.2047  1.0027
15392TIP3    H267668   6.552   6.336  11.815  0.7812 -0.6035  2.5561
15393TIP3   OH267669   5.326   4.927  10.773 -0.9747 -0.5044  0.2540
15393TIP3    H167670   5.266   4.942  10.700 -1.5518 -0.6061  0.6968
15393TIP3    H267671   5.399   4.879  10.735  0.2992  2.2243 -0.9395
15394TIP3   OH267672   6.413   3.134   2.970  0.6548  0.0858 -0.0672
15394TIP3    H167673   6.454   3.216   2.998  0.6324 -0.5402  1.9929
15394TIP3    H267674   6.486   3.073   2.962  0.4574 -0.2973  0.8471
15395TIP3   OH267675   2.730   0.350   0.402  0.5706 -0.1215  0.6219
15395TIP3    H167676   2.758   0.380   0.488 -0.1978 -0.7314  1.0951
15395TIP3    H267677   2.763   0.417   0.341  0.3743  0.7705  1.4734
15396TIP3   OH267678   4.775   4.748   0.493  0.1213  0.4704 -0.0724
15396TIP3    H167679   4.691   4.764   0.451  0.1332 -0.0853 -0.3151
15396TIP3    H267680   4.784   4.819   0.556 -0.5794  0.4747  0.0314
15397TIP3   OH267681   1.964   2.271  16.763  0.7063 -0.0698 -0.0424
15397TIP3    H167682   1.897   2.316  16.711  0.3499  1.1565  1.4058
15397TIP3    H267683   2.038   2.259  16.703  0.0215  0.5737 -1.0378
15398TIP3   OH267684   6.064   5.142  14.493 -0.1634  0.2003 -0.5206
15398TIP3    H167685   6.073   5.123  14.587  0.1415 -0.8174 -0.7475
15398TIP3    H267686   5.970   5.155  14.481 -0.3475 -0.7859 -0.2670
15399TIP3   OH267687   2.672   2.575   2.246  0.0595  0.4861  0.4047
15399TIP3    H167688   2.752   2.534   2.277  0.9917  0.2437 -2.0857
15399TIP3    H267689   2.602   2.524   2.287  1.1060  1.0095  3.0062
15400TIP3   OH267690   4.184   1.306  14.310  0.3335  0.2949 -0.2605
15400TIP3    H167691   4.094   1.312  14.343 -0.2598  1.3413 -1.9707
15400TIP3    H267692   4.218   1.226  14.350 -0.9006  0.5512  1.4432
15401TIP3   OH267693   3.916   1.852  15.742 -0.4178  0.0277 -0.3857
15401TIP3    H167694   3.993   1.820  15.788 -0.6151 -0.5292 -0.4333
15401TIP3    H267695   3.946   1.929  15.695 -0.0934  0.3107  0.2667
15402TIP3   OH267696   1.492   4.783   2.099 -0.1386 -0.2758 -0.1618
15402TIP3    H167697   1.532   4.697   2.112  2.8056  0.5021 -2.9256
15402TIP3    H267698   1.503   4.827   2.183 -0.7379 -2.1879  0.9807
15403TIP3   OH267699   3.267   1.600   0.451  0.0401 -0.9628  0.2347
15403TIP3    H167700   3.227   1.555   0.377 -0.7045 -0.3963  0.2778
15403TIP3    H267701   3.357   1.567   0.454  0.7405  0.4474 -2.1844
15404TIP3   OH267702   6.486   6.490  16.177 -0.0992 -0.6863 -0.5997
15404TIP3    H167703   6.408   6.481  16.122 -1.8949 -1.5710  1.9254
15404TIP3    H267704   6.502   6.584  16.179 -1.2953 -0.4516 -0.9146
15405TIP3   OH267705   2.032   3.684   1.384  0.7362  0.1039 -0.4767
15405TIP3    H167706   2.062   3.689   1.294 -0.3314  0.3858 -0.8271
15405TIP3    H267707   2.073   3.604   1.419  2.9063  1.1098 -0.5215
15406TIP3   OH267708   1.112   4.811  14.038 -0.5345  0.3210  0.0393
15406TIP3    H167709   1.025   4.778  14.061  0.2121 -3.1589 -1.4785
15406TIP3    H267710   1.100   4.853  13.953 -0.7364 -0.2203 -0.2029
15407TIP3   OH267711   6.308   6.412  15.009  0.0311  0.0993  0.3377
15407TIP3    H167712   6.285   6.320  15.005  0.3298 -0.1148  2.2468
15407TIP3    H267713   6.230   6.454  15.046  0.7721  0.1736  1.9034
15408TIP3   OH267714   0.295   2.915  16.471 -0.1992 -0.2619 -0.2418
15408TIP3    H167715   0.335   3.001  16.459  2.3453 -1.5461 -1.9460
15408TIP3    H267716   0.251   2.920  16.555  2.3498  1.8120  1.1050
15409TIP3   OH267717   4.833   0.175  14.360 -0.2056 -0.1064  0.7530
15409TIP3    H167718   4.756   0.141  14.313 -0.1162  0.1282  0.4365
15409TIP3    H267719   4.801   0.254  14.403 -0.0069  0.3044  0.1655
15410TIP3   OH267720   2.735   1.056   0.182 -0.9700  0.2873 -0.8470
15410TIP3    H167721   2.719   1.050   0.088 -0.9760  2.6165 -1.0433
15410TIP3    H267722   2.650   1.040   0.222 -0.6417 -2.4960 -1.0761
15411TIP3   OH267723   6.442   2.945   1.459  0.2202 -0.0335  0.3279
15411TIP3    H167724   6.409   3.017   1.406 -0.1804 -1.4474 -1.4646
15411TIP3    H267725   6.364   2.906   1.498  0.2830 -0.2907  0.2036
15412TIP3   OH267726   0.949   6.410   2.727 -0.2877  0.2555 -0.7017
15412TIP3    H167727   0.983   6.358   2.800 -1.2337 -0.6174 -0.8502
15412TIP3    H267728   1.004   6.488   2.725  0.1250  0.0232  0.5814
15413TIP3   OH267729   6.810   3.401   3.257  0.3483 -0.5061 -0.9320
15413TIP3    H167730   6.795   3.470   3.192  2.1985  0.7749 -0.0902
15413TIP3    H267731   6.738   3.411   3.320 -0.0880 -0.1508 -1.4807
15414TIP3   OH267732   2.993   1.708  13.524 -0.3710 -0.2333 -0.2697
15414TIP3    H167733   3.026   1.619  13.538  0.0075 -0.3920 -1.8772
15414TIP3    H267734   3.062   1.751  13.474 -1.2011  0.4649 -0.8468
15415TIP3   OH267735   6.671   4.628  13.028 -0.2105 -0.1325  0.1725
15415TIP3    H167736   6.645   4.567  13.097  0.8758 -0.8262 -0.0144
15415TIP3    H267737   6.764   4.611  13.015 -0.6687 -0.9904 -2.4495
15416TIP3   OH267738   3.364   6.740  15.773  0.3866  0.3281  0.5913
15416TIP3    H167739   3.380   6.818  15.827  0.1671  0.2560  0.7597
15416TIP3    H267740   3.353   6.669  15.835  0.3159  0.2098  0.4450
15417TIP3   OH267741   4.542   5.872  15.275  0.5572 -0.3538  0.1250
15417TIP3    H167742   4.528   5.957  15.233 -0.6591 -0.1350  0.9330
15417TIP3    H267743   4.474   5.816  15.238  1.0037 -0.8353  0.0209
15418TIP3   OH267744   0.859   2.771   2.671  0.3240 -0.2700 -0.4318
15418TIP3    H167745   0.928   2.801   2.612  0.3118 -1.6657 -1.1840
15418TIP3    H267746   0.842   2.681   2.645 -0.4769 -0.5587  0.9739
15419TIP3   OH267747   3.261   1.933  14.765 -0.0849 -0.6275 -0.2049
15419TIP3    H167748   3.312   1.866  14.720  0.5790 -0.4014  0.1848
15419TIP3    H267749   3.327   1.988  14.808 -0.4654  1.6970 -2.4179
15420TIP3   OH267750   3.259   0.814  12.487 -0.1497 -0.1526  0.1853
15420TIP3    H167751   3.254   0.721  12.510 -1.2429 -0.3809 -0.8728
15420TIP3    H267752   3.342   0.844  12.525  0.2509 -1.5723  0.4849
15421TIP3   OH267753   4.607   5.374  13.500 -0.1961 -0.1269 -0.3826
15421TIP3    H167754   4.591   5.419  13.417 -1.2521  0.0835 -0.0840
15421TIP3    H267755   4.520   5.345  13.528  0.0898  0.1956  0.8725
15422TIP3   OH267756   5.289   3.521   0.517  0.3740  0.3315  0.2889
15422TIP3    H167757   5.267   3.587   0.451 -1.2145 -1.8369 -1.5419
15422TIP3    H267758   5.299   3.440   0.466  1.1956 -1.0571  2.5288
15423TIP3   OH267759   0.293   5.339   0.770 -0.2908  0.4801  0.1301
15423TIP3    H167760   0.225   5.382   0.718 -0.2949 -0.0805 -0.3310
15423TIP3    H267761   0.373   5.347   0.718 -0.1505  0.5030  0.3441
15424TIP3   OH267762   2.065   6.252  15.376 -0.2994 -0.6204  0.7021
15424TIP3    H167763   2.077   6.321  15.310  2.1523 -0.5071  1.1943
15424TIP3    H267764   2.059   6.300  15.459  2.1004 -0.9455  1.1261
15425TIP3   OH267765   5.650   6.422   1.316  0.2281 -0.2266  0.2227
15425TIP3    H167766   5.739   6.395   1.294  0.1176  0.0588 -0.6133
15425TIP3    H267767   5.594   6.364   1.264 -0.0463  0.3632 -0.1471
15426TIP3   OH267768   0.209   1.036  13.588  0.2200 -0.4961  0.3742
15426TIP3    H167769   0.206   1.123  13.548  0.9465 -0.6265  0.0131
15426TIP3    H267770   0.302   1.014  13.589  0.0393 -1.2708  0.4639
15427TIP3   OH267771   4.522   5.002   1.156  0.7403  0.2894  0.2782
15427TIP3    H167772   4.446   5.059   1.144 -0.5508 -1.1227  1.5090
15427TIP3    H267773   4.595   5.063   1.168 -0.7544  1.7810  2.6151
15428TIP3   OH267774   4.509   6.129  15.155  0.4112  0.0517  0.1249
15428TIP3    H167775   4.456   6.192  15.106  1.1344  1.2157  0.7925
15428TIP3    H267776   4.486   6.144  15.247 -0.7757 -1.9636  0.2154
15429TIP3   OH267777   3.925   5.221  13.144 -0.1303  0.1186 -0.2683
15429TIP3    H167778   3.879   5.150  13.099 -1.3345  0.9452 -0.3918
15429TIP3    H267779   3.857   5.266  13.194  0.6995  0.8889  0.1973
15430TIP3   OH267780   4.784   4.631   0.901  0.3061 -0.4844  0.0930
15430TIP3    H167781   4.807   4.695   0.968 -0.9550 -1.3150  1.3734
15430TIP3    H267782   4.868   4.595   0.872  0.9613  1.0029  0.0782
15431TIP3   OH267783   5.322   2.795  11.565 -0.1207  0.3654  0.1431
15431TIP3    H167784   5.335   2.886  11.541  1.0968  0.6942  1.8456
15431TIP3    H267785   5.409   2.756  11.561 -0.7459 -1.0066 -1.4673
15432TIP3   OH267786   2.680   4.513  10.972  0.5380 -0.4076 -0.4016
15432TIP3    H167787   2.652   4.424  10.951 -0.9298 -0.1301  0.2354
15432TIP3    H267788   2.612   4.569  10.933 -0.2434  0.2767  1.7909
15433TIP3   OH267789   0.074   0.865   5.187  0.2595 -0.5092  0.1657
15433TIP3    H167790   0.001   0.804   5.185 -0.0385 -0.1530 -0.1290
15433TIP3    H267791   0.035   0.950   5.165  0.8300 -0.3889 -0.4228
15434TIP3   OH267792   1.778   3.990   5.401 -0.0277  0.3346  0.5942
15434TIP3    H167793   1.827   4.023   5.326  1.0811 -0.6371  0.8632
15434TIP3    H267794   1.764   4.067   5.457  0.6716  0.7331  0.2300
15435TIP3   OH267795   3.107   6.761   0.132  0.3824 -0.1672  0.2299
15435TIP3    H167796   3.119   6.782   0.225 -0.3491 -1.8764  0.7429
15435TIP3    H267797   3.084   6.668   0.131 -1.8716  0.3231 -1.4773
15436TIP3   OH267798   6.713   3.750   3.852  0.2244 -0.1097 -0.1263
15436TIP3    H167799   6.774   3.767   3.924 -0.6560  1.2209  0.3398
15436TIP3    H267800   6.673   3.836   3.833 -0.7203 -0.7418 -1.1365
15437TIP3   OH267801   5.456   0.228   2.335  0.0386  0.3551  0.1376
15437TIP3    H167802   5.379   0.212   2.390  0.2459  2.0769  0.9748
15437TIP3    H267803   5.423   0.278   2.261  0.2341  0.5320  0.1672
15438TIP3   OH267804   4.735   1.292   6.182 -0.1473  0.2724 -0.4331
15438TIP3    H167805   4.692   1.276   6.098 -1.2866  0.8045  0.0249
15438TIP3    H267806   4.680   1.358   6.225  0.7897  0.5088  0.4469
15439TIP3   OH267807   1.369   2.005  13.647  0.0810 -0.0780  0.1108
15439TIP3    H167808   1.435   2.002  13.578 -1.8433 -1.5889 -1.8011
15439TIP3    H267809   1.382   1.923  13.695 -0.0177 -0.0762  0.1398
15440TIP3   OH267810   4.071   3.186   2.196 -0.4843 -0.0222  0.2038
15440TIP3    H167811   4.092   3.255   2.132  1.4040 -0.4667  0.2866
15440TIP3    H267812   4.075   3.105   2.145 -0.5605 -0.2445  0.5506
15441TIP3   OH267813   2.322   0.425   3.853 -0.1829 -0.3139  0.2135
15441TIP3    H167814   2.237   0.396   3.821  0.2855 -1.3252 -0.1674
15441TIP3    H267815   2.326   0.393   3.943  0.4875 -1.8414 -0.3262
15442TIP3   OH267816   0.792   6.180  14.900  0.1364 -0.3670 -0.4760
15442TIP3    H167817   0.752   6.158  14.983  0.5556  0.9476  0.0999
15442TIP3    H267818   0.845   6.103  14.878  0.3919 -0.5438  0.7025
15443TIP3   OH267819   2.051   5.746  12.125 -0.2915 -0.6869 -0.1119
15443TIP3    H167820   2.134   5.701  12.109  0.3203 -0.3032  1.7110
15443TIP3    H267821   1.986   5.695  12.077  0.7942 -1.7901 -0.4656
15444TIP3   OH267822   2.406   4.302  15.515  0.5527  0.5248  0.5519
15444TIP3    H167823   2.452   4.246  15.452  1.8555  0.2121  1.7146
15444TIP3    H267824   2.351   4.241  15.565  0.5375  0.5716  0.5916
15445TIP3   OH267825   2.316   3.910   2.731 -0.4768 -0.4168  0.0704
15445TIP3    H167826   2.241   3.852   2.739  0.1511 -1.6290 -2.0519
15445TIP3    H267827   2.319   3.933   2.638  0.6219  1.2292  0.4548
15446TIP3   OH267828   6.242   1.278   0.587 -0.3971 -0.0351 -0.1281
15446TIP3    H167829   6.158   1.232   0.590 -0.5029  0.1412 -0.3967
15446TIP3    H267830   6.225   1.356   0.535 -0.0302 -0.0712 -0.3017
15447TIP3   OH267831   5.109   6.357   2.179 -0.1496  0.2126  0.0589
15447TIP3    H167832   5.156   6.288   2.133  0.5265  0.1635  0.7937
15447TIP3    H267833   5.114   6.433   2.120  2.6828  0.8376  0.9297
15448TIP3   OH267834   5.500   4.653   5.977 -0.4155 -0.2391  0.4260
15448TIP3    H167835   5.554   4.575   5.962 -1.2676 -0.6022 -0.9302
15448TIP3    H267836   5.414   4.618   6.002 -1.1480  0.1956 -1.3504
15449TIP3   OH267837   6.694   6.526   0.981 -0.1178  0.3027  0.1474
15449TIP3    H167838   6.616   6.542   1.034 -0.8178  3.5996 -1.6062
15449TIP3    H267839   6.660   6.488   0.899  0.1992  0.7775 -0.2138
15450TIP3   OH267840   4.072   2.088   0.906 -0.2116  0.6008 -0.6089
15450TIP3    H167841   4.039   2.085   0.996  0.3269 -0.7545 -0.4376
15450TIP3    H267842   4.008   2.142   0.859 -0.2478  1.7233  0.6772
15451TIP3   OH267843   0.463   3.226   1.979 -0.2441  0.2158 -0.4674
15451TIP3    H167844   0.432   3.198   2.065 -1.9445 -2.3253 -1.7842
15451TIP3    H267845   0.555   3.199   1.977 -0.5015 -0.7591  0.1567
15452TIP3   OH267846   1.244   2.968  15.026 -0.0601 -0.0319  0.5380
15452TIP3    H167847   1.269   3.004  15.111 -0.1221  0.1711  0.4709
15452TIP3    H267848   1.235   2.874  15.041 -0.3788  0.0455  0.8302
15453TIP3   OH267849   3.508   2.400   4.606  0.2923  0.2020  0.4352
15453TIP3    H167850   3.499   2.453   4.685  2.3531  1.7880 -0.3011
15453TIP3    H267851   3.560   2.324   4.633  1.7567  1.1777  0.4848
15454TIP3   OH267852   2.943   1.814  16.228 -0.0228  0.5294  0.0959
15454TIP3    H167853   2.976   1.759  16.157  0.1467  2.0503 -1.0542
15454TIP3    H267854   3.021   1.844  16.274 -0.1518 -0.8406  1.2723
15455TIP3   OH267855   2.385   0.497   0.202 -0.1302 -0.5194  0.2378
15455TIP3    H167856   2.431   0.448   0.135 -1.5465 -1.9279  0.2312
15455TIP3    H267857   2.335   0.430   0.251  0.8736  0.4169  2.7290
15456TIP3   OH267858   6.098   4.712   3.442 -0.6388  0.1002  0.4585
15456TIP3    H167859   6.150   4.646   3.487  0.6115  0.8194  0.1135
15456TIP3    H267860   6.095   4.786   3.502 -0.2098  0.5167 -0.0230
15457TIP3   OH267861   3.418   4.052  17.020  0.3366  0.6292 -0.5216
15457TIP3    H167862   3.457   4.007  17.096 -0.5871  0.9543  0.1704
15457TIP3    H267863   3.337   4.003  17.003  1.4527 -0.6506 -2.5587
15458TIP3   OH267864   4.478   0.065  13.585 -0.2393  0.5039  0.2841
15458TIP3    H167865   4.512   0.135  13.529  0.7840 -0.0632  0.1722
15458TIP3    H267866   4.454  -0.005  13.525  0.1178  0.2003  0.4848
15459TIP3   OH267867   5.313   0.128   4.335  0.2900  0.0177  0.3607
15459TIP3    H167868   5.404   0.138   4.364  0.4184 -0.9420  0.3282
15459TIP3    H267869   5.314   0.050   4.279 -0.3209  0.7203 -0.6661
15460TIP3   OH267870   4.895   4.793  16.845 -0.2730 -0.2444  0.2035
15460TIP3    H167871   4.842   4.782  16.766  1.2069  2.1417 -1.2880
15460TIP3    H267872   4.876   4.883  16.874  2.3294  0.4626 -0.0101
15461TIP3   OH267873   1.827   0.835  15.500  0.4744  0.1546  0.2368
15461TIP3    H167874   1.741   0.819  15.460  0.5995  1.3551 -0.5451
15461TIP3    H267875   1.866   0.748  15.508  0.0175 -0.2212 -1.3219
15462TIP3   OH267876   3.167   0.298  10.730 -0.6104  0.3433  0.1592
15462TIP3    H167877   3.108   0.254  10.668  0.9266  0.2011 -1.2546
15462TIP3    H267878   3.138   0.390  10.730 -3.2302 -0.3293  2.4196
15463TIP3   OH267879   2.259   1.594  14.805  0.7657  0.0883  0.1749
15463TIP3    H167880   2.315   1.656  14.852 -0.5888  0.8757  0.8087
15463TIP3    H267881   2.170   1.623  14.824  0.1338 -0.9789 -1.0145
15464TIP3   OH267882   6.344   1.038   0.668 -0.0174 -0.5440 -0.1949
15464TIP3    H167883   6.309   0.966   0.616 -1.6335  0.4647 -0.6068
15464TIP3    H267884   6.315   1.117   0.621  3.0588  0.4174 -0.6629
15465TIP3   OH267885   2.784   0.304  16.903 -0.4784 -0.1032  0.9145
15465TIP3    H167886   2.768   0.278  16.813  0.1155  0.4194  0.6501
15465TIP3    H267887   2.745   0.235  16.956 -0.2863 -0.7309  0.2475
15466TIP3   OH267888   5.245   0.210  13.017 -0.0108 -0.2354 -0.1082
15466TIP3    H167889   5.293   0.272  13.071  0.5453 -0.9190  0.1965
15466TIP3    H267890   5.179   0.173  13.076  0.6180 -1.0066  0.1378
15467TIP3   OH267891   4.488   4.275   0.061  0.1960 -0.1893 -0.5369
15467TIP3    H167892   4.487   4.248   0.153  0.9068 -0.3619 -0.5745
15467TIP3    H267893   4.446   4.203   0.015  0.2508 -0.3098 -0.3999
15468TIP3   OH267894   6.408   3.269   2.443  0.9005  0.0636 -0.0546
15468TIP3    H167895   6.426   3.309   2.528 -0.4590  0.1321  0.2115
15468TIP3    H267896   6.445   3.181   2.450 -0.1178 -0.2962  0.9905
15469TIP3   OH267897   4.431   0.980  16.051 -0.2644  0.9935 -0.6247
15469TIP3    H167898   4.428   0.885  16.060 -0.6728  1.1242  0.9269
15469TIP3    H267899   4.501   1.007  16.110 -1.1490  1.7570  0.1052
15470TIP3   OH267900   3.738   5.047  11.860 -0.6275 -0.5493  0.3875
15470TIP3    H167901   3.788   4.987  11.916 -1.4233 -0.4823  1.1963
15470TIP3    H267902   3.799   5.072  11.791  0.4886 -0.4088  1.3931
15471TIP3   OH267903   5.047   0.167  11.090 -0.1116  0.2032  0.2839
15471TIP3    H167904   5.075   0.257  11.075 -0.7631  0.2813 -0.5850
15471TIP3    H267905   5.058   0.153  11.184  2.3633  0.3745  0.0954
15472TIP3   OH267906   5.041   3.700   5.512  0.4745 -0.6223  0.0729
15472TIP3    H167907   5.060   3.794   5.516  1.2374 -0.7423 -0.3499
15472TIP3    H267908   5.127   3.659   5.502  0.1168 -1.3392 -0.1576
15473TIP3   OH267909   0.332   0.120   5.648  0.0943  0.0105  0.2961
15473TIP3    H167910   0.333   0.212   5.672  1.7342  0.4754 -1.2773
15473TIP3    H267911   0.281   0.117   5.567  0.0435 -0.4662  0.3402
15474TIP3   OH267912   5.344   1.203  12.961  0.0905 -0.1199 -0.6577
15474TIP3    H167913   5.363   1.167  12.874 -0.3355  0.7220 -1.1129
15474TIP3    H267914   5.272   1.150  12.994 -1.9095  1.4956 -2.1693
15475TIP3   OH267915   5.002   1.802   5.763  0.3542 -0.0642 -0.0192
15475TIP3    H167916   5.087   1.797   5.807  0.8938 -3.0075 -1.1568
15475TIP3    H267917   4.950   1.733   5.803 -0.3356 -0.4845 -1.5568
15476TIP3   OH267918   0.135   5.797   5.314  0.0955 -0.0449  0.1395
15476TIP3    H167919   0.104   5.831   5.230 -2.2761 -0.0992  0.9023
15476TIP3    H267920   0.180   5.716   5.292 -0.6077 -0.1263 -1.0887
15477TIP3   OH267921   0.124   3.987   5.174  0.3462 -0.0009  0.0191
15477TIP3    H167922   0.179   3.909   5.177 -2.2922 -1.9908  0.1825
15477TIP3    H267923   0.152   4.033   5.095  1.8413 -1.1776 -0.1845
15478TIP3   OH267924   2.136   0.418   4.830 -0.8791 -0.2324 -0.3944
15478TIP3    H167925   2.153   0.395   4.921  1.3296 -1.8013 -1.1264
15478TIP3    H267926   2.042   0.433   4.826 -1.0805 -0.4490  2.0539
15479TIP3   OH267927   2.509   4.135   0.220  0.8191  0.1032  0.4022
15479TIP3    H167928   2.486   4.213   0.169  1.2508  0.0587  0.1358
15479TIP3    H267929   2.596   4.110   0.188  0.9696 -0.0959  0.9578
15480TIP3   OH267930   2.672   3.337   5.921  0.0805  0.2837  0.3418
15480TIP3    H167931   2.628   3.351   6.005 -0.5345 -0.6666  0.1870
15480TIP3    H267932   2.655   3.417   5.872 -0.7316  0.2895  0.6165
15481TIP3   OH267933   5.347   0.034   5.435 -0.2800 -0.3538  0.5093
15481TIP3    H167934   5.370   0.025   5.527  0.2310 -0.5823  0.3616
15481TIP3    H267935   5.396   0.110   5.405 -1.6215  0.6725  0.7927
15482TIP3   OH267936   2.677   4.936  16.718 -0.4537  0.6537  0.6788
15482TIP3    H167937   2.721   4.971  16.640  0.9715 -0.4473  0.9311
15482TIP3    H267938   2.621   4.866  16.685 -1.0426  1.2200  0.4806
15483TIP3   OH267939   5.012   2.867   0.150  0.0770 -0.5187  0.1268
15483TIP3    H167940   5.018   2.957   0.183  0.7861 -0.5854  0.1983
15483TIP3    H267941   4.986   2.816   0.227  0.3087 -0.4671  0.2399
15484TIP3   OH267942   5.439   1.277   3.190 -0.2040  0.1331  0.2206
15484TIP3    H167943   5.349   1.259   3.215 -0.6677 -0.3279 -1.6124
15484TIP3    H267944   5.487   1.197   3.213 -0.4283  0.0580  0.4291
15485TIP3   OH267945   3.759   1.039  16.653 -0.2925  0.3607 -0.0933
15485TIP3    H167946   3.768   1.032  16.748 -1.0947 -0.8048 -0.0790
15485TIP3    H267947   3.681   0.987  16.633 -0.0090  0.4170 -1.4083
15486TIP3   OH267948   0.890   2.951  14.172  0.3225  0.0103 -0.3825
15486TIP3    H167949   0.826   3.003  14.123  1.9207  2.1701 -0.3324
15486TIP3    H267950   0.901   2.871  14.120  1.2525  1.7868 -3.1446
15487TIP3   OH267951   2.705   5.473   4.261  0.4820  0.0580  0.1823
15487TIP3    H167952   2.650   5.450   4.336  0.7255 -0.7645  0.1184
15487TIP3    H267953   2.762   5.397   4.249  1.2438  0.6609 -0.1057
15488TIP3   OH267954   5.058   1.005  11.760 -0.0551  0.2571  0.2506
15488TIP3    H167955   5.027   0.946  11.692 -1.1190  0.5064  0.5078
15488TIP3    H267956   5.113   1.069  11.714 -2.4126  1.6771 -0.7551
15489TIP3   OH267957   4.927   3.612   3.723  0.0903 -0.1211  0.3807
15489TIP3    H167958   4.934   3.653   3.637 -0.1275  1.2206  0.9798
15489TIP3    H267959   5.009   3.634   3.767  0.5431 -1.4628  0.2769
15490TIP3   OH267960   6.160   5.312   1.478 -0.0280  0.3970 -0.4985
15490TIP3    H167961   6.253   5.297   1.461  0.2684  1.0646  0.4157
15490TIP3    H267962   6.158   5.396   1.524 -0.9623 -0.1427  0.4873
15491TIP3   OH267963   2.291   3.956   0.255 -0.2851  0.3287 -0.0931
15491TIP3    H167964   2.356   4.025   0.249  0.4276 -0.2358  0.8130
15491TIP3    H267965   2.289   3.916   0.169  1.5500 -0.4975  0.2120
15492TIP3   OH267966   1.448   0.197   4.865  0.1455 -0.0359 -0.4030
15492TIP3    H167967   1.397   0.268   4.826 -0.5598  0.2108  0.8930
15492TIP3    H267968   1.425   0.120   4.813 -0.3042  0.3917 -0.8518
15493TIP3   OH267969   5.730   1.808   0.897  0.1908 -0.3444 -0.5754
15493TIP3    H167970   5.644   1.847   0.915  0.2041 -0.6821  0.2900
15493TIP3    H267971   5.789   1.853   0.958  0.8654  0.6928 -1.9279
15494TIP3   OH267972   5.273   0.761  11.678 -0.1529  0.0216  0.5686
15494TIP3    H167973   5.363   0.783  11.702  0.1683 -0.6281 -0.0099
15494TIP3    H267974   5.232   0.735  11.760  0.5421 -0.8717  0.6502
15495TIP3   OH267975   2.127   5.860  17.034 -0.0593  0.1745 -0.1870
15495TIP3    H167976   2.068   5.901  17.098 -1.0973 -1.7413  0.1544
15495TIP3    H267977   2.210   5.906  17.045 -1.4986  3.2652 -0.9415
15496TIP3   OH267978   3.171   2.386   0.419  0.1670  0.7693 -0.3563
15496TIP3    H167979   3.142   2.325   0.351  0.6200  0.6973 -0.4871
15496TIP3    H267980   3.169   2.335   0.499 -0.0171  0.7504 -0.3720
15497TIP3   OH267981   6.585   6.693   5.083  0.1326 -0.3353  0.0556
15497TIP3    H167982   6.635   6.725   5.158 -1.7727 -1.6516  2.0240
15497TIP3    H267983   6.593   6.597   5.089 -1.2663 -0.5087 -0.4985
15498TIP3   OH267984   4.581   0.609   5.388 -0.0506  0.3535 -0.5573
15498TIP3    H167985   4.505   0.606   5.447  1.4278 -0.4401  1.4056
15498TIP3    H267986   4.614   0.520   5.386  0.0781  0.4073 -2.4845
15499TIP3   OH267987   1.802   1.355  11.650  0.4517  0.4013 -0.4608
15499TIP3    H167988   1.767   1.358  11.739  1.2066  1.7441 -0.1793
15499TIP3    H267989   1.764   1.433  11.608 -0.0498 -0.3224 -1.3897
15500TIP3   OH267990   3.114   1.605   5.597  0.1862  0.4538  0.2000
15500TIP3    H167991   3.158   1.690   5.601 -0.8471  1.0593 -0.7461
15500TIP3    H267992   3.033   1.618   5.646 -0.4081  0.3000 -0.7207
15501TIP3   OH267993   4.586   2.479  11.537  0.2128  0.7201 -0.2401
15501TIP3    H167994   4.503   2.491  11.582 -0.5157  0.6847 -1.5514
15501TIP3    H267995   4.575   2.522  11.452  0.8376 -0.9502 -1.2234
15502TIP3   OH267996   0.110   3.922   0.437 -0.9665 -0.0595 -0.3756
15502TIP3    H167997   0.145   3.835   0.455 -1.1567 -0.2134 -0.7405
15502TIP3    H267998   0.151   3.948   0.355 -1.9250 -0.3618 -0.9538
15503TIP3   OH267999   2.267   6.778   6.131 -0.3929 -0.0614 -0.1752
15503TIP3    H168000   2.230   6.698   6.168 -0.0553 -0.1719 -0.0752
15503TIP3    H268001   2.257   6.768   6.037 -2.2237  0.6844 -0.0973
15504TIP3   OH268002   2.425   2.121   1.381  0.4474 -0.2277 -0.1213
15504TIP3    H168003   2.469   2.179   1.443 -2.4071 -0.6388  2.5219
15504TIP3    H268004   2.421   2.037   1.426 -2.2747 -0.3781 -0.4851
15505TIP3   OH268005   4.427   6.264  14.299 -0.1321 -0.1762 -1.1413
15505TIP3    H168006   4.498   6.290  14.357  0.5683 -1.0940 -1.5619
15505TIP3    H268007   4.465   6.265  14.211 -1.5289  2.4833 -1.8118
15506TIP3   OH268008   5.987   6.530   3.334 -0.1815 -0.2082 -0.1860
15506TIP3    H168009   6.064   6.497   3.380  0.5673  1.6133 -0.0303
15506TIP3    H268010   6.012   6.525   3.241  0.3618  0.7919 -0.1204
15507TIP3   OH268011   5.205   5.897  16.030  0.8436  0.0164 -0.3277
15507TIP3    H168012   5.269   5.908  16.101  0.6627  0.5633 -0.2395
15507TIP3    H268013   5.190   5.986  15.998  0.4659 -0.1595 -0.6487
15508TIP3   OH268014   5.105   5.619  11.963  0.2931  0.3203 -0.1708
15508TIP3    H168015   5.116   5.715  11.960  0.6632  0.2654 -0.6865
15508TIP3    H268016   5.124   5.590  11.874 -3.6032  0.1349 -1.1034
15509TIP3   OH268017   1.397   4.537   4.084  0.3592  0.4066 -0.2374
15509TIP3    H168018   1.413   4.442   4.083 -1.2347  0.1055 -0.0878
15509TIP3    H268019   1.479   4.575   4.054  0.9222 -1.0392 -0.6438
15510TIP3   OH268020   1.686   5.530  12.618  0.3262  0.1577  0.0144
15510TIP3    H168021   1.714   5.575  12.539 -0.0887 -1.3014 -1.0035
15510TIP3    H268022   1.764   5.484  12.649  0.2148 -0.1739 -0.1911
15511TIP3   OH268023   5.698   1.347   3.935  0.4210 -0.3127  0.7962
15511TIP3    H168024   5.784   1.331   3.975  0.3677 -1.9954  0.3462
15511TIP3    H268025   5.717   1.354   3.842  0.1315 -0.1826  0.7493
15512TIP3   OH268026   6.846   6.056   2.899  0.1312  0.0694  0.0911
15512TIP3    H168027   6.751   6.053   2.906 -0.1137  2.9038 -0.7005
15512TIP3    H268028   6.877   6.036   2.987 -1.2483  0.5614  0.7168
15513TIP3   OH268029   4.616   1.650  16.325  0.2572 -0.0092 -0.7026
15513TIP3    H168030   4.538   1.597  16.341 -0.1731  0.4905 -1.1118
15513TIP3    H268031   4.590   1.710  16.255  1.2374 -0.3391 -1.3642
15514TIP3   OH268032   5.056   2.348  14.329 -0.8170  0.7519  0.1687
15514TIP3    H168033   5.056   2.400  14.248 -0.2655  1.4780  0.6200
15514TIP3    H268034   5.042   2.258  14.300 -3.1471  1.2664 -0.5393
15515TIP3   OH268035   1.928   2.855   3.727 -0.2895 -0.0293 -0.4135
15515TIP3    H168036   1.878   2.802   3.665  1.2067 -1.3983 -0.5157
15515TIP3    H268037   2.000   2.892   3.675  1.0718 -1.3224  0.4926
15516TIP3   OH268038   1.149   0.083  11.743 -0.1454 -0.2315 -0.0885
15516TIP3    H168039   1.213   0.050  11.679  0.1758 -0.3579  0.2952
15516TIP3    H268040   1.066   0.043  11.716  0.1969 -1.2052  0.2435
15517TIP3   OH268041   6.590   6.721   6.085  0.3851 -0.3247 -0.1848
15517TIP3    H168042   6.520   6.718   6.150  0.5026 -1.4319 -0.0777
15517TIP3    H268043   6.607   6.814   6.071 -1.5645 -0.0036 -0.7267
15518TIP3   OH268044   0.168   6.659   5.179 -0.2454 -0.2671 -0.0428
15518TIP3    H168045   0.123   6.729   5.224  0.3277 -0.8219  1.4553
15518TIP3    H268046   0.240   6.702   5.133  0.3549  0.1135  1.2016
15519TIP3   OH268047   1.079   4.564  14.583 -0.1432 -0.2602 -0.0915
15519TIP3    H168048   1.146   4.500  14.557  2.4186  1.8707  0.8656
15519TIP3    H268049   1.071   4.621  14.507 -0.8113 -0.4373 -0.1551
15520TIP3   OH268050   4.898   2.034  13.638  0.1293 -0.5481 -0.4058
15520TIP3    H168051   4.903   2.129  13.646  1.2028 -0.3015 -2.9164
15520TIP3    H268052   4.886   2.019  13.544  1.8104 -2.9227 -0.3328
15521TIP3   OH268053   2.232   3.423  16.703  0.4574 -0.6434  0.5754
15521TIP3    H168054   2.159   3.368  16.733  0.5073 -0.5878  0.7985
15521TIP3    H268055   2.196   3.512  16.703  0.5053 -0.6243  0.6221
15522TIP3   OH268056   0.261   0.678   0.531  0.2459  0.0521 -0.2684
15522TIP3    H168057   0.242   0.695   0.624  2.8291 -0.6437  0.4661
15522TIP3    H268058   0.355   0.663   0.528  0.3065  0.4673 -3.1165
15523TIP3   OH268059   4.269   0.971   4.293  0.1601  0.4882  0.5173
15523TIP3    H168060   4.190   0.933   4.331 -0.7657  1.5985 -0.2445
15523TIP3    H268061   4.297   0.908   4.227 -0.1667  0.1620  0.6844
15524TIP3   OH268062   3.934   1.540  11.838  0.8394  0.2855  0.7130
15524TIP3    H168063   3.898   1.472  11.895  1.4609 -3.2780 -2.7196
15524TIP3    H268064   3.872   1.545  11.765  2.0685  1.6744 -0.2899
15525TIP3   OH268065   6.040   4.677  12.611 -0.5036  0.2733  0.2863
15525TIP3    H168066   6.075   4.643  12.693 -0.5444  1.5952  0.8851
15525TIP3    H268067   6.075   4.766  12.605 -1.6990  0.7250 -0.3889
15526TIP3   OH268068   3.846   1.309   6.116  0.3073  0.3790 -0.0055
15526TIP3    H168069   3.757   1.289   6.143  0.3203 -1.1877 -1.0086
15526TIP3    H268070   3.852   1.278   6.025  2.2975 -1.0686  0.5222
15527TIP3   OH268071   4.511   4.555  14.007  0.0307 -0.8005  0.4564
15527TIP3    H168072   4.599   4.591  14.020  0.2660 -0.2089 -2.2775
15527TIP3    H268073   4.463   4.579  14.086  2.0691 -0.4153  1.6464
15528TIP3   OH268074   4.159   4.842  16.907 -0.2047 -0.1893  0.1445
15528TIP3    H168075   4.098   4.769  16.918  0.8086 -0.8784  1.5717
15528TIP3    H268076   4.186   4.837  16.816 -0.6422 -1.2044  0.0509
15529TIP3   OH268077   1.346   1.546   5.278  0.4305 -0.2956  0.5117
15529TIP3    H168078   1.277   1.601   5.315  0.0771 -0.1489 -0.3388
15529TIP3    H268079   1.306   1.506   5.200  1.8095  1.1631 -1.0395
15530TIP3   OH268080   6.575   0.838  15.172 -0.3869 -0.2820  0.1498
15530TIP3    H168081   6.578   0.785  15.252  0.1249 -0.2277  0.1699
15530TIP3    H268082   6.484   0.866  15.166 -1.0494 -2.4248 -0.6855
15531TIP3   OH268083   3.863   3.684   3.128 -0.3699  0.4193  0.0619
15531TIP3    H168084   3.857   3.607   3.184 -1.2082  0.2697 -0.2198
15531TIP3    H268085   3.787   3.678   3.070  0.1786  0.8648 -0.7202
15532TIP3   OH268086   3.464   6.219  16.767  0.0507  0.2586 -0.3934
15532TIP3    H168087   3.453   6.290  16.703  2.6409  0.6245 -0.5535
15532TIP3    H268088   3.559   6.208  16.774 -0.2258 -1.4865  1.5518
15533TIP3   OH268089   2.344   6.326  10.650  0.3274  0.3394  0.0986
15533TIP3    H168090   2.426   6.341  10.604  0.6951 -0.5756  0.4237
15533TIP3    H268091   2.276   6.336  10.583  0.8382 -0.6966 -0.6088
15534TIP3   OH268092   3.496   1.055   2.759  0.2006 -0.4097 -0.3924
15534TIP3    H168093   3.552   1.119   2.714  1.7102 -0.0060  1.8925
15534TIP3    H268094   3.438   1.109   2.813 -0.9922 -0.9151 -1.1208
15535TIP3   OH268095   3.680   5.152  16.899  0.3082 -0.4568 -0.1451
15535TIP3    H168096   3.761   5.102  16.915  0.1410 -0.3308  1.2827
15535TIP3    H268097   3.618   5.087  16.867  1.2773 -0.3430 -2.3922
15536TIP3   OH268098   6.094   3.516   2.703 -0.6028  0.1048 -0.1161
15536TIP3    H168099   6.171   3.509   2.759 -1.0401 -1.7174  0.3060
15536TIP3    H268100   6.127   3.557   2.623  0.6697 -0.0470  0.3052
15537TIP3   OH268101   0.687   6.359   3.805  0.0481 -0.0053  0.1880
15537TIP3    H168102   0.627   6.416   3.854  1.9503  0.0201  2.7212
15537TIP3    H268103   0.749   6.328   3.871  2.7545 -0.1241 -2.2023
15538TIP3   OH268104   3.527   0.291   3.030 -0.2125  0.0759  0.0343
15538TIP3    H168105   3.598   0.309   3.092 -0.8949  0.9141  0.5886
15538TIP3    H268106   3.451   0.338   3.065 -0.2055  2.0152 -2.3038
15539TIP3   OH268107   2.656   3.512  16.668  0.1001  0.3072 -0.1825
15539TIP3    H168108   2.641   3.435  16.723  0.3368  0.7641  0.5389
15539TIP3    H268109   2.682   3.476  16.584 -0.8669 -0.4156 -0.1865
15540TIP3   OH268110   1.127   3.210   1.900  0.0534 -0.0794  0.3228
15540TIP3    H168111   1.103   3.301   1.918 -0.5041 -0.2904  0.6964
15540TIP3    H268112   1.223   3.209   1.901  0.2008  1.1289 -2.8941
15541TIP3   OH268113   6.828   3.048  12.003 -0.3889  0.5831 -0.4012
15541TIP3    H168114   6.918   3.036  11.972 -0.2940 -2.3095  0.6767
15541TIP3    H268115   6.776   2.994  11.944 -1.1521  0.6907  0.1697
15542TIP3   OH268116   0.164   4.804  10.062 -0.0695  0.7868 -0.2353
15542TIP3    H168117   0.243   4.820  10.113 -2.2915  1.3538  3.3896
15542TIP3    H268118   0.138   4.714  10.085  0.4668 -0.1754 -2.9827
15543TIP3   OH268119   4.128   5.741   5.334 -0.2033  0.0034  0.0835
15543TIP3    H168120   4.214   5.706   5.309 -0.5962 -0.8230 -0.1332
15543TIP3    H268121   4.142   5.836   5.338  0.1969  0.0873 -2.0951
15544TIP3   OH268122   4.416   1.720   4.135  0.1056 -0.1385  0.1547
15544TIP3    H168123   4.419   1.705   4.229  1.9125 -0.7753  0.0211
15544TIP3    H268124   4.506   1.736   4.110 -0.4095  0.4978 -1.4125
15545TIP3   OH268125   1.927   1.420  14.148 -0.3344  0.3148 -0.2222
15545TIP3    H168126   1.913   1.405  14.242 -1.2971  0.9290 -0.2545
15545TIP3    H268127   1.840   1.417  14.110 -0.0092  0.6590 -1.0144
15546TIP3   OH268128   5.312   6.578  11.740 -0.1758  0.3161 -0.0212
15546TIP3    H168129   5.306   6.654  11.682  1.6724  0.4745 -0.0620
15546TIP3    H268130   5.252   6.514  11.702  1.6680  0.0378 -2.7923
15547TIP3   OH268131   0.491   6.080  16.264  0.6454 -0.1251  0.0995
15547TIP3    H168132   0.435   6.126  16.327 -0.6002  0.6253 -1.4778
15547TIP3    H268133   0.455   6.103  16.178  2.2931 -1.0853 -0.9163
15548TIP3   OH268134   5.324   6.005  14.283  0.3095  0.6449 -0.0752
15548TIP3    H168135   5.346   6.095  14.307  0.7431  0.5434 -0.0782
15548TIP3    H268136   5.228   6.004  14.277  0.3045  1.1076 -0.0922
15549TIP3   OH268137   3.884   6.234   3.213  0.4507 -0.7450 -0.1853
15549TIP3    H168138   3.930   6.196   3.288 -0.5399 -4.7430 -1.3465
15549TIP3    H268139   3.804   6.272   3.250  1.0858 -0.5145  1.0012
15550TIP3   OH268140   2.477   4.744   3.791 -0.2223  0.6405  0.6279
15550TIP3    H168141   2.382   4.743   3.806 -0.3356 -2.2017  0.3533
15550TIP3    H268142   2.487   4.717   3.699  0.8550 -0.6661  1.1002
15551TIP3   OH268143   1.964   2.829  10.471 -0.3282 -0.1782  0.4408
15551TIP3    H168144   1.981   2.911  10.517  1.3495 -1.2645  1.9007
15551TIP3    H268145   1.913   2.854  10.393  1.5429  2.4468 -0.0452
15552TIP3   OH268146   5.710   1.128   4.108 -0.0531 -0.0393 -0.0465
15552TIP3    H168147   5.623   1.103   4.137 -1.0043  1.1970 -1.6115
15552TIP3    H268148   5.726   1.213   4.150 -0.6323  0.8368 -1.4895
15553TIP3   OH268149   2.728   5.900  15.502  0.0896 -0.3416 -0.3193
15553TIP3    H168150   2.672   5.844  15.556  1.1956 -0.5356  0.6581
15553TIP3    H268151   2.775   5.840  15.445  0.6187 -0.3369  0.1081
15554TIP3   OH268152   0.225   2.179  16.064  0.4401  0.4214  0.1820
15554TIP3    H168153   0.216   2.086  16.040 -1.6700  0.3437  0.9963
15554TIP3    H268154   0.135   2.207  16.081  1.0571  2.6019  0.0914
15555TIP3   OH268155   4.277   5.888   0.308 -0.3233  0.0402  0.2012
15555TIP3    H168156   4.250   5.927   0.392 -0.8080 -0.2316  0.1770
15555TIP3    H268157   4.218   5.928   0.244  0.1384  0.3528 -0.0341
15556TIP3   OH268158   6.450   5.066   5.210 -0.3789 -0.1097  0.1329
15556TIP3    H168159   6.485   5.060   5.121 -4.1343 -3.2135 -1.4453
15556TIP3    H268160   6.356   5.079   5.197 -0.7191  3.3182  3.8792
15557TIP3   OH268161   3.724   0.625  10.448  0.3336  0.1960 -0.5929
15557TIP3    H168162   3.754   0.536  10.434 -0.5614  0.0047 -1.4438
15557TIP3    H268163   3.665   0.620  10.523  0.5285  0.1353 -0.4440
15558TIP3   OH268164   4.867   4.809   5.509 -0.2610  0.4418 -0.3055
15558TIP3    H168165   4.877   4.850   5.423  2.4654 -1.5949 -1.0653
15558TIP3    H268166   4.956   4.801   5.543 -1.0516 -1.0897  1.6022
15559TIP3   OH268167   0.089   1.048  16.952 -0.6429  0.5920  0.1408
15559TIP3    H168168   0.123   1.035  16.864  0.2977  0.5016  0.5067
15559TIP3    H268169   0.156   1.100  16.997 -1.0429  0.5264  0.8347
15560TIP3   OH268170   6.660   6.030  10.834  0.1305  0.0648 -0.2875
15560TIP3    H168171   6.642   6.120  10.860  1.8181  0.5697 -0.7488
15560TIP3    H268172   6.577   5.985  10.847 -0.5284  1.4798  0.7809
15561TIP3   OH268173   6.593   1.288   2.127  0.4306 -0.1845  0.1938
15561TIP3    H168174   6.616   1.281   2.219 -1.3055  1.7553  0.8554
15561TIP3    H268175   6.643   1.218   2.084  0.7898 -1.5545  2.6613
15562TIP3   OH268176   2.569   6.477  11.571 -0.2225  0.2937 -0.0893
15562TIP3    H168177   2.500   6.439  11.517 -0.4366 -3.0201  2.2241
15562TIP3    H268178   2.523   6.516  11.645  0.2352  1.8408 -0.5869
15563TIP3   OH268179   1.261   2.765   0.478  0.3129 -0.0929 -0.0942
15563TIP3    H168180   1.208   2.808   0.411  1.3362  0.2461 -0.6986
15563TIP3    H268181   1.204   2.696   0.512 -0.5651  0.3416 -0.6369
15564TIP3   OH268182   1.973   6.415  11.343  0.3709  0.1773 -0.2626
15564TIP3    H168183   2.013   6.496  11.311 -1.0636  0.2208 -2.1162
15564TIP3    H268184   1.927   6.441  11.422  0.9705  0.8959 -0.1324
15565TIP3   OH268185   0.581   1.330  16.352 -0.1041  0.4466 -0.0037
15565TIP3    H168186   0.652   1.391  16.330 -0.2459  1.2491  1.6515
15565TIP3    H268187   0.578   1.270  16.277  0.1013  2.3814 -1.6637
15566TIP3   OH268188   3.570   0.683   5.770 -0.1751  0.1918  0.0384
15566TIP3    H168189   3.536   0.605   5.727  0.4140  0.4012 -0.8677
15566TIP3    H268190   3.555   0.669   5.863 -0.8361 -0.6192 -0.1797
15567TIP3   OH268191   4.166   2.072   2.115  0.2386 -0.1425  0.4972
15567TIP3    H168192   4.224   2.004   2.149 -1.5632 -2.0324  0.0178
15567TIP3    H268193   4.199   2.153   2.153  3.0330 -1.1298  0.3632
15568TIP3   OH268194   3.308   2.474   5.669 -0.5375 -0.3179  0.4966
15568TIP3    H168195   3.329   2.408   5.735 -1.3853 -1.2000 -0.0787
15568TIP3    H268196   3.324   2.431   5.586 -3.1200 -0.5868  0.0514
15569TIP3   OH268197   0.205   3.503   4.114  0.2094 -0.3896 -0.3608
15569TIP3    H168198   0.301   3.502   4.118  0.1982  0.4935  0.3819
15569TIP3    H268199   0.185   3.568   4.046  0.1281  0.4968  0.4985
15570TIP3   OH268200   6.638   4.571   3.527  0.6730 -0.1411  0.3975
15570TIP3    H168201   6.568   4.535   3.581  0.2811 -0.3398 -0.2241
15570TIP3    H268202   6.623   4.533   3.440  0.6002  1.0367 -0.1382
15571TIP3   OH268203   2.663   3.080   2.424 -0.0271 -0.2594 -0.0230
15571TIP3    H168204   2.740   3.058   2.476  0.7353  0.0372 -1.0118
15571TIP3    H268205   2.651   3.174   2.438 -0.1398 -0.2820  0.0341
15572TIP3   OH268206   4.915   5.919   2.944  0.2984  0.4382  0.0185
15572TIP3    H168207   5.009   5.917   2.929  0.3891  1.5151  0.3745
15572TIP3    H268208   4.881   5.978   2.877  0.0364  1.0282  0.6637
15573TIP3   OH268209   3.608   0.514  14.633  0.1410  0.1173 -0.1100
15573TIP3    H168210   3.628   0.608  14.623  0.6720 -0.0613 -0.8319
15573TIP3    H268211   3.635   0.475  14.550  0.5954 -0.7974  0.4523
15574TIP3   OH268212   3.705   5.951   3.394 -0.3472 -0.2581 -0.1299
15574TIP3    H168213   3.725   5.881   3.332  0.5769 -0.3576  0.2701
15574TIP3    H268214   3.788   5.970   3.437 -0.2151  2.1085 -1.2580
15575TIP3   OH268215   2.826   0.807  15.482  0.3650 -0.0377 -0.1465
15575TIP3    H168216   2.868   0.732  15.524 -1.3207 -0.8544  0.1280
15575TIP3    H268217   2.897   0.848  15.432  1.4716 -1.4022  0.2305
15576TIP3   OH268218   3.880   5.768   3.266 -0.5485 -0.0836 -0.7777
15576TIP3    H168219   3.847   5.816   3.190  0.4365  0.1278 -1.0872
15576TIP3    H268220   3.914   5.687   3.229  0.9598  0.5003 -0.7386
15577TIP3   OH268221   3.614   6.069  14.270  0.0963  0.1676  0.6556
15577TIP3    H168222   3.629   6.082  14.364  0.2491 -1.1075  0.8259
15577TIP3    H268223   3.518   6.061  14.262  0.1396 -0.5898  0.8343
15578TIP3   OH268224   3.354   0.155  12.131 -0.3836  0.5286 -0.1501
15578TIP3    H168225   3.310   0.148  12.046 -0.5957 -2.1212  0.1038
15578TIP3    H268226   3.441   0.188  12.110 -1.1233  2.0014 -1.1073
15579TIP3   OH268227   0.332   4.396   3.042  0.3435  0.1961 -0.4211
15579TIP3    H168228   0.273   4.447   2.986  0.9522  0.8396 -0.4916
15579TIP3    H268229   0.403   4.369   2.983  0.3961 -0.1128 -0.2175
15580TIP3   OH268230   5.314   0.588   5.291  0.5288 -0.3846  0.3951
15580TIP3    H168231   5.342   0.657   5.231 -1.4928  1.1046  1.0350
15580TIP3    H268232   5.289   0.634   5.371 -0.1010 -1.9568  1.1477
15581TIP3   OH268233   3.218   3.423   6.523  0.0081  0.1459 -0.1651
15581TIP3    H168234   3.201   3.477   6.445 -0.1723 -0.5380 -0.6060
15581TIP3    H268235   3.189   3.336   6.498  0.5821 -0.2214  0.4402
15582TIP3   OH268236   6.257   4.255  16.081  0.2083 -0.8281 -0.1529
15582TIP3    H168237   6.205   4.276  16.158  0.4081 -1.6174  0.2135
15582TIP3    H268238   6.320   4.326  16.074 -0.6470 -0.0745 -0.3607
15583TIP3   OH268239   5.562   4.974  13.328 -0.1782  0.2903  0.1033
15583TIP3    H168240   5.609   4.893  13.311  0.5505  0.4899  1.0756
15583TIP3    H268241   5.629   5.035  13.359 -1.0011  0.7104  1.1164
15584TIP3   OH268242   4.393   6.353   2.578 -0.1871 -0.9503 -0.0376
15584TIP3    H168243   4.485   6.356   2.549  0.0635 -0.4286  0.7807
15584TIP3    H268244   4.390   6.280   2.640  0.4456  0.9250  2.3668
15585TIP3   OH268245   6.284   5.582   2.059  0.0341 -0.1085  0.3997
15585TIP3    H168246   6.256   5.622   2.141  1.4780 -0.1410  0.9400
15585TIP3    H268247   6.317   5.655   2.006  1.9765 -0.4236  1.0941
15586TIP3   OH268248   6.092   3.539  13.646  0.3169  0.6199  0.0901
15586TIP3    H168249   6.075   3.445  13.643  1.2187  0.4680 -1.1212
15586TIP3    H268250   6.026   3.577  13.587 -0.1122  0.7716  0.6566
15587TIP3   OH268251   3.126   3.181   2.709  0.6507  0.5800  0.4364
15587TIP3    H168252   3.073   3.259   2.726 -1.4632 -0.5646 -0.4851
15587TIP3    H268253   3.138   3.180   2.614  3.7192  1.5927  0.7090
15588TIP3   OH268254   6.224   6.093   2.786 -0.1420  0.4254 -0.0514
15588TIP3    H168255   6.165   6.065   2.716 -1.9974  1.7979  0.8839
15588TIP3    H268256   6.265   6.012   2.815 -0.9711 -0.4783 -1.2584
15589TIP3   OH268257   0.959   0.255   2.506 -0.0757  0.0811 -0.2076
15589TIP3    H168258   0.987   0.331   2.558 -1.2732  0.1112  0.4373
15589TIP3    H268259   0.930   0.292   2.423  0.8427  0.1488 -0.5060
15590TIP3   OH268260   1.707   3.821   2.086  0.6892 -0.3863  0.1873
15590TIP3    H168261   1.717   3.899   2.140 -1.0760 -1.0202  1.5307
15590TIP3    H268262   1.735   3.749   2.143 -1.5805 -1.1143  0.4795
15591TIP3   OH268263   4.375   2.585  15.466 -0.3981 -0.1376  0.2343
15591TIP3    H168264   4.325   2.544  15.397  2.0732 -0.5603 -1.4483
15591TIP3    H268265   4.404   2.669  15.428  0.7108 -0.2237  0.8381
15592TIP3   OH268266   3.269   0.601  16.205  0.8847  0.1934  0.4916
15592TIP3    H168267   3.288   0.553  16.125  1.0678 -0.5201  0.9494
15592TIP3    H268268   3.325   0.560  16.271  2.8363  2.5146  0.4609
15593TIP3   OH268269   5.625   3.362   3.546 -0.3335  0.1700  0.0836
15593TIP3    H168270   5.627   3.344   3.452  0.9590 -1.1757  0.3156
15593TIP3    H268271   5.532   3.370   3.567 -0.6070  1.5394 -1.4641
15594TIP3   OH268272   2.482   5.559   3.743 -0.1112 -0.5243 -0.3508
15594TIP3    H168273   2.573   5.571   3.768 -0.0239 -1.7305 -0.0505
15594TIP3    H268274   2.484   5.490   3.676 -0.6059  0.8404 -1.8420
15595TIP3   OH268275   4.768   1.905   2.295  0.3212 -0.6171  0.2416
15595TIP3    H168276   4.782   1.948   2.379  0.5823 -0.4961  0.1383
15595TIP3    H268277   4.766   1.812   2.315 -1.8065 -0.5204  0.6947
15596TIP3   OH268278   2.193   4.076   0.592  0.1723  0.3230 -0.3641
15596TIP3    H168279   2.203   4.073   0.688 -0.0377 -0.3893 -0.3587
15596TIP3    H268280   2.280   4.103   0.561  0.8334 -1.3255 -0.0632
15597TIP3   OH268281   3.170   4.844  13.817  0.3896  0.3317  0.5176
15597TIP3    H168282   3.216   4.820  13.737 -1.3999  1.0015 -0.7931
15597TIP3    H268283   3.131   4.762  13.848 -1.0886  0.4860 -0.8168
15598TIP3   OH268284   3.515   4.277  15.193  0.3045 -0.0103  0.3398
15598TIP3    H168285   3.427   4.295  15.225 -0.2246  0.9281 -1.5059
15598TIP3    H268286   3.531   4.344  15.127  1.6257 -1.3538 -0.7850
15599TIP3   OH268287   3.384   2.393  14.845 -0.3985  0.3219 -0.6204
15599TIP3    H168288   3.377   2.332  14.772  0.5790  0.0640 -0.5054
15599TIP3    H268289   3.298   2.390  14.887 -0.5654 -0.4861 -1.0020
15600TIP3   OH268290   3.780   0.837   0.929  0.1005  0.0946  0.6701
15600TIP3    H168291   3.730   0.763   0.963 -0.6119 -0.1051 -0.7558
15600TIP3    H268292   3.848   0.852   0.995 -0.2168 -1.3214  1.3517
15601TIP3   OH268293   4.256   6.820   2.562  0.2736 -0.3352  0.5110
15601TIP3    H168294   4.281   6.747   2.619 -0.6793  0.2934  1.7933
15601TIP3    H268295   4.260   6.896   2.619  0.4085  0.4990 -0.5905
15602TIP3   OH268296   6.203   2.054   4.091  0.1924  0.3006 -0.3199
15602TIP3    H168297   6.134   2.042   4.026  0.4369  0.1953 -0.5614
15602TIP3    H268298   6.177   1.997   4.164 -0.1440  0.5135 -0.2756
15603TIP3   OH268299   6.068   6.211  15.594  0.3875 -0.1857  0.3518
15603TIP3    H168300   6.062   6.192  15.500 -0.7691  1.6960 -0.0113
15603TIP3    H268301   6.021   6.139  15.636 -1.6886  0.4146 -0.7610
15604TIP3   OH268302   5.002   5.360  11.670  0.1782 -0.2287  0.3584
15604TIP3    H168303   5.055   5.290  11.632  1.9538  0.3875  1.5313
15604TIP3    H268304   4.941   5.316  11.729  0.6127 -0.8517  0.3505
15605TIP3   OH268305   3.893   2.571   2.480  0.1147  0.1324 -0.2073
15605TIP3    H168306   3.862   2.517   2.552 -0.4464  0.9949  0.2142
15605TIP3    H268307   3.814   2.594   2.431  0.4053  0.1696 -0.6724
15606TIP3   OH268308   4.674   3.858   1.423  0.0489 -0.4818 -0.3608
15606TIP3    H168309   4.692   3.864   1.329 -0.1266  2.3153 -0.3038
15606TIP3    H268310   4.760   3.854   1.464  0.1252 -2.4076 -0.5889
15607TIP3   OH268311   4.935   0.522   0.902  0.1275  0.5766 -0.3875
15607TIP3    H168312   4.903   0.453   0.844  0.9992  1.7592 -2.3857
15607TIP3    H268313   4.878   0.518   0.979 -0.1191 -2.0406 -0.6384
15608TIP3   OH268314   0.751   5.185  11.487 -0.1313 -0.4102  0.3271
15608TIP3    H168315   0.679   5.134  11.450  0.5577 -0.9318 -0.3562
15608TIP3    H268316   0.806   5.206  11.411  0.2218  0.3128  0.7805
15609TIP3   OH268317   0.796   1.991  13.160 -0.7528  0.3865 -0.0910
15609TIP3    H168318   0.808   1.906  13.116  0.4314  1.1383 -1.2854
15609TIP3    H268319   0.703   2.009  13.151 -1.3697 -1.5165  1.6147
15610TIP3   OH268320   1.316   6.838  12.402  0.0751  0.2239  0.6771
15610TIP3    H168321   1.294   6.877  12.487 -1.7584 -1.5563  1.1033
15610TIP3    H268322   1.232   6.810  12.366  1.1145 -1.7380 -0.3554
15611TIP3   OH268323   6.028   6.516  12.926  0.1424 -0.3070  0.4143
15611TIP3    H168324   6.002   6.425  12.908  1.1307 -0.4803 -0.1617
15611TIP3    H268325   6.123   6.516  12.919  0.0616  1.1638 -1.4603
15612TIP3   OH268326   0.828   0.510   3.964 -0.2183  0.2187  0.3306
15612TIP3    H168327   0.770   0.583   3.942 -1.8599 -0.8990  0.7976
15612TIP3    H268328   0.879   0.541   4.038  1.8577  2.2332 -1.7583
15613TIP3   OH268329   3.442   1.390   2.073 -0.5646  0.2801  0.2595
15613TIP3    H168330   3.511   1.456   2.079  0.0196 -0.3650  0.8709
15613TIP3    H268331   3.460   1.345   1.990  0.0212 -0.1536  0.6079
15614TIP3   OH268332   0.072   2.937   3.790 -0.0340  0.6432  0.3548
15614TIP3    H168333   0.022   2.979   3.720  1.5964  0.9832 -0.6713
15614TIP3    H268334   0.163   2.964   3.774  0.9616 -2.3712  0.2454
15615TIP3   OH268335   3.666   1.620   2.127  0.2458  0.1001 -0.3246
15615TIP3    H168336   3.619   1.653   2.203  0.0194  0.2668 -0.5388
15615TIP3    H268337   3.738   1.682   2.114  0.3498  0.0102 -0.1796
15616TIP3   OH268338   6.444   3.498   5.081  0.4284  0.1757 -0.1548
15616TIP3    H168339   6.449   3.403   5.070  0.0802  0.3741 -2.9891
15616TIP3    H268340   6.530   3.530   5.054  0.7299  0.6614  1.3284
15617TIP3   OH268341   6.263   0.145  14.391  0.6410 -0.3835  0.1130
15617TIP3    H168342   6.305   0.115  14.472  1.7505 -0.1190 -0.3409
15617TIP3    H268343   6.188   0.196  14.420  1.3347  0.1562  0.9974
15618TIP3   OH268344   4.346   1.880  15.864 -0.0135  0.5706  0.4400
15618TIP3    H168345   4.405   1.910  15.795  1.1573  0.6194  1.4390
15618TIP3    H268346   4.270   1.938  15.857 -1.4431 -1.3661 -2.8603
15619TIP3   OH268347   3.861   2.751   5.221 -0.2301  0.4932 -0.4374
15619TIP3    H168348   3.877   2.691   5.148 -0.1024 -1.4184  1.0883
15619TIP3    H268349   3.947   2.789   5.240 -0.1272  0.4505 -0.7990
15620TIP3   OH268350   3.699   0.966   5.185  0.1781  0.2278 -0.4271
15620TIP3    H168351   3.678   0.895   5.245  0.2063  0.4053 -0.2047
15620TIP3    H268352   3.675   1.045   5.233 -1.0010  0.3183 -1.1297
15621TIP3   OH268353   4.156   2.784   1.306  0.0819  0.1663  0.4758
15621TIP3    H168354   4.218   2.814   1.240 -0.5096  0.9060  0.2420
15621TIP3    H268355   4.132   2.863   1.355 -2.6474  0.4542 -1.1096
15622TIP3   OH268356   1.879   2.699   4.483 -0.5229  0.1131  0.4055
15622TIP3    H168357   1.946   2.767   4.492 -1.2291  0.9148 -0.1936
15622TIP3    H268358   1.837   2.719   4.399 -1.3885 -0.4854  0.6914
15623TIP3   OH268359   3.312   6.156  15.253  0.1964  0.4899 -1.1809
15623TIP3    H168360   3.270   6.141  15.168 -1.4236 -1.0826 -0.1899
15623TIP3    H268361   3.296   6.248  15.272 -1.7331  0.2766 -1.4802
15624TIP3   OH268362   5.254   2.899   1.736 -0.0046 -0.1608 -0.3655
15624TIP3    H168363   5.311   2.852   1.675 -1.4223  0.5128 -2.3287
15624TIP3    H268364   5.280   2.991   1.727  0.6161 -0.1805  1.0386
15625TIP3   OH268365   0.044   1.628   1.554 -0.5545  0.3627 -0.1518
15625TIP3    H168366   0.023   1.536   1.536 -1.6821  0.6696 -0.4851
15625TIP3    H268367   0.046   1.669   1.467 -0.1974  0.6860  0.0093
15626TIP3   OH268368   2.267   5.509   4.648 -0.2547 -0.5178 -0.0091
15626TIP3    H168369   2.196   5.495   4.711 -0.5983 -0.9684 -0.4855
15626TIP3    H268370   2.333   5.558   4.697 -0.8072 -0.2617  0.5025
15627TIP3   OH268371   5.517   4.894   1.151 -0.3942  0.0649 -0.5969
15627TIP3    H168372   5.461   4.971   1.151 -0.2632  0.2276 -2.7235
15627TIP3    H268373   5.605   4.927   1.131 -0.0787 -0.4846 -0.1518
15628TIP3   OH268374   3.897   3.318   2.579  0.3068 -0.1286 -0.1647
15628TIP3    H168375   3.845   3.384   2.533  0.7497 -0.5508 -1.3138
15628TIP3    H268376   3.880   3.237   2.531  1.6595 -0.3616 -0.2761
15629TIP3   OH268377   0.739   2.771   1.001  0.1976 -0.0225 -0.1486
15629TIP3    H168378   0.822   2.803   1.036 -0.2117  1.2151 -0.2596
15629TIP3    H268379   0.694   2.735   1.078  0.7004 -0.4259 -0.0351
15630TIP3   OH268380   0.798   3.960   3.363 -0.0693  0.2137  0.0655
15630TIP3    H168381   0.748   4.007   3.297 -1.5095 -1.5040 -0.1330
15630TIP3    H268382   0.857   3.904   3.313 -1.3148 -1.2527  0.1720
15631TIP3   OH268383   3.389   2.329   2.894  0.6615  0.5116 -0.6370
15631TIP3    H168384   3.434   2.248   2.919 -0.9971  0.3339  2.2039
15631TIP3    H268385   3.425   2.396   2.952 -0.1462  1.1434 -0.8479
15632TIP3   OH268386   3.746   3.388  10.373  0.0070 -0.0139  0.1370
15632TIP3    H168387   3.788   3.456  10.320  1.1315 -0.8951 -0.1427
15632TIP3    H268388   3.811   3.366  10.440 -1.0022  0.3614  1.2773
15633TIP3   OH268389   4.869   6.327   5.411 -0.4914 -0.7694 -0.2210
15633TIP3    H168390   4.788   6.276   5.402  0.1903 -1.9063 -0.1389
15633TIP3    H268391   4.938   6.261   5.412  0.4934  0.2175 -0.9344
15634TIP3   OH268392   2.706   0.475  12.700  0.4578 -0.4415 -0.2936
15634TIP3    H168393   2.639   0.542  12.689  0.5249 -0.2667  0.3359
15634TIP3    H268394   2.712   0.462  12.794 -0.1709 -1.9492 -0.4300
15635TIP3   OH268395   5.534   6.128  14.086 -0.3450 -0.7123 -0.0554
15635TIP3    H168396   5.579   6.060  14.137 -0.8317 -0.6940  0.3976
15635TIP3    H268397   5.584   6.132  14.004  0.0958 -1.1423  0.1829
15636TIP3   OH268398   1.264   5.018   3.512 -0.1234 -0.3043 -0.5053
15636TIP3    H168399   1.221   4.934   3.495 -0.0557 -0.6932  1.0570
15636TIP3    H268400   1.191   5.079   3.527 -0.1608 -0.2779 -0.7897
15637TIP3   OH268401   2.040   1.991   2.512  0.3627  0.1376 -0.0686
15637TIP3    H168402   2.054   1.896   2.513  1.1468  0.2326 -0.5619
15637TIP3    H268403   2.033   2.013   2.419 -2.9751  0.1676  0.0783
15638TIP3   OH268404   0.529   3.026  11.014  0.6852  0.8291  0.4204
15638TIP3    H168405   0.583   3.011  11.091  0.7793  1.5065  0.4853
15638TIP3    H268406   0.456   3.079  11.045 -0.5763 -0.8939  0.5551
15639TIP3   OH268407   0.061   4.626  15.071  0.7683 -0.0254 -0.3543
15639TIP3    H168408   0.091   4.598  14.984  3.4128 -1.1209  0.8131
15639TIP3    H268409   0.097   4.713  15.082  0.1278  0.2609 -0.4568
15640TIP3   OH268410   4.335   3.060  12.673  0.2854 -0.0900 -0.1898
15640TIP3    H168411   4.285   3.141  12.661  1.0932  0.7349  1.6704
15640TIP3    H268412   4.417   3.076  12.626 -0.1768 -0.4831 -1.1624
15641TIP3   OH268413   3.348   4.640  15.639 -0.8239  0.5699  0.2837
15641TIP3    H168414   3.428   4.596  15.610 -0.5311  1.7696 -0.8463
15641TIP3    H268415   3.277   4.583  15.610 -0.4132  0.1168  0.1607
15642TIP3   OH268416   4.277   1.946   0.622  0.1978 -0.8233 -0.2771
15642TIP3    H168417   4.359   1.993   0.615  2.0570 -4.0114 -3.2729
15642TIP3    H268418   4.217   1.992   0.564 -0.5451  1.8862  2.3937
15643TIP3   OH268419   4.532   3.950  16.154  0.6599  0.3008 -0.2062
15643TIP3    H168420   4.622   3.977  16.135  1.1731 -0.3743  1.0588
15643TIP3    H268421   4.509   3.998  16.233 -0.0917  0.4514 -0.5115
15644TIP3   OH268422   0.398   0.385   3.939 -0.8029  0.1909  0.2440
15644TIP3    H168423   0.476   0.334   3.961 -2.0617 -0.8747  2.5413
15644TIP3    H268424   0.388   0.373   3.845  0.6274 -1.4011  0.2375
15645TIP3   OH268425   4.904   5.411  13.760  0.6185  0.7803  0.8177
15645TIP3    H168426   4.913   5.338  13.821  2.6444  1.1718  1.0736
15645TIP3    H268427   4.861   5.480  13.812  0.6842  0.4991  1.2531
15646TIP3   OH268428   3.620   5.696  16.923  0.0146 -0.1033 -0.1017
15646TIP3    H168429   3.703   5.662  16.889  0.1978  0.6549 -0.4469
15646TIP3    H268430   3.622   5.675  17.016  0.7236  0.1494 -0.0525
15647TIP3   OH268431   5.414   0.409   2.925 -0.3704 -0.4404  0.2356
15647TIP3    H168432   5.318   0.401   2.926 -0.5578  1.4716  1.5893
15647TIP3    H268433   5.434   0.474   2.991  1.8906 -0.6431 -0.1617
15648TIP3   OH268434   0.110   4.831  16.156 -0.2415 -0.3956  0.0137
15648TIP3    H168435   0.144   4.814  16.068 -0.7045 -2.4251  0.1796
15648TIP3    H268436   0.051   4.758  16.173 -1.2854  0.7252  1.4658
15649TIP3   OH268437   2.356   6.670  16.938  0.4133 -0.4168  0.0877
15649TIP3    H168438   2.371   6.647  16.846 -2.0082 -1.3195 -0.1402
15649TIP3    H268439   2.263   6.691  16.943  0.4019 -0.7708  2.4159
15650TIP3   OH268440   6.297   6.774  15.763 -0.0172  0.2700  0.6560
15650TIP3    H168441   6.280   6.767  15.669 -0.3072  0.1809  0.7145
15650TIP3    H268442   6.228   6.831  15.796  0.6125  1.0450  0.6713
15651TIP3   OH268443   3.676   4.420   0.362  0.0534  0.2536  0.2782
15651TIP3    H168444   3.700   4.332   0.331  0.1542 -0.1000  1.3071
15651TIP3    H268445   3.667   4.409   0.457  0.8697  1.5368  0.5242
15652TIP3   OH268446   2.882   0.116   6.864  0.0524  0.1071 -0.7426
15652TIP3    H168447   2.816   0.178   6.894 -1.4453 -1.5314 -0.5039
15652TIP3    H268448   2.917   0.155   6.783 -0.9510  1.1752 -0.6768
15653TIP3   OH268449   5.545   3.166   4.389 -0.6803 -0.1119 -0.6934
15653TIP3    H168450   5.490   3.091   4.368  0.1764 -1.5779  1.8765
15653TIP3    H268451   5.506   3.205   4.467  0.7966 -0.0630  0.0741
15654TIP3   OH268452   3.394   2.636   3.875  0.3585  0.1539 -0.0587
15654TIP3    H168453   3.382   2.597   3.788  1.2684 -1.4552  0.5109
15654TIP3    H268454   3.446   2.715   3.859  0.1944  0.0824 -1.0032
15655TIP3   OH268455   5.854   3.565   1.314 -0.0674 -0.2222  0.0257
15655TIP3    H168456   5.835   3.647   1.360 -1.1558 -1.0405  1.1064
15655TIP3    H268457   5.846   3.587   1.221 -1.9860  0.5543  0.3300
15656TIP3   OH268458   5.194   6.140  15.903 -0.2023 -0.2784 -0.2939
15656TIP3    H168459   5.266   6.204  15.904 -0.0688 -0.4058 -0.9230
15656TIP3    H268460   5.176   6.128  15.810 -0.9616 -0.3409 -0.1380
15657TIP3   OH268461   6.055   1.079   2.033  0.1338  0.1565  0.0338
15657TIP3    H168462   6.142   1.112   2.011  0.0183  0.4607  0.0241
15657TIP3    H268463   5.996   1.153   2.016 -0.1093 -0.0020  0.1733
15658TIP3   OH268464   2.064   2.998   3.292 -1.1187  0.2908  0.4951
15658TIP3    H168465   2.068   3.093   3.276 -0.7697  0.1864 -0.0727
15658TIP3    H268466   2.140   2.963   3.246 -1.2997 -0.2828  0.6242
15659TIP3   OH268467   2.305   4.676  12.713  0.1427 -0.5063  0.0853
15659TIP3    H168468   2.306   4.704  12.622  2.9396 -0.5802  0.0162
15659TIP3    H268469   2.212   4.671  12.735 -0.6242  2.8300 -1.7057
15660TIP3   OH268470   2.952   3.993   1.750  0.6976  0.0620 -0.2616
15660TIP3    H168471   3.012   4.001   1.675  0.8731  0.1992 -0.1068
15660TIP3    H268472   2.993   3.927   1.806  0.5270 -0.0960 -0.3212
15661TIP3   OH268473   4.059   4.243   1.496  0.4944 -0.0946  0.0172
15661TIP3    H168474   4.009   4.169   1.459  0.2793  0.2479 -0.3891
15661TIP3    H268475   3.997   4.285   1.556  0.5371 -0.1056  0.0682
15662TIP3   OH268476   2.599   6.314   4.007 -0.0859 -0.4931  0.0767
15662TIP3    H168477   2.560   6.384   4.059  2.1851  0.4717  0.5967
15662TIP3    H268478   2.575   6.234   4.054 -0.6913  0.1323  0.8616
15663TIP3   OH268479   4.729   5.070  16.890 -0.5679  0.2223  0.0488
15663TIP3    H168480   4.675   5.130  16.941  0.7284  1.3317  0.1950
15663TIP3    H268481   4.685   5.062  16.806 -0.2557  2.2320 -0.3478
15664TIP3   OH268482   6.790   2.470  12.082  0.6926  1.0143  0.2568
15664TIP3    H168483   6.720   2.452  12.019  0.9664  0.7967  0.0092
15664TIP3    H268484   6.773   2.411  12.155  0.3165  1.3365  0.4299
15665TIP3   OH268485   6.441   2.291  12.469  0.7697 -1.0363 -0.0600
15665TIP3    H168486   6.435   2.211  12.520 -0.9541 -0.7011  0.3296
15665TIP3    H268487   6.435   2.361  12.534  0.8135 -0.5889 -0.5340
15666TIP3   OH268488   1.381   2.072   2.038  0.4111  0.0135 -0.2080
15666TIP3    H168489   1.289   2.080   2.014  0.4793  1.2178 -0.1378
15666TIP3    H268490   1.421   2.154   2.008  1.4812 -0.5434 -0.3351
15667TIP3   OH268491   2.971   5.312  15.513  0.3277  0.3310 -0.7303
15667TIP3    H168492   3.005   5.379  15.573  2.5616 -2.1758  1.0738
15667TIP3    H268493   3.012   5.332  15.429  2.4164  0.2936  0.2106
15668TIP3   OH268494   6.668   0.932  15.498 -0.3430 -0.7156 -0.5472
15668TIP3    H168495   6.691   1.017  15.461  1.3685 -1.0516 -0.3283
15668TIP3    H268496   6.594   0.950  15.555  1.8005  1.2174  1.8424
15669TIP3   OH268497   1.930   1.092  14.105 -0.2794  1.0990  0.2527
15669TIP3    H168498   1.866   1.022  14.112  1.7674 -0.7598  1.7060
15669TIP3    H268499   1.994   1.061  14.040 -0.0708  2.2700 -0.1337
15670TIP3   OH268500   2.494   6.491   1.406 -0.3338 -0.4320 -0.5076
15670TIP3    H168501   2.581   6.467   1.373 -0.3958 -0.8938 -0.3458
15670TIP3    H268502   2.484   6.583   1.382  0.4303 -0.2127 -0.0567
15671TIP3   OH268503   0.089   4.742   0.164 -0.4190 -0.3378  0.6667
15671TIP3    H168504   0.022   4.721   0.229 -1.5811 -0.9669 -0.6735
15671TIP3    H268505   0.104   4.660   0.117  0.4221  0.0853  0.1770
15672TIP3   OH268506   0.097   6.769  16.008 -0.5311  0.3618  0.2199
15672TIP3    H168507   0.117   6.862  16.016 -1.6580  0.6933 -0.6686
15672TIP3    H268508   0.058   6.760  15.921 -0.3265 -0.9685  0.2436
15673TIP3   OH268509   2.154   2.169   4.288  0.4517 -0.4084  0.4252
15673TIP3    H168510   2.119   2.179   4.199  2.3631 -0.9811 -0.4400
15673TIP3    H268511   2.076   2.169   4.344 -0.8258 -0.2893 -1.2594
15674TIP3   OH268512   4.211   3.648  14.614  0.3213 -0.3287  0.0696
15674TIP3    H168513   4.303   3.652  14.637  0.4009  0.6934 -0.3743
15674TIP3    H268514   4.200   3.714  14.545 -0.5961 -0.9158 -0.3813
15675TIP3   OH268515   4.737   3.267   0.002  0.4394 -0.4820  0.2314
15675TIP3    H168516   4.712   3.176   0.018 -0.2057 -0.1889  0.9602
15675TIP3    H268517   4.766   3.299   0.087  1.8846 -0.3547 -0.2705
15676TIP3   OH268518   0.754   0.556   5.162 -0.2489 -0.5980  0.1120
15676TIP3    H168519   0.740   0.651   5.165  1.6952 -0.2581 -0.3054
15676TIP3    H268520   0.794   0.535   5.246  3.3202 -0.2566 -1.3427
15677TIP3   OH268521   6.524   3.931  11.536 -0.2724  0.0506 -0.3851
15677TIP3    H168522   6.508   3.917  11.443 -1.9229 -0.2897 -0.0772
15677TIP3    H268523   6.584   3.862  11.561  0.1743  0.1368 -1.1834
15678TIP3   OH268524   1.718   0.283  13.011 -0.1615  0.1817  0.0804
15678TIP3    H168525   1.641   0.244  13.051 -1.0617  0.6838 -1.1110
15678TIP3    H268526   1.710   0.377  13.030 -0.8327  0.4971 -1.5514
15679TIP3   OH268527   5.735   6.518  14.824 -0.6303 -0.1666  0.9900
15679TIP3    H168528   5.712   6.526  14.732  0.8201 -0.0170  0.6111
15679TIP3    H268529   5.710   6.428  14.847 -0.8208 -0.2732  0.3908
15680TIP3   OH268530   4.796   2.337   1.952  0.8827 -0.0689  0.4199
15680TIP3    H168531   4.882   2.369   1.925  1.7208 -0.4090  2.4909
15680TIP3    H268532   4.768   2.398   2.020  0.0830 -0.7207  0.6895
15681TIP3   OH268533   5.543   2.568  16.885 -0.2937 -0.4819  0.3025
15681TIP3    H168534   5.624   2.520  16.865 -0.0970  0.1391 -0.4356
15681TIP3    H268535   5.574   2.656  16.910 -0.6692 -0.6218  1.2796
15682TIP3   OH268536   0.770   4.172   1.337  0.6675 -0.1444  0.2414
15682TIP3    H168537   0.677   4.173   1.360  0.6624  1.6428  0.3196
15682TIP3    H268538   0.807   4.099   1.386 -0.6519 -0.7643  0.3503
15683TIP3   OH268539   5.316   3.969  14.828  0.0237  0.0143  0.8638
15683TIP3    H168540   5.307   3.927  14.743 -1.7366 -1.4601  1.6910
15683TIP3    H268541   5.405   3.947  14.857 -0.0217 -1.0967  0.2109
15684TIP3   OH268542   4.604   4.676  15.537 -0.1816 -0.4122 -0.2484
15684TIP3    H168543   4.601   4.600  15.595  1.2819  0.5758  1.2276
15684TIP3    H268544   4.694   4.709  15.545 -1.0549  2.1503  0.1374
15685TIP3   OH268545   5.412   6.055  14.791  0.2817 -0.2620 -0.2426
15685TIP3    H168546   5.316   6.058  14.794  0.2990  0.3901 -0.2730
15685TIP3    H268547   5.432   5.963  14.776 -0.2868 -0.8307  2.0428
15686TIP3   OH268548   3.278   4.741   5.153  0.0399 -0.5843 -0.5083
15686TIP3    H168549   3.335   4.666   5.137  1.1823  0.1509  0.0598
15686TIP3    H268550   3.324   4.795   5.217 -1.6531 -0.3612  0.6021
15687TIP3   OH268551   3.328   0.871  13.571 -0.1820 -0.0658  0.2143
15687TIP3    H168552   3.300   0.948  13.620 -1.2882  0.0899 -0.6141
15687TIP3    H268553   3.369   0.907  13.492 -0.5658 -0.3234 -0.1037
15688TIP3   OH268554   6.146   1.122   3.720  0.3113 -0.3335  0.3237
15688TIP3    H168555   6.128   1.200   3.772  1.2619  0.1575 -0.0630
15688TIP3    H268556   6.230   1.090   3.753  0.4871 -0.5292 -0.2932
15689TIP3   OH268557   6.529   0.894   1.481  0.3813  0.1067  0.1477
15689TIP3    H168558   6.546   0.897   1.387 -0.7104  1.6685 -0.0453
15689TIP3    H268559   6.567   0.976   1.515  0.5967 -0.3502  1.0376
15690TIP3   OH268560   4.935   1.955  12.121 -0.3725 -0.4007  0.4296
15690TIP3    H168561   4.912   2.001  12.202  1.1466  0.6439  0.3040
15690TIP3    H268562   5.012   1.903  12.144  0.3194  0.2256 -0.4367
15691TIP3   OH268563   5.618   3.089  11.986 -0.0569 -0.0125  0.4132
15691TIP3    H168564   5.604   3.138  11.905 -0.5493 -0.0920  0.4500
15691TIP3    H268565   5.657   3.153  12.046 -0.2276  0.1987  0.3006
15692TIP3   OH268566   6.295   0.595   1.231 -0.4054  0.1135 -0.5726
15692TIP3    H168567   6.245   0.666   1.270  0.6863  0.6615 -0.1377
15692TIP3    H268568   6.321   0.629   1.145  0.2146  0.2979 -0.3178
15693TIP3   OH268569   2.156   4.002   5.605 -0.2679  0.7123 -0.0779
15693TIP3    H168570   2.092   4.018   5.674 -0.4929 -2.1652  0.4858
15693TIP3    H268571   2.113   3.941   5.546  0.4429  2.0392 -2.0719
15694TIP3   OH268572   5.151   1.395  15.606 -0.0808  0.2414 -0.4181
15694TIP3    H168573   5.147   1.300  15.593  1.5131  0.1966 -0.8332
15694TIP3    H268574   5.244   1.416  15.596 -0.2791  1.7261  0.5639
15695TIP3   OH268575   6.486   2.664  17.091  0.3814  0.7776 -0.1845
15695TIP3    H168576   6.488   2.654  16.996  0.0010 -0.8598 -0.0564
15695TIP3    H268577   6.417   2.729  17.107 -1.8446 -1.2297 -0.9368
15696TIP3   OH268578   3.397   0.874   5.640  0.0165  0.1359  0.7271
15696TIP3    H168579   3.411   0.965   5.667 -0.1920  0.3428  0.1621
15696TIP3    H268580   3.435   0.822   5.710  1.5112  0.6678  0.3600
15697TIP3   OH268581   1.308   2.891  17.122  0.3215  0.2646 -0.0416
15697TIP3    H168582   1.340   2.920  17.036 -0.4148  0.4314 -0.2675
15697TIP3    H268583   1.216   2.917  17.123 -0.1246 -1.2279  0.1181
15698TIP3   OH268584   5.791   4.340  11.898 -0.5193 -0.4554 -0.2358
15698TIP3    H168585   5.840   4.259  11.913  0.7231  0.2806 -0.2380
15698TIP3    H268586   5.715   4.333  11.956  0.7643 -0.6090  1.5034
15699TIP3   OH268587   3.557   4.737  16.197  0.6365 -0.3718  0.1113
15699TIP3    H168588   3.510   4.696  16.125  0.9001 -0.0969 -0.2234
15699TIP3    H268589   3.528   4.828  16.195 -1.2845 -0.8704  1.9452
15700TIP3   OH268590   0.172   0.102   6.197 -0.6902  0.2635 -0.5525
15700TIP3    H168591   0.183   0.172   6.133  1.6918 -0.5167 -1.0958
15700TIP3    H268592   0.227   0.030   6.165  0.3954 -0.2849  2.1671
15701TIP3   OH268593   1.016   4.414   4.159  0.1875 -0.3618  0.4935
15701TIP3    H168594   1.029   4.509   4.152  0.4477 -0.3902  0.5885
15701TIP3    H268595   0.947   4.405   4.225 -0.0953 -0.2270  0.2258
15702TIP3   OH268596   3.731   5.683  14.850  0.5906 -0.6140 -0.2114
15702TIP3    H168597   3.685   5.731  14.781  0.0956 -0.2149  0.3768
15702TIP3    H268598   3.786   5.621  14.804  1.1068  0.3985 -1.0049
15703TIP3   OH268599   4.068   0.238   2.171 -0.1978 -0.9265  0.1590
15703TIP3    H168600   4.076   0.144   2.158  0.7513 -0.8988  0.4801
15703TIP3    H268601   4.088   0.252   2.263 -4.2382 -0.8121  1.2156
15704TIP3   OH268602   5.422   6.329  14.873  0.2811 -0.1338  0.3380
15704TIP3    H168603   5.423   6.234  14.863 -0.8530 -0.3002  1.4737
15704TIP3    H268604   5.463   6.363  14.793 -1.9004 -1.4941 -1.4861
15705TIP3   OH268605   4.451   6.095   2.692  0.1658  0.2696 -0.0082
15705TIP3    H168606   4.472   6.088   2.785  1.9882 -1.7282 -0.4619
15705TIP3    H268607   4.426   6.006   2.667 -0.0156  0.7100 -1.4769
15706TIP3   OH268608   0.959   5.127   5.474  0.1376  0.1159 -0.4011
15706TIP3    H168609   1.013   5.077   5.535  0.2606 -0.4623 -0.9698
15706TIP3    H268610   0.945   5.068   5.400  0.8474  1.1407 -1.4026
15707TIP3   OH268611   3.478   1.488  14.418 -0.0153 -0.2555  0.2694
15707TIP3    H168612   3.490   1.531  14.333  0.7976 -1.0084 -0.0042
15707TIP3    H268613   3.388   1.510  14.442  0.2012  1.1525 -0.1031
15708TIP3   OH268614   2.970   5.112  14.847  0.6296 -0.0815 -0.1156
15708TIP3    H168615   3.049   5.166  14.843 -0.0071  1.0171  1.2804
15708TIP3    H268616   2.919   5.150  14.918 -2.2400  0.6873 -2.4276
15709TIP3   OH268617   6.218   5.050  13.541  0.2651  0.2033 -0.2161
15709TIP3    H168618   6.144   5.099  13.505 -0.4525 -1.1001 -0.6095
15709TIP3    H268619   6.178   4.974  13.583  1.4219 -1.4694 -1.9635
15710TIP3   OH268620   5.603   2.321  11.055 -0.0801 -0.0462 -0.1417
15710TIP3    H168621   5.632   2.360  10.972 -1.7590 -0.1909 -0.8546
15710TIP3    H268622   5.677   2.268  11.084  1.2765  1.5461 -0.5106
15711TIP3   OH268623   1.961   2.363  14.348 -0.0982 -0.1230 -0.3309
15711TIP3    H168624   1.891   2.362  14.413 -2.0619  0.6694 -2.2674
15711TIP3    H268625   2.002   2.449  14.358 -0.2170 -0.1061  0.0331
15712TIP3   OH268626   4.419   4.383   1.635  0.1857  0.0698 -0.4129
15712TIP3    H168627   4.388   4.442   1.566  1.2775  0.4560 -0.5951
15712TIP3    H268628   4.339   4.348   1.674 -0.4641  0.5607 -1.2598
15713TIP3   OH268629   1.338   3.669  13.747  0.0563 -0.4662  0.8286
15713TIP3    H168630   1.270   3.607  13.721 -0.4038  0.4726 -0.2729
15713TIP3    H268631   1.414   3.645  13.695 -1.2454  2.2562 -2.7203
15714TIP3   OH268632   6.647   5.568   6.309 -0.7968 -0.4874 -0.3156
15714TIP3    H168633   6.609   5.481   6.296  2.4594 -2.5351  2.2871
15714TIP3    H268634   6.618   5.594   6.396  0.4029 -0.2098  0.0120
15715TIP3   OH268635   4.551   2.467  13.286  0.0964  0.3294  0.1424
15715TIP3    H168636   4.476   2.435  13.236  0.4073 -0.5646  0.2311
15715TIP3    H268637   4.537   2.562  13.292 -0.4639  0.3184 -0.7648
15716TIP3   OH268638   2.707   0.548  15.140 -0.0276 -0.1653 -0.4817
15716TIP3    H168639   2.704   0.452  15.145 -0.6521 -0.1326 -0.1617
15716TIP3    H268640   2.705   0.566  15.046  0.7754 -0.4803 -0.5671
15717TIP3   OH268641   1.231   0.688   5.600  0.2591 -0.9459 -0.4931
15717TIP3    H168642   1.227   0.783   5.587  2.1215 -0.5962  0.8960
15717TIP3    H268643   1.320   0.665   5.573 -0.0273 -2.2340 -0.3847
15718TIP3   OH268644   0.992   1.472   2.408 -0.4170 -0.0000  0.6090
15718TIP3    H168645   0.953   1.385   2.410 -0.4037 -0.0013  0.8847
15718TIP3    H268646   1.032   1.482   2.494  1.1733 -0.4360 -0.0547
15719TIP3   OH268647   1.022   4.429  12.362  0.0925 -0.1934  0.3769
15719TIP3    H168648   0.988   4.477  12.287  0.3698 -0.4603  0.0788
15719TIP3    H268649   0.965   4.454  12.435  1.2122  1.8997  0.6055
15720TIP3   OH268650   5.453   4.170   1.250  0.0147 -0.0727 -0.5002
15720TIP3    H168651   5.414   4.170   1.163  0.7430  2.0495 -0.9035
15720TIP3    H268652   5.503   4.252   1.254  1.7202 -1.0847  1.1618
15721TIP3   OH268653   4.158   2.222   4.638  0.3990  0.3735 -0.0610
15721TIP3    H168654   4.196   2.143   4.676 -1.5554 -0.1851  0.8792
15721TIP3    H268655   4.131   2.196   4.550  0.7450  0.3133 -0.1498
15722TIP3   OH268656   4.977   0.110  14.660  1.0115 -0.2369 -0.3778
15722TIP3    H168657   4.954   0.042  14.597  0.0152 -0.3693  0.1105
15722TIP3    H268658   4.983   0.190  14.607 -0.8894 -0.1373 -0.5266
15723TIP3   OH268659   1.682   0.029  11.522  0.2268  0.1751  0.0417
15723TIP3    H168660   1.629   0.052  11.446 -3.3849 -1.2215  1.8924
15723TIP3    H268661   1.668   0.101  11.583  0.1842 -0.3374  0.6525
15724TIP3   OH268662   5.166   1.258  15.898 -0.6895  0.7914  0.3112
15724TIP3    H168663   5.255   1.233  15.874 -1.0493 -0.9394  0.6488
15724TIP3    H268664   5.115   1.178  15.887 -2.0763  1.5798  0.7723
15725TIP3   OH268665   4.219   1.292   1.387 -0.5024 -0.9516  0.0428
15725TIP3    H168666   4.137   1.305   1.434 -0.9735  0.1239 -1.0323
15725TIP3    H268667   4.198   1.311   1.296  0.8647 -0.9987 -0.3045
15726TIP3   OH268668   6.347   1.158   2.000  0.2489  0.3501  0.0861
15726TIP3    H168669   6.440   1.181   1.997  0.4372 -0.4890 -1.3610
15726TIP3    H268670   6.339   1.101   2.077  1.6445 -2.2559 -1.5306
15727TIP3   OH268671   1.894   0.408  11.083 -0.0685 -0.1810  0.0372
15727TIP3    H168672   1.863   0.422  11.173 -1.7425 -1.5211 -0.2767
15727TIP3    H268673   1.850   0.328  11.055  2.4582 -1.2916 -1.0862
15728TIP3   OH268674   5.904   5.291  15.684  0.1910 -0.1223 -0.2376
15728TIP3    H168675   5.903   5.317  15.776 -0.9367  0.6741 -0.4637
15728TIP3    H268676   5.995   5.305  15.657  0.4777 -0.1171  0.6663
15729TIP3   OH268677   4.884   1.173  13.131 -0.9431 -0.0129  0.4851
15729TIP3    H168678   4.894   1.253  13.182 -0.5450 -0.4408  1.1027
15729TIP3    H268679   4.822   1.195  13.062  0.0484  1.1717 -0.0735
15730TIP3   OH268680   0.085   6.426  13.428  0.0625 -0.1637 -0.6002
15730TIP3    H168681   0.021   6.496  13.441  0.7627  0.1469  1.6811
15730TIP3    H268682   0.046   6.349  13.469  1.2756  0.1697  1.3470
15731TIP3   OH268683   2.532   2.076  14.169  0.8134 -0.6659 -0.1834
15731TIP3    H168684   2.533   2.162  14.127  0.3680 -0.6389 -0.1441
15731TIP3    H268685   2.614   2.072  14.218 -0.0880  0.6102  1.5569
15732TIP3   OH268686   0.181   2.334   1.567 -0.0250  0.2423 -0.1248
15732TIP3    H168687   0.113   2.316   1.633  2.4990 -0.9993  2.3278
15732TIP3    H268688   0.242   2.393   1.611  0.8177  0.9344 -2.0966
15733TIP3   OH268689   0.358   5.723  12.858 -0.3172  0.4622  0.2193
15733TIP3    H168690   0.419   5.705  12.930 -0.3624 -0.4969  0.0417
15733TIP3    H268691   0.367   5.647  12.801  0.3599  1.6037 -1.2484
15734TIP3   OH268692   3.766   2.019   1.605 -0.1487  0.2475 -0.2997
15734TIP3    H168693   3.682   1.979   1.584 -0.0731 -0.1051  0.0634
15734TIP3    H268694   3.761   2.040   1.698  0.4713 -0.5466 -0.0684
15735TIP3   OH268695   5.076   3.746  13.328  0.4932  0.2404  0.0507
15735TIP3    H168696   5.102   3.838  13.323 -0.5529  0.5103 -0.8142
15735TIP3    H268697   5.095   3.720  13.418 -2.1721  2.2374  1.3192
15736TIP3   OH268698   4.235   2.287  12.162  0.1940 -0.2121  0.1440
15736TIP3    H168699   4.313   2.322  12.119  1.1513  0.1145  2.0241
15736TIP3    H268700   4.230   2.335  12.244 -1.8005 -0.4962  0.2251
15737TIP3   OH268701   2.204   3.416   0.645  0.7841 -0.3682 -0.4204
15737TIP3    H168702   2.242   3.355   0.582 -0.6241 -0.2383 -1.4212
15737TIP3    H268703   2.270   3.422   0.715  1.8356 -1.4406 -1.2849
15738TIP3   OH268704   3.052   4.673  14.590  0.1510  0.6302  0.0892
15738TIP3    H168705   3.079   4.582  14.606  1.5778  0.4231 -2.7796
15738TIP3    H268706   3.133   4.724  14.594 -0.3156  1.4300 -0.3225
15739TIP3   OH268707   2.176   0.829  15.543 -0.0367 -0.0943 -0.2921
15739TIP3    H168708   2.200   0.847  15.452  2.0762  1.5885  0.5201
15739TIP3    H268709   2.163   0.915  15.582  0.1351 -0.7481  1.2761
15740TIP3   OH268710   4.605   1.852  16.030 -0.0965  0.2768 -0.3007
15740TIP3    H168711   4.647   1.911  16.093  0.2229  0.6308 -0.8318
15740TIP3    H268712   4.649   1.872  15.947  0.0428 -0.7341 -0.4854
15741TIP3   OH268713   4.466   3.272  11.561  0.0738  0.4078 -0.2972
15741TIP3    H168714   4.511   3.253  11.643 -0.4003 -0.9503 -0.3300
15741TIP3    H268715   4.434   3.362  11.571 -0.0093  0.2501  1.0122
15742TIP3   OH268716   3.588   4.204   2.233 -0.0175  0.0301  0.0608
15742TIP3    H168717   3.552   4.178   2.318  0.3138 -0.9405 -0.0742
15742TIP3    H268718   3.605   4.120   2.188  0.9789  0.4983 -0.4697
15743TIP3   OH268719   6.231   2.494   4.328 -0.3851  0.3705 -0.2122
15743TIP3    H168720   6.234   2.463   4.238 -1.8097  0.1279 -0.1985
15743TIP3    H268721   6.243   2.589   4.321  0.2291  0.2752 -0.5761
15744TIP3   OH268722   0.393   3.577  16.695  0.1232  0.2315  0.6018
15744TIP3    H168723   0.384   3.484  16.674  2.3505 -0.2256  1.3077
15744TIP3    H268724   0.306   3.614  16.683 -0.5404 -1.6878 -0.9272
15745TIP3   OH268725   2.512   5.308   6.082  0.1063  0.3262  0.0318
15745TIP3    H168726   2.516   5.384   6.140 -0.0608 -0.4874  1.1332
15745TIP3    H268727   2.472   5.342   6.001 -0.1572  1.3507  0.5732
15746TIP3   OH268728   0.543   5.869  15.485  0.1175 -0.1052 -0.2505
15746TIP3    H168729   0.538   5.931  15.412  3.9932 -0.7612 -1.3158
15746TIP3    H268730   0.559   5.785  15.444  2.0905 -0.5441  1.2831
15747TIP3   OH268731   5.547   0.111   0.246 -0.1003  0.2005 -0.0881
15747TIP3    H168732   5.580   0.177   0.306  0.0384  0.3317 -0.3040
15747TIP3    H268733   5.626   0.068   0.213 -0.2555 -1.5078  1.6431
15748TIP3   OH268734   0.741   2.272  15.432  0.5191 -0.4986  0.2277
15748TIP3    H168735   0.718   2.260  15.525  2.2305 -1.1628  0.5959
15748TIP3    H268736   0.812   2.210  15.417  0.0561 -0.6189 -1.6355
15749TIP3   OH268737   0.427   6.694   0.912  0.2766  0.3634  0.6806
15749TIP3    H168738   0.398   6.634   0.844  0.0926  0.5000  0.6384
15749TIP3    H268739   0.378   6.668   0.990  0.1073  0.5347  0.6323
15750TIP3   OH268740   0.475   5.914  11.706  0.0630 -0.2042 -0.0119
15750TIP3    H168741   0.503   5.925  11.797  0.2398 -0.5014 -0.0257
15750TIP3    H268742   0.514   5.830  11.680 -0.1882 -0.2364 -0.2846
15751TIP3   OH268743   3.267   0.716  16.714 -0.5246 -0.2080  0.2062
15751TIP3    H168744   3.235   0.749  16.630  0.1645 -2.3518 -0.9911
15751TIP3    H268745   3.188   0.689  16.761 -0.8378 -0.1239 -0.2681
15752TIP3   OH268746   0.361   2.151   5.759  0.1518  0.5950 -0.2798
15752TIP3    H168747   0.291   2.159   5.694 -1.6495 -0.8219  1.3896
15752TIP3    H268748   0.318   2.161   5.843  2.1206  0.5088  0.7969
15753TIP3   OH268749   3.903   3.648   2.758 -0.0326  0.1379 -0.1703
15753TIP3    H168750   3.962   3.640   2.683 -0.2920 -1.0358 -0.2670
15753TIP3    H268751   3.868   3.559   2.771  1.5616 -0.2063  2.6044
15754TIP3   OH268752   4.177   5.824  15.346  0.4898  0.2609  0.0198
15754TIP3    H168753   4.191   5.729  15.344  0.8730  0.2961  0.6471
15754TIP3    H268754   4.084   5.835  15.325  0.9678 -0.0827 -2.5197
15755TIP3   OH268755   3.609   2.691  16.313 -0.2691  0.3538  0.1526
15755TIP3    H168756   3.590   2.607  16.355  0.8885 -1.3738 -2.4823
15755TIP3    H268757   3.701   2.707  16.334  0.2899 -0.4755 -1.5191
15756TIP3   OH268758   3.784   3.524   0.627 -0.0786  0.1684  0.2240
15756TIP3    H168759   3.732   3.505   0.705  1.3149  0.6957  1.3249
15756TIP3    H268760   3.755   3.459   0.563 -0.7247 -0.7847  1.4338
15757TIP3   OH268761   5.827   3.960  14.019 -0.2678  0.1581 -0.0647
15757TIP3    H168762   5.865   3.907  13.949  0.4652  2.6574 -1.6853
15757TIP3    H268763   5.794   4.038  13.975 -1.4002  1.0372  2.1917
15758TIP3   OH268764   6.322   1.530   0.717  0.5275  0.5817 -0.4539
15758TIP3    H168765   6.351   1.439   0.707  1.8190  0.8735  0.3890
15758TIP3    H268766   6.322   1.545   0.811 -3.6499  0.2845 -0.2275
15759TIP3   OH268767   6.701   6.417   2.647 -0.3616  0.0608 -0.2261
15759TIP3    H168768   6.758   6.340   2.642 -0.3586 -0.3823  3.5799
15759TIP3    H268769   6.673   6.420   2.738 -1.7813  3.6346 -0.6149
15760TIP3   OH268770   0.493   5.823  13.441 -0.1031  0.3563  0.0691
15760TIP3    H168771   0.523   5.879  13.370 -0.9059 -1.8699 -2.1821
15760TIP3    H268772   0.415   5.779  13.406 -0.0756 -1.4333  2.0434
15761TIP3   OH268773   5.372   0.653  11.013 -0.3993 -0.1519 -0.4732
15761TIP3    H168774   5.396   0.693  10.929  0.9581  0.2463  0.0866
15761TIP3    H268775   5.277   0.642  11.007 -0.3355 -0.1547 -2.0727
15762TIP3   OH268776   1.423   5.689   5.252 -0.3326  0.2712  0.6238
15762TIP3    H168777   1.368   5.667   5.177 -0.0400 -0.0455  0.4937
15762TIP3    H268778   1.421   5.784   5.257  0.6988  0.3951 -0.6103
15763TIP3   OH268779   5.615   5.983   4.346  0.4059  0.3487  0.0933
15763TIP3    H168780   5.565   6.054   4.305 -1.7718 -1.7710 -1.1643
15763TIP3    H268781   5.706   6.011   4.337 -0.2723  2.2931 -1.7488
15764TIP3   OH268782   6.394   2.195  15.536 -0.5702 -0.6935 -0.2197
15764TIP3    H168783   6.488   2.194  15.521 -0.7135  0.7236 -1.4128
15764TIP3    H268784   6.358   2.134  15.472 -0.6089  0.3979 -1.2889
15765TIP3   OH268785   0.892   3.282   0.769 -0.6384 -0.1655  0.2425
15765TIP3    H168786   0.855   3.354   0.718  0.6437  0.2145 -0.1982
15765TIP3    H268787   0.859   3.203   0.727 -0.9470  0.1641 -0.1442
15766TIP3   OH268788   2.990   6.542   2.262 -0.3035  0.5178 -0.1307
15766TIP3    H168789   2.981   6.529   2.356 -0.1355  1.4372  0.0226
15766TIP3    H268790   3.039   6.624   2.254  0.3434  0.0588 -1.0143
15767TIP3   OH268791   0.875   5.427   4.844  0.0749  0.3130  0.2117
15767TIP3    H168792   0.858   5.512   4.884 -2.1325 -0.0716  0.1703
15767TIP3    H268793   0.799   5.410   4.789  0.1979 -1.9436  0.6548
15768TIP3   OH268794   3.957   1.891   2.891 -0.3511  0.4297 -0.0175
15768TIP3    H168795   4.015   1.819   2.868  0.2349  0.4279  1.3782
15768TIP3    H268796   3.876   1.872   2.844  0.6221  0.2183 -1.6678
15769TIP3   OH268797   2.652   1.364   0.194 -0.5983  0.0230  0.5104
15769TIP3    H168798   2.676   1.424   0.265  0.3604  0.3674 -0.0859
15769TIP3    H268799   2.568   1.326   0.222 -0.0449 -0.1508  2.0071
15770TIP3   OH268800   4.029   0.566  15.477 -0.0145  0.1659  0.5690
15770TIP3    H168801   4.065   0.622  15.546  0.4711 -0.3803  0.7716
15770TIP3    H268802   3.960   0.618  15.437  1.4884  1.5351 -0.3193
15771TIP3   OH268803   1.601   3.725   0.419  0.0230  0.5234 -0.3746
15771TIP3    H168804   1.681   3.774   0.432  1.5987 -0.9694 -3.3108
15771TIP3    H268805   1.616   3.675   0.339 -2.8623 -1.8450  0.3495
15772TIP3   OH268806   2.651   5.997   5.194  0.2203  0.9047 -0.0595
15772TIP3    H168807   2.565   5.996   5.236 -1.0023  0.1758 -2.4041
15772TIP3    H268808   2.637   6.042   5.111  1.8491 -0.1841 -0.9894
15773TIP3   OH268809   2.344   2.596   5.946  0.1240  0.3433 -0.4762
15773TIP3    H168810   2.424   2.627   5.989 -0.7600  0.9477  0.7859
15773TIP3    H268811   2.328   2.509   5.985  0.7015 -0.2309 -1.4769
15774TIP3   OH268812   1.528   3.359  11.582  0.1948  0.2948  0.0760
15774TIP3    H168813   1.465   3.411  11.532  0.0908 -0.0946 -0.2047
15774TIP3    H268814   1.565   3.420  11.646 -1.8574  0.0904  1.5670
15775TIP3   OH268815   6.200   0.832   0.824 -0.3131  0.6969 -0.2737
15775TIP3    H168816   6.191   0.816   0.731  0.6782 -0.4891 -0.1910
15775TIP3    H268817   6.265   0.902   0.830  2.5048 -1.7036 -0.4490
15776TIP3   OH268818   4.984   1.012  15.927 -0.2086 -0.0600 -0.4455
15776TIP3    H168819   4.935   0.956  15.987  0.3506 -0.3074 -0.2237
15776TIP3    H268820   4.929   1.015  15.848 -1.8816  1.7652  0.6963
15777TIP3   OH268821   4.259   5.619   5.713 -0.2048 -0.0312 -0.0526
15777TIP3    H168822   4.337   5.567   5.732 -0.6313 -0.2095  1.3718
15777TIP3    H268823   4.256   5.684   5.784 -0.8707  0.5326 -0.5880
15778TIP3   OH268824   5.737   2.067  14.094  0.1528  0.8869  0.5794
15778TIP3    H168825   5.649   2.032  14.077  0.0603 -0.2905  3.0858
15778TIP3    H268826   5.722   2.149  14.141  0.3834  0.8830  0.6619
15779TIP3   OH268827   0.497   6.319  13.360 -0.3288 -0.4734  0.0201
15779TIP3    H168828   0.413   6.276  13.376 -0.0306 -1.1431 -0.1971
15779TIP3    H268829   0.479   6.379  13.287 -0.6117 -0.6282 -0.0398
15780TIP3   OH268830   2.014   5.031   0.480 -0.0727  0.4669  0.9356
15780TIP3    H168831   1.985   5.048   0.390 -1.2164 -0.5284  1.0810
15780TIP3    H268832   2.029   5.117   0.518 -1.4899  0.9858  0.3766
15781TIP3   OH268833   0.053   0.488   0.968  0.1087  0.1661  0.0643
15781TIP3    H168834  -0.022   0.539   0.999  0.1886 -0.2552  0.9949
15781TIP3    H268835   0.017   0.430   0.901 -0.3763  0.0578  0.4152
15782TIP3   OH268836   2.036   3.020   2.621 -0.4922  0.3265 -0.5576
15782TIP3    H168837   2.008   3.110   2.602  0.6739  0.9843  0.7157
15782TIP3    H268838   2.025   3.011   2.716 -2.2378 -1.4839 -0.8563
15783TIP3   OH268839   0.783   6.711  15.064  0.3903  0.2307  0.3448
15783TIP3    H168840   0.834   6.630  15.066 -1.1558 -0.8886 -1.5217
15783TIP3    H268841   0.713   6.693  15.001  0.0762  3.0903 -0.2363
15784TIP3   OH268842   2.776   0.322  15.584 -0.2185 -0.0752  0.2322
15784TIP3    H168843   2.775   0.322  15.680  0.3856 -1.3602  0.2654
15784TIP3    H268844   2.707   0.383  15.559 -0.5893  0.0484  1.4916
15785TIP3   OH268845   6.595   1.927   4.708 -0.1525 -0.1064  1.1751
15785TIP3    H168846   6.575   2.019   4.720  0.2744  0.1657 -0.0954
15785TIP3    H268847   6.592   1.890   4.797  1.0345  1.4014  1.8935
15786TIP3   OH268848   6.200   0.955   5.501 -0.1906  0.3207 -0.7192
15786TIP3    H168849   6.266   1.022   5.479 -0.6110  0.2222 -2.4191
15786TIP3    H268850   6.233   0.916   5.582  0.1940  2.4007  0.1955
15787TIP3   OH268851   0.766   5.117   1.441 -0.1984  0.6478  0.1359
15787TIP3    H168852   0.854   5.079   1.449 -0.1351  0.9758  1.1326
15787TIP3    H268853   0.782   5.211   1.428 -0.3565  1.3923  4.0824
15788TIP3   OH268854   1.019   0.758   3.330 -0.1990  0.1595  0.2816
15788TIP3    H168855   1.058   0.708   3.259 -0.5452 -1.1768  0.9974
15788TIP3    H268856   0.989   0.692   3.392  2.1972  1.2810  2.8390
15789TIP3   OH268857   0.479   0.804   4.878 -0.8136  0.4844 -0.2028
15789TIP3    H168858   0.418   0.855   4.931 -0.1262  1.0746  0.0233
15789TIP3    H268859   0.504   0.731   4.934 -1.7960 -0.1314 -0.5277
15790TIP3   OH268860   1.698   5.596  14.734 -0.4734 -0.2845  0.0380
15790TIP3    H168861   1.715   5.541  14.811  0.2547 -1.9313 -1.2382
15790TIP3    H268862   1.604   5.614  14.738 -0.2508  0.6749  1.9302
15791TIP3   OH268863   0.988   3.140  10.547  0.4308  0.0299  0.5672
15791TIP3    H168864   1.074   3.183  10.549  0.7723 -0.4380 -1.6816
15791TIP3    H268865   0.937   3.185  10.615  1.8731  1.5716  0.6808
15792TIP3   OH268866   6.807   2.842   3.403  0.0861 -0.3230  0.2254
15792TIP3    H168867   6.901   2.846   3.419  0.0768  1.5387  0.0368
15792TIP3    H268868   6.769   2.816   3.487  0.6285  1.0736  0.9267
15793TIP3   OH268869   5.424   4.315   2.734  0.3103  0.2016 -0.0982
15793TIP3    H168870   5.363   4.249   2.700  1.4210 -0.6248 -0.5265
15793TIP3    H268871   5.381   4.348   2.813 -0.3693 -0.8926  0.0114
15794TIP3   OH268872   0.364   4.970   5.137  0.3052  0.3714  0.0935
15794TIP3    H168873   0.394   4.946   5.224  1.4252 -0.4583 -0.4944
15794TIP3    H268874   0.443   4.998   5.091  0.0006 -0.6130 -1.1000
15795TIP3   OH268875   2.180   1.858   1.067 -0.2862 -0.3563  0.1570
15795TIP3    H168876   2.176   1.901   1.152  2.6474 -0.7143  0.5833
15795TIP3    H268877   2.131   1.916   1.008 -1.1553  0.6249  1.7714
15796TIP3   OH268878   3.768   6.412   2.866 -0.3706  0.1022  0.1201
15796TIP3    H168879   3.804   6.428   2.779 -1.6647  3.9555  0.1167
15796TIP3    H268880   3.822   6.464   2.925 -1.8384  0.6779  1.0223
15797TIP3   OH268881   1.048   6.107   2.094 -0.4113  0.2182 -0.0089
15797TIP3    H168882   0.975   6.162   2.121 -0.4871 -0.0896  0.4394
15797TIP3    H268883   1.096   6.091   2.175 -0.5470 -0.5937 -0.0773
15798TIP3   OH268884   0.035   6.305  16.032 -0.3206  0.1937 -0.2708
15798TIP3    H168885  -0.018   6.372  15.989  0.4401  0.3259 -1.0486
15798TIP3    H268886   0.082   6.352  16.101 -0.4369  0.2810 -0.2510
15799TIP3   OH268887   3.167   3.980  11.396  0.0812 -0.5328  0.2042
15799TIP3    H168888   3.090   3.953  11.345 -0.8491  1.0718  0.6920
15799TIP3    H268889   3.214   4.040  11.338  0.5693 -0.9110  0.1980
15800TIP3   OH268890   0.176   5.407  10.719 -0.3624 -0.5300 -0.1432
15800TIP3    H168891   0.251   5.351  10.739 -0.5587 -0.3735  1.0940
15800TIP3    H268892   0.105   5.346  10.699 -0.1438 -0.6928 -0.4231
15801TIP3   OH268893   2.826   4.246  15.816  0.1247  0.1180  0.2875
15801TIP3    H168894   2.764   4.177  15.792 -0.9704  0.6881  1.3330
15801TIP3    H268895   2.790   4.326  15.777  1.5914  0.0889 -1.2491
15802TIP3   OH268896   2.478   0.994  14.046 -1.0790  0.0355  0.3059
15802TIP3    H168897   2.394   1.015  14.003 -1.7867  0.3071  1.7575
15802TIP3    H268898   2.489   1.062  14.112  1.0759  0.8815 -0.8478
15803TIP3   OH268899   3.540   5.275   4.464  0.1764  0.2814  0.2920
15803TIP3    H168900   3.608   5.209   4.459 -0.2153 -0.0147 -2.1991
15803TIP3    H268901   3.523   5.285   4.558 -0.1020 -3.5164  0.7964
15804TIP3   OH268902   0.477   6.462   5.766  0.4072 -0.3420 -0.3501
15804TIP3    H168903   0.413   6.513   5.717  0.5316  1.2428  1.0564
15804TIP3    H268904   0.440   6.374   5.770 -0.8000  0.1135 -1.1033
15805TIP3   OH268905   0.190   6.425   2.841  0.3648  0.1338  0.6613
15805TIP3    H168906   0.114   6.476   2.871 -1.7762 -1.7428 -1.1352
15805TIP3    H268907   0.216   6.468   2.759  1.9605  1.3480  1.7479
15806TIP3   OH268908   1.745   0.339   4.558 -0.3418 -0.3997  0.1675
15806TIP3    H168909   1.808   0.327   4.629 -0.8198  0.1806  0.6907
15806TIP3    H268910   1.684   0.266   4.567  0.1113 -0.8443 -0.2143
15807TIP3   OH268911   1.885   2.876   5.915 -0.5109  0.5744 -0.2103
15807TIP3    H168912   1.831   2.856   5.992 -0.2874 -0.1970 -0.2383
15807TIP3    H268913   1.954   2.809   5.917  0.0814  1.1663 -0.5220
15808TIP3   OH268914   4.716   6.682  11.255 -0.7734 -0.8107  0.5321
15808TIP3    H168915   4.807   6.710  11.268 -1.2748  0.9067  0.5838
15808TIP3    H268916   4.722   6.587  11.244  0.9874 -0.7820  0.8643
15809TIP3   OH268917   2.166   6.305   5.755  0.0156  0.3715 -0.3045
15809TIP3    H168918   2.101   6.369   5.726  3.4761  2.2961 -4.7893
15809TIP3    H268919   2.215   6.350   5.824  1.0511  1.8315 -1.9334
15810TIP3   OH268920   4.176   0.128   5.031 -0.1639  0.5194  0.0378
15810TIP3    H168921   4.163   0.071   5.108  0.2644  0.1125 -0.1804
15810TIP3    H268922   4.253   0.180   5.053  0.6207 -0.3583 -0.5365
15811TIP3   OH268923   4.983   5.734   5.298 -0.3442  0.0812  0.2262
15811TIP3    H168924   5.044   5.777   5.357  0.2693 -0.1800 -0.2137
15811TIP3    H268925   4.997   5.775   5.213  0.6351 -1.3231 -0.3240
15812TIP3   OH268926   0.644   4.258   0.376 -0.0427 -0.0328 -0.1416
15812TIP3    H168927   0.599   4.290   0.298 -1.9402 -0.4287  0.7351
15812TIP3    H268928   0.625   4.164   0.378  1.8055 -0.4640 -0.3229
15813TIP3   OH268929   0.879   2.891  12.617 -0.2144 -0.0968 -0.4272
15813TIP3    H168930   0.932   2.965  12.649 -0.5683 -0.1859  0.3819
15813TIP3    H268931   0.941   2.837  12.569 -0.0149  0.8956 -1.3368
15814TIP3   OH268932   4.062   2.635  13.146 -0.1754  0.5174 -0.0742
15814TIP3    H168933   4.119   2.581  13.201  0.0599  0.6543 -0.1785
15814TIP3    H268934   4.053   2.585  13.065  0.4346  0.8463 -0.3550
15815TIP3   OH268935   1.134   6.256   3.780 -0.5303 -0.4958  0.2567
15815TIP3    H168936   1.088   6.250   3.864 -1.0536  3.3781  0.4288
15815TIP3    H268937   1.065   6.259   3.714 -0.2826  0.0213  0.0151
15816TIP3   OH268938   5.163   3.777  12.154  0.1919 -0.2281 -0.1760
15816TIP3    H168939   5.238   3.830  12.179  1.5636 -1.9852 -0.3598
15816TIP3    H268940   5.133   3.736  12.235 -0.1676 -0.0571 -0.2159
15817TIP3   OH268941   4.067   6.104  13.221  0.3065  0.1800 -0.4764
15817TIP3    H168942   3.985   6.075  13.181  0.5424 -1.5905  0.2080
15817TIP3    H268943   4.091   6.183  13.173 -0.1048 -1.0882 -2.9634
15818TIP3   OH268944   0.793   3.368   3.812 -0.4130 -0.0935 -0.4985
15818TIP3    H168945   0.717   3.311   3.822 -0.2342 -0.5129 -1.4218
15818TIP3    H268946   0.817   3.392   3.902 -0.6492 -1.2684 -0.1015
15819TIP3   OH268947   1.729   4.114  15.541  0.0925 -0.5993  0.7731
15819TIP3    H168948   1.748   4.203  15.511 -0.1454 -0.1966  1.7723
15819TIP3    H268949   1.672   4.077  15.473 -1.0782  0.5636  1.0879
15820TIP3   OH268950   1.317   3.874   3.446 -0.4409  0.1934  0.2818
15820TIP3    H168951   1.408   3.871   3.419  0.3231  0.4177  2.5965
15820TIP3    H268952   1.320   3.893   3.540 -2.8906  0.9259  0.2923
15821TIP3   OH268953   6.544   2.454  14.136  0.0758 -0.7144  0.1973
15821TIP3    H168954   6.631   2.430  14.167  0.7122  0.0260 -0.9399
15821TIP3    H268955   6.509   2.374  14.096  0.7657 -0.6786 -0.4911
15822TIP3   OH268956   1.045   4.080   1.846  0.2246  0.3354 -0.6819
15822TIP3    H168957   1.061   4.173   1.833 -0.7619  0.3418 -2.0887
15822TIP3    H268958   1.099   4.056   1.922 -0.2170  2.2331  0.2790
15823TIP3   OH268959   5.036   3.084   5.167  0.1023  0.6810  0.1406
15823TIP3    H168960   5.104   3.100   5.101 -0.5072  0.5420 -0.5346
15823TIP3    H268961   5.050   3.152   5.233  0.2210  1.3361 -0.5455
15824TIP3   OH268962   5.090   2.961   4.734 -0.0756  0.0891 -0.3532
15824TIP3    H168963   5.043   3.026   4.683 -1.2816 -0.5218 -0.0663
15824TIP3    H268964   5.131   2.904   4.670  0.5763  0.8310 -0.6060
15825TIP3   OH268965   4.347   5.714   3.141 -0.2326 -0.3876  0.4802
15825TIP3    H168966   4.278   5.762   3.096 -0.6476 -0.5664  0.9128
15825TIP3    H268967   4.397   5.671   3.071 -0.7374 -0.4896  0.1822
15826TIP3   OH268968   2.802   3.130  11.746 -0.0519 -0.2067  0.0638
15826TIP3    H168969   2.809   3.054  11.688 -1.8536  0.1343 -0.6797
15826TIP3    H268970   2.795   3.093  11.834 -1.9442 -1.0127 -0.3677
15827TIP3   OH268971   3.894   5.717  11.246 -0.4690 -0.0059 -0.0784
15827TIP3    H168972   3.802   5.740  11.233 -0.7977 -1.4876 -0.5744
15827TIP3    H268973   3.928   5.704  11.157 -0.5498 -2.2109  0.1580
15828TIP3   OH268974   6.554   0.230   2.706  0.2573 -0.4088 -0.4738
15828TIP3    H168975   6.478   0.280   2.677 -1.9221 -2.5714  1.0969
15828TIP3    H268976   6.522   0.140   2.713  2.7130 -1.2673  1.1894
15829TIP3   OH268977   5.957   0.269   0.598 -0.2669 -0.2824  0.4009
15829TIP3    H168978   5.940   0.226   0.514 -0.8830  1.3812 -0.3571
15829TIP3    H268979   6.026   0.216   0.638  1.7171  0.1567 -2.1653
15830TIP3   OH268980   1.438   5.316   5.890  0.2282  0.0693 -0.0599
15830TIP3    H168981   1.423   5.398   5.936  1.3681  0.6678 -0.6953
15830TIP3    H268982   1.494   5.265   5.949 -1.8071 -0.9800  1.0617
15831TIP3   OH268983   4.324   1.221   4.208  0.7130 -0.1240  0.4345
15831TIP3    H168984   4.323   1.137   4.254 -0.2987 -0.1344  0.3958
15831TIP3    H268985   4.289   1.203   4.121  1.6642  0.1035 -0.0219
15832TIP3   OH268986   0.183   4.477   2.366  0.3042 -0.0030  0.2535
15832TIP3    H168987   0.226   4.402   2.325 -1.5366 -1.8794  1.5586
15832TIP3    H268988   0.124   4.510   2.298  0.3830 -0.3775  0.0005
15833TIP3   OH268989   1.733   5.987   0.660 -0.3606 -0.6132  0.0667
15833TIP3    H168990   1.667   6.050   0.631 -0.6586 -0.4595  1.0332
15833TIP3    H268991   1.683   5.917   0.702 -0.0899 -1.9133 -1.6714
15834TIP3   OH268992   4.864   4.039  12.365  0.2029  0.5599  0.6327
15834TIP3    H168993   4.783   4.045  12.416 -0.6898 -0.0474 -0.6713
15834TIP3    H268994   4.867   4.120  12.315  0.0291  0.2760  0.1563
15835TIP3   OH268995   2.533   2.756  12.008  0.8789  0.5782  0.0570
15835TIP3    H168996   2.451   2.788  11.969  1.0151  0.8327 -0.0173
15835TIP3    H268997   2.510   2.736  12.099  0.5694  0.0180 -0.1361
15836TIP3   OH268998   1.432   0.916  14.453  0.2246  0.5600  0.5109
15836TIP3    H168999   1.375   0.872  14.390  0.9515 -0.8542  0.7983
15836TIP3    H269000   1.406   1.008  14.449 -2.0951 -0.0369  0.6867
15837TIP3   OH269001   6.209   4.890  12.655  0.6362  0.9278 -0.2462
15837TIP3    H169002   6.173   4.948  12.723 -0.4115  0.0851 -0.0617
15837TIP3    H269003   6.302   4.882  12.677  0.6947  2.1186  0.0208
15838TIP3   OH269004   5.597   0.088   5.689  0.3435 -0.0237 -0.1732
15838TIP3    H169005   5.527   0.026   5.670  0.3997 -0.2538  0.3722
15838TIP3    H269006   5.675   0.033   5.700  0.2202  0.0579  1.2188
15839TIP3   OH269007   2.865   1.392  16.800  0.3410 -0.0235  0.1690
15839TIP3    H169008   2.804   1.406  16.873 -1.3695 -1.0086 -0.9983
15839TIP3    H269009   2.883   1.480  16.766  0.0678  0.3278  0.9139
15840TIP3   OH269010   4.977   6.772  16.748 -0.0005 -0.2572  0.0935
15840TIP3    H169011   5.046   6.725  16.701 -0.4575  0.0564 -0.8974
15840TIP3    H269012   4.966   6.854  16.701 -1.7913 -0.7429 -0.4113
15841TIP3   OH269013   2.091   3.101   4.821 -0.0242  0.1447 -0.0905
15841TIP3    H169014   2.153   3.088   4.749 -0.5299  0.8994 -0.6759
15841TIP3    H269015   2.019   3.040   4.803 -1.2030  1.8316 -1.4702
15842TIP3   OH269016   6.022   4.022   3.129 -0.2164 -0.0608  1.3693
15842TIP3    H169017   5.930   4.003   3.148 -1.0055  1.8627 -0.2223
15842TIP3    H269018   6.067   3.937   3.139 -1.9488 -0.8231  3.1891
15843TIP3   OH269019   4.149   5.276  14.409  0.0878  0.5133 -0.5296
15843TIP3    H169020   4.066   5.230  14.422  0.4627  0.2479  1.2006
15843TIP3    H269021   4.142   5.313  14.321 -2.5126  1.8245  0.1041
15844TIP3   OH269022   0.185   2.660   3.764  0.5499  0.2316 -0.2376
15844TIP3    H169023   0.226   2.627   3.684 -0.7647  0.0462 -0.8581
15844TIP3    H269024   0.165   2.751   3.744  2.4371  0.9435  0.7961
15845TIP3   OH269025   1.922   4.898   2.231  0.2769  0.0880 -0.4499
15845TIP3    H169026   1.891   4.810   2.254  1.6934 -0.6366 -1.2075
15845TIP3    H269027   1.957   4.889   2.142  1.1129  1.2377 -0.2626
15846TIP3   OH269028   4.345   4.845   0.206 -0.5089 -0.3728  0.2585
15846TIP3    H169029   4.255   4.814   0.210 -1.1019  1.0836 -0.7660
15846TIP3    H269030   4.369   4.836   0.114 -0.5430  1.6391  0.0108
15847TIP3   OH269031   5.984   0.005   4.829 -0.0756  0.4524 -0.2245
15847TIP3    H169032   6.000  -0.068   4.889 -2.0747  0.6177  0.5896
15847TIP3    H269033   6.029  -0.019   4.749 -1.3144 -2.0721 -0.2565
15848TIP3   OH269034   0.386   0.064  15.785 -0.3592 -0.3249 -0.0813
15848TIP3    H169035   0.441   0.137  15.756 -0.2454  0.0242  0.9995
15848TIP3    H269036   0.321   0.055  15.715 -1.0746  1.5506  0.2821
15849TIP3   OH269037   5.919   0.103  12.785 -0.4298 -0.1130  0.4198
15849TIP3    H169038   5.837   0.067  12.752  0.1360  0.1544 -1.4103
15849TIP3    H269039   5.986   0.065  12.729  0.4664  1.4694  0.3542
15850TIP3   OH269040   4.337   4.800  14.539  0.0703 -0.6040  0.0210
15850TIP3    H169041   4.254   4.848  14.543  0.8709  0.7686  0.6161
15850TIP3    H269042   4.395   4.846  14.599  1.0100 -2.0944  0.3184
15851TIP3   OH269043   0.139   1.254   1.524 -0.0598  0.0771 -0.1973
15851TIP3    H169044   0.153   1.248   1.429 -2.5099  0.6237 -0.6608
15851TIP3    H269045   0.044   1.259   1.534  0.0393 -1.4112  2.4097
15852TIP3   OH269046   5.678   4.681  15.869 -0.1727 -0.5001 -0.5003
15852TIP3    H169047   5.758   4.733  15.861 -0.5651  0.4956  1.3998
15852TIP3    H269048   5.697   4.620  15.941 -1.8850  1.4532  1.7772
15853TIP3   OH269049   1.370   5.087  11.207  0.4431 -0.3696 -0.1681
15853TIP3    H169050   1.390   5.121  11.119  0.3450 -1.7632 -0.7649
15853TIP3    H269051   1.305   5.148  11.242  0.3501  0.1197 -1.1402
15854TIP3   OH269052   6.709   0.441   4.172  0.1352  0.1000  0.1627
15854TIP3    H169053   6.619   0.461   4.201  0.3820  1.2514  0.1696
15854TIP3    H269054   6.755   0.524   4.180  1.2318 -0.5056  0.2309
15855TIP3   OH269055   4.130   1.190  12.735  0.6539 -0.4720  0.6139
15855TIP3    H169056   4.214   1.228  12.760  0.2143  1.1947 -0.2324
15855TIP3    H269057   4.151   1.104  12.700  1.9980 -0.1103  0.4788
15856TIP3   OH269058   5.171   1.121  15.571  0.1236 -0.1546  0.0000
15856TIP3    H169059   5.190   1.036  15.609 -0.8005 -0.2699  0.2117
15856TIP3    H269060   5.229   1.127  15.495  0.5840 -0.7343  0.3017
15857TIP3   OH269061   1.515   2.149  11.748 -0.3464  0.0837  0.2575
15857TIP3    H169062   1.469   2.164  11.831  1.9962  1.6421  1.3773
15857TIP3    H269063   1.466   2.202  11.685 -1.9665 -0.8597  0.6569
15858TIP3   OH269064   5.500   3.409   5.300 -0.7362 -0.0755 -0.2805
15858TIP3    H169065   5.507   3.414   5.396 -0.1843 -0.6925 -0.2804
15858TIP3    H269066   5.565   3.472   5.268  0.5206 -1.2847 -0.2399
15859TIP3   OH269067   5.285   3.254   4.481 -0.3407 -0.0033 -0.1553
15859TIP3    H169068   5.275   3.333   4.427  0.2662  0.2420  0.0878
15859TIP3    H269069   5.197   3.216   4.483 -0.3819 -0.0222 -1.3208
15860TIP3   OH269070   4.600   1.062  12.532 -0.9761  0.3680 -0.3019
15860TIP3    H169071   4.578   0.971  12.511 -0.2672  0.1199 -0.0074
15860TIP3    H269072   4.518   1.110  12.520 -1.4461 -0.3692 -0.1153
15861TIP3   OH269073   6.664   0.143  14.438  0.2733 -0.1919 -0.4019
15861TIP3    H169074   6.628   0.157  14.526  0.1160 -2.4718 -0.0480
15861TIP3    H269075   6.587   0.122  14.384  0.7698 -3.4357 -0.0032
15862TIP3   OH269076   0.186   1.710  11.420 -0.1269  0.0836  0.1539
15862TIP3    H169077   0.244   1.651  11.469  2.2546 -0.0207 -2.4886
15862TIP3    H269078   0.162   1.660  11.342 -4.8395 -0.2361  1.5367
15863TIP3   OH269079   2.278   1.348   3.644  0.2019  0.3810 -0.2850
15863TIP3    H169080   2.321   1.344   3.729  1.4031 -1.5030 -0.9178
15863TIP3    H269081   2.218   1.422   3.651  1.1265  1.0062  1.7787
15864TIP3   OH269082   0.568   4.586   3.889  0.5172  0.0014  0.1167
15864TIP3    H169083   0.575   4.584   3.984  1.6077 -0.5188  0.0411
15864TIP3    H269084   0.578   4.495   3.862 -2.3288 -0.2648 -0.3752
15865TIP3   OH269085   2.429   5.659   0.055 -0.2155  0.3413  0.1039
15865TIP3    H169086   2.439   5.603   0.132  0.5330  0.5529  0.1761
15865TIP3    H269087   2.483   5.736   0.074  0.5044  0.1025 -0.8904
15866TIP3   OH269088   1.299   2.311  11.643  0.1765 -0.1676  0.3741
15866TIP3    H169089   1.247   2.281  11.569  0.5761  1.1145 -0.4621
15866TIP3    H269090   1.236   2.324  11.714 -0.4455  0.0268 -0.2008
15867TIP3   OH269091   1.476   3.148   2.808  0.2070  0.0807 -0.1862
15867TIP3    H169092   1.442   3.116   2.892  0.3730 -1.4266 -0.6624
15867TIP3    H269093   1.570   3.129   2.812  0.0529 -1.0183 -1.1108
15868TIP3   OH269094   1.726   1.033  12.724 -0.0438 -0.4159 -0.5017
15868TIP3    H169095   1.774   1.057  12.804 -2.5232  1.4049  0.5910
15868TIP3    H269096   1.657   0.974  12.755  0.9840 -2.4752 -1.9335
15869TIP3   OH269097   5.521   4.638   1.079 -0.1643  0.7999 -0.0587
15869TIP3    H169098   5.546   4.643   0.987  0.0554  1.0870  0.0127
15869TIP3    H269099   5.546   4.724   1.114  1.3745  0.0822  0.6759
15870TIP3   OH269100   6.725   5.263   0.282  0.1313  0.8282  0.5131
15870TIP3    H169101   6.661   5.193   0.293  0.7108  0.3124  0.6161
15870TIP3    H269102   6.804   5.219   0.252 -0.2912  1.7474 -2.2459
15871TIP3   OH269103   2.617   1.632  16.074  0.4533  0.1234  0.1219
15871TIP3    H169104   2.647   1.647  16.164 -0.5478  0.6416  0.3789
15871TIP3    H269105   2.628   1.538  16.061 -0.9031 -0.2471  1.3644
15872TIP3   OH269106   1.685   1.048  16.756  0.4432  0.2945  0.1285
15872TIP3    H169107   1.622   1.067  16.686  0.3177 -0.2235  0.0943
15872TIP3    H269108   1.631   1.039  16.835  0.6645  1.6790  0.4527
15873TIP3   OH269109   2.887   5.254   2.548  0.0471  0.0382 -0.0182
15873TIP3    H169110   2.830   5.178   2.558  1.9872 -1.6784 -1.1837
15873TIP3    H269111   2.828   5.328   2.533 -1.8865 -1.3182  0.6327
15874TIP3   OH269112   1.153   3.628  16.973  0.0119 -0.0850 -0.1626
15874TIP3    H169113   1.066   3.628  16.933  0.3536  0.4790 -0.9320
15874TIP3    H269114   1.185   3.718  16.961  0.0309  0.1716  1.6108
15875TIP3   OH269115   2.965   4.212  11.374  0.1069 -0.2598 -0.5200
15875TIP3    H169116   2.973   4.293  11.324  2.2340  0.2706  0.5673
15875TIP3    H269117   2.942   4.146  11.309  2.3284  0.4723 -2.1850
15876TIP3   OH269118   4.657   6.252   4.433 -0.0496 -0.1979  0.3821
15876TIP3    H169119   4.587   6.314   4.413  0.0268 -0.4915 -0.8274
15876TIP3    H269120   4.703   6.292   4.507 -0.8724  0.4879  0.5418
15877TIP3   OH269121   4.168   1.702  14.298  0.4594 -0.1326  0.2892
15877TIP3    H169122   4.176   1.638  14.227 -0.7088  2.3054 -2.1999
15877TIP3    H269123   4.093   1.671  14.349 -0.3017 -0.6135 -1.0595
15878TIP3   OH269124   2.764   3.359  14.451 -0.0355  0.5972  0.3143
15878TIP3    H169125   2.807   3.295  14.507  2.3356  0.8110 -1.1079
15878TIP3    H269126   2.766   3.320  14.364 -0.3599  1.7664 -0.2363
15879TIP3   OH269127   6.590   4.924   9.931  0.1950  0.0732 -0.5401
15879TIP3    H169128   6.574   5.004   9.882 -0.2705 -0.0733 -0.6255
15879TIP3    H269129   6.685   4.912   9.927  0.4487  1.4060  0.7040
15880TIP3   OH269130   5.571   1.575  12.740 -0.1580  0.3990  0.2253
15880TIP3    H169131   5.594   1.585  12.648 -0.8777 -0.1682 -0.0290
15880TIP3    H269132   5.493   1.629  12.751  0.9380  1.8993  0.9514
15881TIP3   OH269133   0.146   6.175  12.237  0.5704 -0.4281  0.4402
15881TIP3    H169134   0.153   6.097  12.292 -0.3571 -1.3396 -0.7092
15881TIP3    H269135   0.088   6.150  12.166  2.8498  0.2317 -1.8209
15882TIP3   OH269136   2.957   5.343  16.721  0.0061  0.4571  0.2306
15882TIP3    H169137   2.867   5.377  16.729  0.0493  0.2280  2.6158
15882TIP3    H269138   2.945   5.254  16.688 -0.4130  1.2333 -1.8773
15883TIP3   OH269139   5.098   3.046  16.466  0.1049  0.0052 -0.0459
15883TIP3    H169140   5.143   3.118  16.511 -1.0655  1.5844 -1.2736
15883TIP3    H269141   5.005   3.069  16.472 -0.2790 -1.3274 -0.6276
15884TIP3   OH269142   2.749   4.284   2.715  0.4910  0.3498  0.1164
15884TIP3    H169143   2.800   4.328   2.783 -0.4168  1.0852  0.3379
15884TIP3    H269144   2.759   4.191   2.735  1.7856  0.4603  0.1112
15885TIP3   OH269145   0.770   0.115   3.748 -0.2625  0.3896  0.0273
15885TIP3    H169146   0.777   0.073   3.834 -0.8909  0.7106  0.2418
15885TIP3    H269147   0.707   0.186   3.761 -1.4238 -0.4156 -1.0387
15886TIP3   OH269148   5.210   2.648  10.705 -0.5030 -0.5382 -0.2384
15886TIP3    H169149   5.167   2.571  10.742 -1.1217 -1.3889 -2.5406
15886TIP3    H269150   5.304   2.628  10.709 -0.4174  0.0384  2.0756
15887TIP3   OH269151   2.434   0.705  16.165 -0.2956 -0.2423 -0.2577
15887TIP3    H169152   2.372   0.674  16.231  0.4163  0.7538  0.9165
15887TIP3    H269153   2.429   0.801  16.171  0.0603 -0.1432 -1.3905
15888TIP3   OH269154   3.234   0.027  11.633 -0.0826  0.6107  0.5227
15888TIP3    H169155   3.141   0.005  11.642  0.0210 -0.1121 -0.0782
15888TIP3    H269156   3.279  -0.033  11.692  0.3961 -2.5446 -2.6658
15889TIP3   OH269157   3.554   1.146  16.130 -0.6528 -0.1393  0.6132
15889TIP3    H169158   3.553   1.228  16.179 -0.3468  0.6022 -0.5736
15889TIP3    H269159   3.623   1.094  16.170 -0.2204  0.5636  0.7883
15890TIP3   OH269160   4.049   0.007  11.514 -0.0778 -0.7596  0.0509
15890TIP3    H169161   4.092  -0.036  11.439  0.6424 -1.7799  1.0280
15890TIP3    H269162   4.008  -0.064  11.563  2.0459 -0.5776  2.2925
15891TIP3   OH269163   1.487   1.910   4.831 -0.2287 -0.0030 -0.4620
15891TIP3    H169164   1.519   1.893   4.742  2.7512 -0.3806  0.5918
15891TIP3    H269165   1.427   1.837   4.848 -0.0045 -0.5328 -1.7735
15892TIP3   OH269166   2.407   6.176   3.400  0.9093 -0.4886 -0.4141
15892TIP3    H169167   2.470   6.118   3.442  1.1594 -1.2317 -1.7645
15892TIP3    H269168   2.433   6.264   3.427  2.6977 -0.7482 -1.1454
15893TIP3   OH269169   3.536   0.663  16.016 -0.3229  0.4761 -0.1128
15893TIP3    H169170   3.500   0.745  15.984 -0.4648  0.1428 -0.8331
15893TIP3    H269171   3.477   0.596  15.982 -0.1922  0.0705  0.4394
15894TIP3   OH269172   5.645   4.403   3.008 -0.0414  0.0009  0.1029
15894TIP3    H169173   5.713   4.356   3.057  0.1865  0.6477  0.4111
15894TIP3    H269174   5.692   4.446   2.937 -0.2277 -0.0848 -0.0746
15895TIP3   OH269175   0.956   4.105  13.168  0.3193 -0.7470  0.3678
15895TIP3    H169176   1.044   4.137  13.148 -0.5470  0.6525 -1.4901
15895TIP3    H269177   0.924   4.069  13.085 -0.5648 -2.0725  1.2300
15896TIP3   OH269178   1.947   0.037  13.382 -0.0467  0.2489  0.1689
15896TIP3    H169179   2.007   0.080  13.443 -0.3611  0.1861  0.5301
15896TIP3    H269180   1.955  -0.056  13.401  1.2305  0.0542 -1.1638
15897TIP3   OH269181   1.493   5.000   0.004 -0.2515  0.1646  0.1739
15897TIP3    H169182   1.468   4.948   0.081  0.0830  1.5612  1.2683
15897TIP3    H269183   1.443   5.081   0.013 -0.1544  0.3684 -1.0689
15898TIP3   OH269184   6.510   5.723   5.776  0.3749 -0.2393 -0.2752
15898TIP3    H169185   6.439   5.785   5.792  0.1054  0.2034 -2.6718
15898TIP3    H269186   6.587   5.762   5.818  0.0309  1.3445 -1.0557
15899TIP3   OH269187   5.139   5.766  14.143 -0.2657  0.1593  0.4899
15899TIP3    H169188   5.232   5.786  14.134 -0.0834 -0.4059  1.0325
15899TIP3    H269189   5.119   5.708  14.070 -0.6730  1.8198 -0.7792
15900TIP3   OH269190   2.070   1.154   0.815  0.3405  0.0788 -0.3960
15900TIP3    H169191   2.026   1.173   0.731  1.0035  0.0251 -0.7632
15900TIP3    H269192   2.035   1.219   0.875 -0.8906 -0.4943 -0.4502
15901TIP3   OH269193   3.018   6.799  13.233 -0.1907  0.1708  0.1275
15901TIP3    H169194   3.023   6.773  13.325  0.8882  2.0817  0.6691
15901TIP3    H269195   2.930   6.838  13.224 -0.4125 -0.2920  0.2490
15902TIP3   OH269196   2.466   2.514  14.584 -0.4009 -0.1569 -0.5085
15902TIP3    H169197   2.512   2.467  14.653  1.0840  0.2786 -1.1672
15902TIP3    H269198   2.484   2.465  14.505 -0.0062  0.7216 -0.9782
15903TIP3   OH269199   6.226   3.148   1.688  0.5224 -0.0585  0.3150
15903TIP3    H169200   6.187   3.083   1.629  0.4152  0.6156 -0.3785
15903TIP3    H269201   6.186   3.131   1.773  0.5624 -0.9502  0.1647
15904TIP3   OH269202   1.101   4.100  12.636  0.3551 -0.1115 -0.4354
15904TIP3    H169203   1.085   4.039  12.563 -1.4991 -2.8452  2.0054
15904TIP3    H269204   1.015   4.139  12.653  1.1789  2.0181 -0.8328
15905TIP3   OH269205   0.699   6.329   1.545 -0.2369  0.1466  0.2553
15905TIP3    H169206   0.761   6.262   1.577 -0.7688 -0.3815  0.1861
15905TIP3    H269207   0.752   6.384   1.487  0.2156 -0.1931  0.3355
15906TIP3   OH269208   3.583   1.760  16.702  0.0841  0.4368 -0.6708
15906TIP3    H169209   3.551   1.715  16.780  0.4031 -0.1455 -0.8733
15906TIP3    H269210   3.630   1.693  16.653 -1.9894  0.2054 -2.4951
15907TIP3   OH269211   0.330   4.322  11.762  0.3367 -0.0337 -0.0396
15907TIP3    H169212   0.258   4.260  11.751  0.2023  0.0600  0.2918
15907TIP3    H269213   0.377   4.319  11.679  0.6628 -0.9982  0.1717
15908TIP3   OH269214   6.446   1.960  12.388  0.5098  0.5635 -0.1729
15908TIP3    H169215   6.395   2.011  12.325  0.7748  0.3007 -0.5959
15908TIP3    H269216   6.535   1.963  12.355  0.7601  0.9503  0.5230
15909TIP3   OH269217   4.969   0.153   1.548  0.0733 -0.0909 -0.0991
15909TIP3    H169218   4.916   0.204   1.486  0.3298 -0.5003 -0.6641
15909TIP3    H269219   5.006   0.219   1.607 -1.3242  0.1844  0.5327
15910TIP3   OH269220   2.933   2.013  15.225 -1.2640 -0.5436  0.1496
15910TIP3    H169221   2.985   2.091  15.206  0.2335 -0.8143  2.7136
15910TIP3    H269222   2.842   2.041  15.211 -0.7968  1.7720  1.1936
15911TIP3   OH269223   5.642   5.943  12.880  0.4938  0.2839 -0.4305
15911TIP3    H169224   5.712   5.939  12.814  1.1141 -0.2094  0.2387
15911TIP3    H269225   5.563   5.914  12.832  0.6552  1.2090 -1.2875
15912TIP3   OH269226   4.027   2.960   1.543 -0.1286  0.5046  0.0714
15912TIP3    H169227   3.981   3.040   1.518 -0.8646  1.1647  3.0959
15912TIP3    H269228   3.958   2.895   1.552  0.3607 -0.2769 -1.4488
15913TIP3   OH269229   0.872   0.193   4.733  0.2130  0.3656  0.5059
15913TIP3    H169230   0.840   0.132   4.799 -1.7664  1.1129  0.2995
15913TIP3    H269231   0.927   0.139   4.676 -2.3777 -1.5776 -0.3468
15914TIP3   OH269232   6.637   3.613   0.851  0.1714  0.2699  0.2097
15914TIP3    H169233   6.549   3.576   0.841 -0.3187  1.8381 -1.9842
15914TIP3    H269234   6.696   3.540   0.832 -0.6559 -0.4696  0.4166
15915TIP3   OH269235   3.704   5.765  15.094  0.0329  0.0795 -0.8158
15915TIP3    H169236   3.713   5.727  15.006  0.0343  1.4223 -1.4290
15915TIP3    H269237   3.667   5.852  15.078 -0.0742  0.3006  0.5361
15916TIP3   OH269238   5.185   4.105  15.915 -0.3184 -0.1162 -0.3061
15916TIP3    H169239   5.134   4.034  15.954 -0.5053 -0.5904 -1.3814
15916TIP3    H269240   5.259   4.061  15.873 -0.2350  0.3572 -0.6642
15917TIP3   OH269241   1.781   0.027   3.926  0.3693 -0.4359 -0.2417
15917TIP3    H169242   1.863   0.028   3.876  0.4695 -0.5368 -0.0843
15917TIP3    H269243   1.732   0.102   3.893 -1.0835 -2.4208 -2.9515
15918TIP3   OH269244   3.769   5.142   4.995 -0.2204 -0.6576 -0.4124
15918TIP3    H169245   3.833   5.190   4.943 -1.0845 -0.5323 -1.3858
15918TIP3    H269246   3.819   5.107   5.069  0.6445  0.7383 -0.3221
15919TIP3   OH269247   6.628   6.020   4.547 -0.5443 -0.2478  0.4507
15919TIP3    H169248   6.633   6.114   4.563  0.2950 -0.0822 -0.6216
15919TIP3    H269249   6.719   5.990   4.554 -0.7120 -0.8552  0.1233
15920TIP3   OH269250   1.557   2.317   2.336 -0.0164 -0.3783 -0.3432
15920TIP3    H169251   1.573   2.305   2.242 -0.0547  0.7040 -0.4983
15920TIP3    H269252   1.512   2.237   2.363  2.1299 -1.7978 -0.7187
15921TIP3   OH269253   4.838   5.399  14.201  0.2756 -0.5913  0.6016
15921TIP3    H169254   4.766   5.336  14.200  0.6595 -1.1149 -1.9341
15921TIP3    H269255   4.917   5.345  14.201  0.6750 -0.0355  1.7412
15922TIP3   OH269256   4.940   2.038  16.131 -0.0920 -0.1270 -0.3758
15922TIP3    H169257   4.957   1.958  16.181  0.9548 -0.8863 -1.8388
15922TIP3    H269258   4.983   2.107  16.180  0.5582 -0.7825 -0.0008
15923TIP3   OH269259   5.656   6.723   2.609 -0.3736 -0.0886 -0.1764
15923TIP3    H169260   5.711   6.791   2.571 -1.3057  0.1725 -1.0861
15923TIP3    H269261   5.636   6.755   2.697  0.2043  0.2221 -0.1516
15924TIP3   OH269262   3.636   0.676  11.028  0.0009 -0.3795 -0.1867
15924TIP3    H169263   3.691   0.624  10.970  1.4429  1.0698 -0.1947
15924TIP3    H269264   3.558   0.694  10.976 -0.7247 -2.7817 -0.0448
15925TIP3   OH269265   5.022   0.352  14.568  0.4452 -0.0045 -0.0463
15925TIP3    H169266   4.943   0.395  14.536  0.6514  0.3068 -0.1419
15925TIP3    H269267   5.079   0.346  14.491 -0.1161 -1.7027 -0.3719
15926TIP3   OH269268   4.568   0.685  13.492  0.3180 -0.1348  0.0622
15926TIP3    H169269   4.549   0.612  13.433 -3.7713  0.5644  0.2233
15926TIP3    H269270   4.582   0.760  13.434  1.8598 -0.4776 -0.0454
15927TIP3   OH269271   5.959   1.808  13.799  0.2046  0.3610 -0.1889
15927TIP3    H169272   5.991   1.898  13.805  0.1724  0.2846  1.9250
15927TIP3    H269273   6.012   1.767  13.731  1.6877  1.4004  0.3116
15928TIP3   OH269274   3.301   4.685   0.671  0.8823  0.5576 -0.5348
15928TIP3    H169275   3.322   4.696   0.764  0.1541 -1.0334 -0.1470
15928TIP3    H269276   3.222   4.633   0.671  1.3557 -0.2064 -2.0716
15929TIP3   OH269277   1.881   3.758   0.389  0.3005 -0.3642  0.2066
15929TIP3    H169278   1.924   3.736   0.307  2.1415 -0.3048  1.1045
15929TIP3    H269279   1.918   3.697   0.453 -2.2913 -1.5069  0.7435
15930TIP3   OH269280   2.024   2.296   3.561 -0.0335  0.6356  0.5682
15930TIP3    H169281   2.074   2.223   3.598 -1.0338  1.5410  4.0524
15930TIP3    H269282   2.078   2.373   3.578 -0.8519  1.1680  0.8283
15931TIP3   OH269283   3.298   4.371   3.541  0.7641  0.2172  0.1823
15931TIP3    H169284   3.312   4.466   3.540 -3.0595  0.9166 -0.4744
15931TIP3    H269285   3.237   4.355   3.470 -0.3241 -2.4437  1.5817
15932TIP3   OH269286   5.231   0.064  12.596 -0.2356 -1.0095  0.2646
15932TIP3    H169287   5.197   0.043  12.509  0.1085 -1.9710  0.3498
15932TIP3    H269288   5.218   0.158  12.605 -2.9617 -1.3037  0.3214
15933TIP3   OH269289   1.636   5.969   5.028 -0.0252 -0.2377 -0.1808
15933TIP3    H169290   1.542   5.970   5.041  0.0821 -0.8757  0.7463
15933TIP3    H269291   1.671   6.029   5.094  0.2314 -0.1131 -0.4239
15934TIP3   OH269292   2.997   3.149  16.560  0.5467  0.0527  0.2079
15934TIP3    H169293   3.022   3.239  16.536 -1.6670  0.7180  0.1463
15934TIP3    H269294   2.961   3.158  16.649  0.9064 -0.9008  0.4532
15935TIP3   OH269295   5.866   1.980   5.696  0.4737 -0.3798  0.6454
15935TIP3    H169296   5.952   1.947   5.671  0.4320 -0.5131  0.6718
15935TIP3    H269297   5.871   1.993   5.791  0.0557 -1.6784  0.8699
15936TIP3   OH269298   6.821   6.816   0.852  0.3026 -0.1373 -0.5597
15936TIP3    H169299   6.883   6.889   0.846 -0.3927  0.4421 -0.8679
15936TIP3    H269300   6.858   6.748   0.795  1.4534 -0.4225  0.4680
15937TIP3   OH269301   0.040   3.133  14.690  0.0812  0.4265 -0.2862
15937TIP3    H169302   0.135   3.127  14.698  0.3230  1.8507 -1.5700
15937TIP3    H269303   0.026   3.172  14.603 -1.6816  0.1686 -0.1553
15938TIP3   OH269304   1.274   2.563  11.339  0.0639  0.1172  0.4664
15938TIP3    H169305   1.264   2.468  11.346  0.3308  0.0328 -0.2243
15938TIP3    H269306   1.256   2.596  11.428  0.6820 -0.6369  0.8767
15939TIP3   OH269307   4.409   0.452  13.730 -0.1681 -0.7004 -0.3494
15939TIP3    H169308   4.359   0.508  13.788  0.9136  0.2204 -0.2661
15939TIP3    H269309   4.344   0.396  13.688 -1.4824  1.5417 -1.4831
15940TIP3   OH269310   1.730   5.430  16.660  0.1233  0.1925 -0.1284
15940TIP3    H169311   1.687   5.413  16.576  0.7744  0.2032 -0.4639
15940TIP3    H269312   1.808   5.375  16.659  0.4506  0.6461  0.2197
15941TIP3   OH269313   2.869   0.055  12.386 -0.9718 -0.3083  0.2356
15941TIP3    H169314   2.812   0.040  12.311 -0.7048 -0.4779  0.0650
15941TIP3    H269315   2.888  -0.032  12.420 -1.7189 -0.1945  0.9773
15942TIP3   OH269316   4.033   5.882   4.822  0.2815  0.4537  0.3462
15942TIP3    H169317   4.059   5.974   4.826  0.7388  0.3673 -0.3945
15942TIP3    H269318   3.947   5.880   4.864 -0.2463  1.4213 -0.6328
15943TIP3   OH269319   3.960   2.112   3.999  0.3011  0.0646  0.4840
15943TIP3    H169320   3.891   2.067   4.048  0.6679  0.1045  1.0407
15943TIP3    H269321   4.038   2.060   4.014  0.0894 -0.9434 -1.5002
15944TIP3   OH269322   6.838   5.676  12.098  0.2442 -0.2382 -0.3151
15944TIP3    H169323   6.827   5.670  12.193  2.7116 -0.4279  0.0246
15944TIP3    H269324   6.881   5.593  12.074  1.7883  0.7693 -1.1955
15945TIP3   OH269325   5.907   2.670   1.351 -0.2874  0.7257  0.2217
15945TIP3    H169326   5.992   2.702   1.321  0.1765 -2.7924 -2.9378
15945TIP3    H269327   5.927   2.589   1.398 -1.8529 -0.7303 -1.4819
15946TIP3   OH269328   6.789   2.572  12.471  0.1446 -0.2360  0.3600
15946TIP3    H169329   6.879   2.547  12.447  0.0087  0.3825 -0.8422
15946TIP3    H269330   6.745   2.489  12.488 -0.1111 -0.8561 -2.8851
15947TIP3   OH269331   2.225   5.766   1.844  0.5165 -0.0634  0.5154
15947TIP3    H169332   2.299   5.716   1.878  0.6963 -0.5179 -0.5056
15947TIP3    H269333   2.148   5.720   1.876  0.6794 -0.4063  0.4138
15948TIP3   OH269334   0.774   3.299  16.265  0.5373 -0.5933 -0.0593
15948TIP3    H169335   0.679   3.303  16.248  0.2880 -1.8493  0.8805
15948TIP3    H269336   0.781   3.268  16.355  1.8585  0.2243  0.1427
15949TIP3   OH269337   6.008   0.365  13.432  0.1149  0.7255  0.1904
15949TIP3    H169338   5.919   0.339  13.455 -0.4080  1.9843 -0.2891
15949TIP3    H269339   6.016   0.454  13.468  0.6713  1.1571 -0.9678
15950TIP3   OH269340   6.438   5.660   0.336  0.3249 -0.1896  0.2072
15950TIP3    H169341   6.511   5.721   0.330  0.0754  0.3613  2.1240
15950TIP3    H269342   6.478   5.577   0.361  0.4476 -0.2808 -0.2868
15951TIP3   OH269343   3.748   2.580   3.310  0.0823  0.2731  0.3345
15951TIP3    H169344   3.731   2.657   3.257 -1.0403  0.9694  1.6725
15951TIP3    H269345   3.667   2.529   3.306  0.5010 -0.4048  0.2041
15952TIP3   OH269346   4.600   3.850   5.617  0.4634  0.3256 -0.2408
15952TIP3    H169347   4.674   3.817   5.565  1.1349  1.5353 -0.0993
15952TIP3    H269348   4.640   3.880   5.699  0.2643  3.3126 -1.1274
15953TIP3   OH269349   0.575   3.738  10.471  0.4289  0.3305 -0.1093
15953TIP3    H169350   0.547   3.652  10.440 -1.0892  0.9139 -0.4315
15953TIP3    H269351   0.607   3.723  10.560  1.7552 -0.8181 -0.7468
15954TIP3   OH269352   2.873   6.432   1.789 -0.4908  0.0528 -0.3695
15954TIP3    H169353   2.895   6.347   1.751 -0.7536  0.0174 -0.4415
15954TIP3    H269354   2.935   6.443   1.861 -0.6849 -0.3552 -0.1395
15955TIP3   OH269355   4.713   5.724   5.179 -0.2373 -0.3301 -0.4814
15955TIP3    H169356   4.732   5.817   5.186  0.2577 -0.3883 -0.9386
15955TIP3    H269357   4.784   5.681   5.228 -0.3624 -0.4731 -0.4223
15956TIP3   OH269358   1.167   4.255   1.498 -0.0664 -0.6583  0.1150
15956TIP3    H169359   1.219   4.261   1.578  0.3681  0.8458 -0.2520
15956TIP3    H269360   1.084   4.217   1.526 -0.6692  1.6072  1.6845
15957TIP3   OH269361   1.641   5.185  12.749  0.4812  0.0082  0.0841
15957TIP3    H169362   1.707   5.174  12.680  0.7047  0.3663  0.2417
15957TIP3    H269363   1.578   5.247  12.711  0.3268 -0.1989  0.0009
15958TIP3   OH269364   0.776   2.185   4.759  0.0864  0.6489 -0.2768
15958TIP3    H169365   0.852   2.224   4.715 -0.6885  0.5566 -1.7737
15958TIP3    H269366   0.804   2.096   4.782  0.2748  0.4410 -1.2808
15959TIP3   OH269367   3.094   3.473  14.964  0.0456 -0.3089 -0.2351
15959TIP3    H169368   3.025   3.463  14.899 -1.4187 -0.9712  1.3538
15959TIP3    H269369   3.151   3.397  14.951 -0.7107 -0.8898 -0.2075
15960TIP3   OH269370   2.081   0.302  11.953 -0.4062  0.2024 -0.1024
15960TIP3    H169371   2.087   0.301  11.858  0.3461  1.1360 -0.0703
15960TIP3    H269372   2.151   0.243  11.983  0.1435  0.8475 -0.1003
15961TIP3   OH269373   5.248   1.123   0.105  0.9243  0.3202  0.5238
15961TIP3    H169374   5.342   1.126   0.121  0.6575  1.3461  2.1087
15961TIP3    H269375   5.208   1.154   0.186 -0.7910  0.0120 -0.1465
15962TIP3   OH269376   2.182   5.914   3.825 -0.3210  0.4799  0.2149
15962TIP3    H169377   2.185   5.883   3.915 -1.0950 -1.9700 -0.5049
15962TIP3    H269378   2.253   5.867   3.781 -0.0935  1.4655 -0.4890
15963TIP3   OH269379   3.969   4.824   1.544  0.8678  0.0730 -0.5177
15963TIP3    H169380   3.907   4.815   1.616 -0.8401  2.7909 -1.5050
15963TIP3    H269381   3.988   4.734   1.518  0.6531 -0.9587  2.5087
15964TIP3   OH269382   5.856   3.798  13.050  0.6899 -0.1057 -1.0000
15964TIP3    H169383   5.930   3.837  13.097  1.2819 -0.9242 -1.2280
15964TIP3    H269384   5.896   3.751  12.977 -0.1087 -0.0394 -1.4882
15965TIP3   OH269385   3.309   6.408   2.058  0.5951 -0.0420  0.5491
15965TIP3    H169386   3.311   6.493   2.102  1.0508 -0.1396  0.7255
15965TIP3    H269387   3.317   6.344   2.129 -1.5633 -0.3125  0.6041
15966TIP3   OH269388   4.730   0.269  11.721  0.1018  0.0390  0.2396
15966TIP3    H169389   4.656   0.209  11.730  1.8058 -1.9280  2.6850
15966TIP3    H269390   4.782   0.232  11.649  0.8678 -1.2510  1.3868
15967TIP3   OH269391   4.915   2.716   4.706 -0.1194  0.2275  0.1852
15967TIP3    H169392   4.900   2.681   4.619  0.4399  2.4387 -0.8742
15967TIP3    H269393   5.010   2.731   4.710 -0.2925  1.2484  0.7123
15968TIP3   OH269394   2.362   6.032   5.138 -0.5660  0.2715 -0.3655
15968TIP3    H169395   2.295   6.100   5.141 -1.4292 -0.5586  0.0180
15968TIP3    H269396   2.327   5.966   5.078  1.0111  0.9030 -2.0407
15969TIP3   OH269397   1.357   3.535   4.171  0.1178  0.2066 -0.6660
15969TIP3    H169398   1.270   3.565   4.145  0.1186 -0.9268 -2.0641
15969TIP3    H269399   1.354   3.440   4.161  1.6404  0.1867 -1.1797
15970TIP3   OH269400   2.345   0.757  14.456  0.2890  0.5026 -0.0161
15970TIP3    H169401   2.360   0.711  14.539 -1.2019  0.9800  0.5509
15970TIP3    H269402   2.259   0.727  14.428  1.3587 -0.8170 -2.2182
15971TIP3   OH269403   2.604   5.011  15.442 -0.2403  0.5614 -0.4013
15971TIP3    H169404   2.550   4.975  15.371  0.7933 -1.3871 -0.2796
15971TIP3    H269405   2.579   4.960  15.519  1.0412  0.3245 -0.1261
15972TIP3   OH269406   3.626   4.569   3.420  0.0785  0.1684  0.1384
15972TIP3    H169407   3.568   4.632   3.463 -1.0564 -0.9492  0.3149
15972TIP3    H269408   3.570   4.528   3.354  0.3756 -1.6211  0.9549
15973TIP3   OH269409   3.088   6.595   0.395 -0.2086  0.1526 -0.0211
15973TIP3    H169410   3.166   6.649   0.379 -0.4585  0.4080 -0.3790
15973TIP3    H269411   3.016   6.658   0.401 -0.9020 -0.2370 -2.8094
15974TIP3   OH269412   1.995   4.716   3.937  0.0461 -0.0507 -0.2055
15974TIP3    H169413   2.007   4.676   4.023  0.2774 -0.9386 -0.6466
15974TIP3    H269414   1.920   4.670   3.899  1.0764 -0.9324 -1.2157
15975TIP3   OH269415   4.001   6.373  11.349  0.1757 -0.4139 -0.1581
15975TIP3    H169416   3.955   6.434  11.407  0.0590 -0.6706  0.0218
15975TIP3    H269417   3.943   6.363  11.274  0.8379  0.8018 -0.8554
15976TIP3   OH269418   2.160   3.463   1.470  0.0909 -0.5503 -0.0425
15976TIP3    H169419   2.127   3.373   1.465  0.7880 -0.8400  0.3112
15976TIP3    H269420   2.240   3.461   1.418  0.0789 -0.1166 -0.0792
15977TIP3   OH269421   5.365   4.277  14.152 -0.3827 -0.4667 -0.0106
15977TIP3    H169422   5.314   4.358  14.148  1.1535  0.5409 -0.0821
15977TIP3    H269423   5.368   4.256  14.246  1.8157  1.3745  0.4397
15978TIP3   OH269424   2.247   1.677   4.117  0.1334 -0.1015 -0.4402
15978TIP3    H169425   2.165   1.711   4.152  1.1211  0.8830  1.0433
15978TIP3    H269426   2.252   1.587   4.151  0.1863  0.2200  0.4403
15979TIP3   OH269427   3.170   3.457  14.669  0.5509 -0.4073  0.0366
15979TIP3    H169428   3.220   3.500  14.600  0.5486 -0.1278  0.2080
15979TIP3    H269429   3.119   3.390  14.624 -0.7660  0.8882 -0.5065
15980TIP3   OH269430   6.675   5.903  14.548  0.0310 -0.2930 -0.4376
15980TIP3    H169431   6.649   5.812  14.536 -0.7103 -0.0713 -0.5201
15980TIP3    H269432   6.693   5.911  14.642  0.7680 -0.6930 -0.5378
15981TIP3   OH269433   3.484   2.618   1.609  0.3088  0.7529 -0.4970
15981TIP3    H169434   3.474   2.689   1.545 -0.2027 -1.1562 -2.6684
15981TIP3    H269435   3.566   2.575   1.585  0.0754 -0.0392  0.0980
15982TIP3   OH269436   0.156   5.754  15.115 -0.2715 -0.3419 -0.1182
15982TIP3    H169437   0.226   5.695  15.141  1.6687  1.6223 -0.5524
15982TIP3    H269438   0.110   5.708  15.044  0.8156 -1.5291 -0.0752
15983TIP3   OH269439   5.267   4.267   3.621 -0.7223 -0.7253  0.1254
15983TIP3    H169440   5.252   4.225   3.536 -0.5965 -0.3414 -0.0895
15983TIP3    H269441   5.341   4.326   3.606 -1.8191  0.6914  0.0246
15984TIP3   OH269442   4.900   6.800   3.033 -0.1396 -0.3325  0.1005
15984TIP3    H169443   4.904   6.839   2.945  0.8476  0.2431  0.3774
15984TIP3    H269444   4.962   6.727   3.029 -1.0324 -1.0968 -0.0388
15985TIP3   OH269445   0.534   4.566  10.349 -0.3122  0.8520  0.9446
15985TIP3    H169446   0.614   4.573  10.402  0.1519  1.4635  0.1937
15985TIP3    H269447   0.564   4.528  10.266 -0.9151  0.5021  0.8844
15986TIP3   OH269448   1.558   3.761   0.918 -0.0792  0.5039 -0.0730
15986TIP3    H169449   1.551   3.738   0.826  0.2516  1.4979 -0.3669
15986TIP3    H269450   1.646   3.734   0.943 -0.5690 -0.8167  0.2771
15987TIP3   OH269451   5.835   0.192   2.162 -0.2216  0.1289  0.0899
15987TIP3    H169452   5.855   0.280   2.195 -0.4564 -0.0266  0.6459
15987TIP3    H269453   5.914   0.141   2.181 -0.2332  0.1212  0.1159
15988TIP3   OH269454   5.411   1.172  11.005 -0.2177 -0.3364  0.0663
15988TIP3    H169455   5.489   1.227  11.012  1.1324 -2.0029 -0.9064
15988TIP3    H269456   5.416   1.134  10.917 -2.2406 -0.3747 -0.0884
15989TIP3   OH269457   2.349   6.149   0.913  0.1235 -0.4206 -0.0262
15989TIP3    H169458   2.370   6.058   0.893  0.0006 -0.3879 -0.3029
15989TIP3    H269459   2.257   6.159   0.888  0.3971  0.0405 -0.8990
15990TIP3   OH269460   5.043   1.590  16.944 -0.1709  0.5964 -0.0971
15990TIP3    H169461   5.114   1.543  16.989 -1.0670 -0.4383  0.2655
15990TIP3    H269462   5.081   1.676  16.923  1.1353  0.1190  0.2239
15991TIP3   OH269463   4.884   6.392  14.038 -0.0076 -0.1987 -0.1157
15991TIP3    H169464   4.880   6.396  13.943  0.9303  1.7661 -0.1219
15991TIP3    H269465   4.968   6.353  14.058  0.3737  0.5940 -0.1220
15992TIP3   OH269466   6.004   1.901  14.939 -0.2542 -0.2953  0.2778
15992TIP3    H169467   6.021   1.981  14.988 -0.4872 -1.8001  3.0404
15992TIP3    H269468   6.016   1.831  15.003 -1.7110 -2.3803 -1.5716
15993TIP3   OH269469   3.155   2.211   5.249 -0.0967 -0.1093  0.5878
15993TIP3    H169470   3.128   2.303   5.254  0.5374  0.0689  0.8307
15993TIP3    H269471   3.073   2.163   5.235 -0.1376  0.7619 -2.9885
15994TIP3   OH269472   5.747   0.256  11.467  0.2427 -0.4763 -0.0901
15994TIP3    H169473   5.656   0.270  11.492 -0.1778  0.3965 -1.9506
15994TIP3    H269474   5.770   0.332  11.414  1.5738 -1.3872 -0.9036
15995TIP3   OH269475   1.073   5.517   0.164 -0.1102 -0.2248 -0.4455
15995TIP3    H169476   1.030   5.591   0.122  0.9393  0.9059  0.3972
15995TIP3    H269477   1.096   5.549   0.251 -2.8770 -2.6897  1.4005
15996TIP3   OH269478   2.273   3.799  15.785 -0.3144  0.0789 -0.5881
15996TIP3    H169479   2.236   3.849  15.858  0.8975  0.5459 -0.2629
15996TIP3    H269480   2.312   3.865  15.727  2.4575 -0.4520  0.4952
15997TIP3   OH269481   5.475   4.288  10.329 -0.6017 -0.5876  0.0919
15997TIP3    H169482   5.400   4.230  10.338  0.1051 -1.1223  3.7796
15997TIP3    H269483   5.452   4.366  10.380  1.4160 -0.9463  1.7076
15998TIP3   OH269484   6.554   3.219   3.247 -0.4955 -0.2279 -1.0709
15998TIP3    H169485   6.584   3.273   3.320 -0.2894 -2.7673  0.8417
15998TIP3    H269486   6.471   3.182   3.277 -0.6777 -0.9044 -2.3545
15999TIP3   OH269487   3.191   4.991   3.510  0.2777  0.1098 -0.2140
15999TIP3    H169488   3.172   5.084   3.503 -0.7711 -0.1443 -1.1049
15999TIP3    H269489   3.109   4.951   3.539  0.0276 -0.7667 -1.9579
16000TIP3   OH269490   3.461   0.443  11.904  0.2942  0.0627  0.4483
16000TIP3    H169491   3.447   0.534  11.932 -0.6134 -0.5458  2.1363
16000TIP3    H269492   3.399   0.392  11.957 -0.1179 -1.4222 -1.3672
16001TIP3   OH269493   6.481   1.361  12.749 -0.0550 -0.0475  0.2085
16001TIP3    H169494   6.448   1.271  12.753 -1.4609  0.4448 -0.0865
16001TIP3    H269495   6.456   1.392  12.662  0.6438  0.5651  0.2177
16002TIP3   OH269496   0.919   1.890  16.793 -0.1960  0.0803 -0.4523
16002TIP3    H169497   0.916   1.809  16.742 -0.7922  1.4525 -2.7288
16002TIP3    H269498   1.013   1.908  16.804 -0.0653 -0.4412 -0.7073
16003TIP3   OH269499   5.071   5.567  14.777  0.2655  0.6068  0.4290
16003TIP3    H169500   5.124   5.489  14.793  0.2347  0.6041  0.5152
16003TIP3    H269501   4.984   5.532  14.758  0.4201  0.5777 -0.2806
16004TIP3   OH269502   1.468   5.501  16.015  0.1601  0.0600 -0.1965
16004TIP3    H169503   1.521   5.537  16.086  1.2085  1.5868 -1.6829
16004TIP3    H269504   1.406   5.442  16.059  0.9566  0.7133  1.9294
16005TIP3   OH269505   3.016   0.334  13.906  0.6142  0.2550 -0.0377
16005TIP3    H169506   3.036   0.267  13.841  0.7004 -1.0224  1.2681
16005TIP3    H269507   3.101   0.373  13.927  0.9912 -1.0902  1.1337
16006TIP3   OH269508   6.554   4.468  16.764  0.6353 -0.2880 -0.4560
16006TIP3    H169509   6.504   4.409  16.820 -1.0415  0.0510 -1.5200
16006TIP3    H269510   6.613   4.411  16.715 -1.2148 -1.2122 -1.7307
16007TIP3   OH269511   3.087   2.635  14.192 -0.4234  0.0583  0.1473
16007TIP3    H169512   3.068   2.556  14.243  2.1897 -0.4760  0.4443
16007TIP3    H269513   3.101   2.604  14.103  2.2077 -0.1769  0.5486
16008TIP3   OH269514   4.445   2.621   2.320  0.0215  0.1473  0.9005
16008TIP3    H169515   4.356   2.653   2.336  0.5219  1.2054  1.7174
16008TIP3    H269516   4.467   2.570   2.398 -0.2462 -1.0563  0.2193
16009TIP3   OH269517   0.720   4.133   3.564  0.0623  0.1474 -0.3189
16009TIP3    H169518   0.741   4.069   3.496 -1.8074 -1.0029  0.1089
16009TIP3    H269519   0.713   4.082   3.644 -0.3747  1.0629  0.2451
16010TIP3   OH269520   3.107   4.413  15.559 -0.5176  0.1042  0.6366
16010TIP3    H169521   3.074   4.500  15.537 -0.3595 -0.0588 -0.2844
16010TIP3    H269522   3.121   4.370  15.474 -1.0192 -0.9849  1.0823
16011TIP3   OH269523   1.075   6.678  12.315  0.0894  0.3566  0.0380
16011TIP3    H169524   1.029   6.604  12.355  0.2393  0.3862  0.2643
16011TIP3    H269525   1.114   6.642  12.236  0.4137  0.1234  0.3030
16012TIP3   OH269526   2.032   6.356  13.710 -0.1785 -0.6193 -0.6943
16012TIP3    H169527   2.099   6.289  13.708  0.1714 -0.3234  0.4464
16012TIP3    H269528   2.065   6.422  13.771 -1.4376 -0.4042 -0.2042
16013TIP3   OH269529   3.946   5.140  12.827 -0.2495 -0.4665 -0.5525
16013TIP3    H169530   4.030   5.096  12.839  0.4529  0.7611 -0.7713
16013TIP3    H269531   3.893   5.110  12.901  0.6049 -0.7382 -0.0288
16014TIP3   OH269532   5.160   1.983  16.418  0.0816 -0.5318 -0.3888
16014TIP3    H169533   5.170   2.060  16.362 -0.0695  0.5641  1.0407
16014TIP3    H269534   5.248   1.964  16.449 -0.1213  0.2309  0.7213
16015TIP3   OH269535   6.208   3.137   0.403  0.1855  0.9629  0.3208
16015TIP3    H169536   6.147   3.196   0.448 -0.7650  0.7561 -0.6542
16015TIP3    H269537   6.164   3.115   0.321 -0.2540 -2.3632  1.2851
16016TIP3   OH269538   3.725   6.206   0.824  0.1779  0.0601 -0.1497
16016TIP3    H169539   3.696   6.129   0.776 -1.5788  0.8421 -0.3950
16016TIP3    H269540   3.658   6.221   0.890  1.3615  0.4000  1.0368
16017TIP3   OH269541   4.226   6.815  13.077 -0.6775 -0.5159  0.9111
16017TIP3    H169542   4.322   6.813  13.084 -0.7713 -0.3588  3.2478
16017TIP3    H269543   4.203   6.906  13.097 -1.3225 -0.4540 -0.0586
16018TIP3   OH269544   6.295   4.168  15.420  0.6548 -0.1936 -0.6529
16018TIP3    H169545   6.235   4.239  15.442  0.9953 -0.0847 -0.0783
16018TIP3    H269546   6.247   4.088  15.445  0.6181 -0.1254 -0.5082
16019TIP3   OH269547   4.281   3.285   2.362 -0.2709 -0.2322  0.0538
16019TIP3    H169548   4.369   3.250   2.345  0.1890  1.3293 -0.9559
16019TIP3    H269549   4.223   3.230   2.310  0.3689  0.1076 -1.0486
16020TIP3   OH269550   2.644   3.121   4.727  0.1366  0.4680 -0.4520
16020TIP3    H169551   2.585   3.174   4.780 -0.0741  1.9160 -2.0473
16020TIP3    H269552   2.624   3.030   4.752 -1.9339  0.9657 -0.1169
16021TIP3   OH269553   6.778   1.834  12.057 -0.1896  0.0285  0.6966
16021TIP3    H169554   6.858   1.869  12.018 -1.6311  2.3938 -0.3453
16021TIP3    H269555   6.736   1.786  11.986 -0.7394  0.6793  0.5716
16022TIP3   OH269556   5.167   6.726  13.805  0.3496 -0.5271 -0.1149
16022TIP3    H169557   5.210   6.744  13.889 -0.7575  0.2659  0.3002
16022TIP3    H269558   5.153   6.812  13.766 -0.4000 -0.8028 -0.4677
16023TIP3   OH269559   1.168   4.107  12.130  0.7895  0.1447  0.1538
16023TIP3    H169560   1.177   4.130  12.038 -1.2021  0.7455  0.0601
16023TIP3    H269561   1.190   4.014  12.135  2.6807  0.5206 -0.5873
16024TIP3   OH269562   1.556   1.046  11.530 -0.3667  0.7584  0.3741
16024TIP3    H169563   1.505   1.030  11.450 -0.9131 -2.6445  1.2473
16024TIP3    H269564   1.491   1.048  11.600  0.3189  1.4150  1.0158
16025TIP3   OH269565   1.520   0.295   5.314  0.2407  0.5347  0.5166
16025TIP3    H169566   1.569   0.342   5.381 -0.9463 -0.4238  2.1705
16025TIP3    H269567   1.436   0.341   5.309  0.1934  0.3934 -0.0694
16026TIP3   OH269568   6.115   5.693  16.665 -0.0812 -0.2227  0.4898
16026TIP3    H169569   6.150   5.652  16.585  1.4879  0.9958  0.5132
16026TIP3    H269570   6.191   5.735  16.706 -1.0139 -0.1207  2.2129
16027TIP3   OH269571   3.627   2.124   2.064  0.0186  0.0787 -0.0415
16027TIP3    H169572   3.541   2.167   2.067 -0.8315 -1.5976  1.1292
16027TIP3    H269573   3.607   2.031   2.050  1.5538 -0.5682  1.6450
16028TIP3   OH269574   4.501   0.269  15.407  0.2668  0.3014  0.2727
16028TIP3    H169575   4.555   0.211  15.352  1.0028  0.5683  0.7085
16028TIP3    H269576   4.463   0.331  15.345  0.5265  0.1645 -0.0297
16029TIP3   OH269577   3.412   3.996  13.924  0.1396  0.4503 -0.6692
16029TIP3    H169578   3.370   4.005  14.009 -0.5362 -2.0001 -0.6657
16029TIP3    H269579   3.495   4.042  13.933  0.2218 -0.0125  1.4445
16030TIP3   OH269580   1.917   5.550   3.200  0.1062 -0.6524 -0.5251
16030TIP3    H169581   1.885   5.572   3.113  0.9667  0.9503 -0.4718
16030TIP3    H269582   1.955   5.631   3.233  0.0086 -1.2877  1.2619
16031TIP3   OH269583   5.168   6.758   1.278 -0.0767  0.1564  0.1671
16031TIP3    H169584   5.194   6.769   1.186  2.3072 -1.4068  0.5718
16031TIP3    H269585   5.130   6.843   1.302  2.0353  1.6712 -1.4093
16032TIP3   OH269586   0.266   5.107   1.220  0.1519 -0.3291  0.2264
16032TIP3    H169587   0.235   5.124   1.131  0.1952 -0.5536  0.1676
16032TIP3    H269588   0.189   5.123   1.275  0.1713 -0.0229  0.1657
16033TIP3   OH269589   2.942   2.238  13.674  0.1903  1.0404  0.2130
16033TIP3    H169590   3.000   2.307  13.642  0.9226 -0.3041 -1.5251
16033TIP3    H269591   2.866   2.243  13.617  0.1235  0.5911  0.2618
16034TIP3   OH269592   4.694   0.276   0.011 -0.4773  0.0538 -0.0127
16034TIP3    H169593   4.669   0.244  -0.075 -0.1988 -0.5615  0.1312
16034TIP3    H269594   4.790   0.278   0.009 -0.4879  1.0141 -0.0641
16035TIP3   OH269595   6.008   2.704   4.608 -0.3001 -0.4302  0.8274
16035TIP3    H169596   5.935   2.642   4.616 -1.7269  1.3035  2.0007
16035TIP3    H269597   5.986   2.758   4.532 -0.5902  0.5167  1.5730
16036TIP3   OH269598   6.312   3.405  12.377 -0.0049 -0.9164  0.2928
16036TIP3    H169599   6.378   3.455  12.424  2.2457 -2.6903 -0.7839
16036TIP3    H269600   6.353   3.320  12.360 -2.7802 -2.3449  0.0265
16037TIP3   OH269601   0.154   3.174  11.803  0.1153  0.5726 -0.2174
16037TIP3    H169602   0.131   3.245  11.862 -1.9181 -0.5373  0.4049
16037TIP3    H269603   0.204   3.217  11.733 -2.3381  2.9061 -0.6926
16038TIP3   OH269604   6.844   2.586   3.338 -0.6250  0.2058  0.3947
16038TIP3    H169605   6.815   2.545   3.420  0.2734 -0.3142  0.4653
16038TIP3    H269606   6.844   2.680   3.357 -0.4835  0.0911  0.9792
16039TIP3   OH269607   0.906   6.837  12.072  0.2824 -0.4115  0.0121
16039TIP3    H169608   0.915   6.852  12.166  0.2025 -0.4230  0.0211
16039TIP3    H269609   0.975   6.892  12.033 -1.4491  1.8200 -0.0979
16040TIP3   OH269610   2.085   4.146  14.169 -0.0130  0.0375  0.0249
16040TIP3    H169611   2.045   4.166  14.084 -1.0502 -2.5043 -0.1636
16040TIP3    H269612   2.100   4.052  14.167  1.2177  0.1346  2.1578
16041TIP3   OH269613   5.992   1.124  12.528 -0.3749 -1.0727  0.3573
16041TIP3    H169614   6.016   1.081  12.610 -2.1214 -2.3110  0.2569
16041TIP3    H269615   6.065   1.104  12.469  0.5782 -0.7401  1.3899
16042TIP3   OH269616   0.837   5.154  12.365 -0.1593  0.0813  0.2424
16042TIP3    H169617   0.862   5.139  12.274  0.3474  1.4293  0.1252
16042TIP3    H269618   0.744   5.175  12.361 -0.0701  0.4515 -0.0228
16043TIP3   OH269619   4.797   1.304  13.873 -0.4245 -0.2949  0.3335
16043TIP3    H169620   4.771   1.245  13.803 -0.6005  1.6576 -1.3362
16043TIP3    H269621   4.720   1.358  13.889  0.7351  1.7653 -0.6568
16044TIP3   OH269622   5.242   4.768   0.996 -0.3797 -0.0729  0.2967
16044TIP3    H169623   5.321   4.722   1.025  0.2466  0.6119 -0.2582
16044TIP3    H269624   5.257   4.859   1.023 -1.2714 -0.0517  0.7433
16045TIP3   OH269625   1.514   2.971  15.265 -0.4779  0.0042 -0.6232
16045TIP3    H169626   1.435   3.020  15.243 -0.6089  0.8694  1.5204
16045TIP3    H269627   1.503   2.886  15.222 -3.1361 -0.3377  0.5510
16046TIP3   OH269628   1.372   3.861   6.444  0.2780  0.1826  0.1058
16046TIP3    H169629   1.348   3.908   6.363  1.6570  1.6793  0.5122
16046TIP3    H269630   1.306   3.792   6.451 -0.9171  1.0773 -1.3869
16047TIP3   OH269631   3.348   6.064  12.261 -0.1064 -0.1893  0.5189
16047TIP3    H169632   3.385   5.992  12.211 -0.2583  0.2637 -0.2559
16047TIP3    H269633   3.418   6.089  12.322  0.7208  0.3649 -0.6244
16048TIP3   OH269634   1.165   6.556   2.678  0.2265 -0.1206  0.1493
16048TIP3    H169635   1.179   6.522   2.590 -0.2299 -0.6785  0.2841
16048TIP3    H269636   1.224   6.631   2.684 -0.7306  0.7723 -1.1057
16049TIP3   OH269637   3.055   1.708  14.237  0.0107 -0.0254  0.1313
16049TIP3    H169638   3.032   1.662  14.156 -0.0991 -1.2651  0.8453
16049TIP3    H269639   3.006   1.663  14.305 -0.9799  1.8684  0.7489
16050TIP3   OH269640   2.499   1.698   4.172  0.2012  0.9732  0.4148
16050TIP3    H169641   2.533   1.783   4.144  0.3021  0.6857 -0.3431
16050TIP3    H269642   2.405   1.704   4.155  0.1831  0.9946  0.5220
16051TIP3   OH269643   6.229   6.318   4.576  0.1553 -0.2785 -0.2711
16051TIP3    H169644   6.220   6.297   4.669 -0.5386 -0.6076 -0.4059
16051TIP3    H269645   6.296   6.258   4.544  1.0630  0.4611  0.2097
16052TIP3   OH269646   6.661   5.988  16.140  0.5625 -0.5195 -0.3864
16052TIP3    H169647   6.618   6.021  16.061  0.1258  1.0415  0.4545
16052TIP3    H269648   6.751   6.020  16.134 -0.2601  2.4968  1.2129
16053TIP3   OH269649   3.580   2.854  15.370 -0.8347 -0.2753 -0.3191
16053TIP3    H169650   3.589   2.926  15.308 -0.3555  0.4186  0.5431
16053TIP3    H269651   3.670   2.828  15.390 -1.0045 -1.8112 -1.3935
16054TIP3   OH269652   3.848   0.007   0.647  0.0253  0.6383  0.0366
16054TIP3    H169653   3.906  -0.067   0.665  0.6156  0.7157 -1.4072
16054TIP3    H269654   3.760  -0.026   0.664  0.3736  0.0376  0.7396
16055TIP3   OH269655   2.434   3.068  11.436  0.2325  0.3490  0.3555
16055TIP3    H169656   2.463   3.147  11.388  1.0990  0.0027  0.2930
16055TIP3    H269657   2.342   3.058  11.411  1.0812 -0.8766 -2.7968
16056TIP3   OH269658   4.663   2.105   2.847 -0.3468  0.3303 -0.5524
16056TIP3    H169659   4.758   2.094   2.853 -0.2913  0.6630 -0.7960
16056TIP3    H269660   4.628   2.017   2.862 -0.0253  0.3081  0.0720
16057TIP3   OH269661   0.423   2.078   5.340 -0.0969 -0.2403  0.0471
16057TIP3    H169662   0.358   2.060   5.272  0.0053  1.0478 -0.4261
16057TIP3    H269663   0.447   1.992   5.374 -1.4251 -0.7897 -0.3447
16058TIP3   OH269664   4.076   1.245   3.743  0.1917 -0.4330  0.0020
16058TIP3    H169665   4.005   1.287   3.695  0.3218  0.9366  0.9480
16058TIP3    H269666   4.143   1.228   3.677 -1.1160 -2.0814 -0.9657
16059TIP3   OH269667   1.926   4.638  13.295  0.1537 -0.0948  0.0994
16059TIP3    H169668   1.950   4.631  13.387  1.6315  2.8418  0.0694
16059TIP3    H269669   2.009   4.647  13.249 -0.6012 -0.3020 -1.3754
16060TIP3   OH269670   3.679   1.408   1.438 -0.8122 -0.3971  0.1048
16060TIP3    H169671   3.681   1.327   1.388 -0.6422 -0.6458  0.5128
16060TIP3    H269672   3.595   1.406   1.484 -0.3014 -0.9217  1.0547
16061TIP3   OH269673   5.260   4.323  14.503  0.0659 -0.1334 -0.3612
16061TIP3    H169674   5.340   4.276  14.480 -0.0290 -0.1079 -0.7480
16061TIP3    H269675   5.191   4.258  14.496  0.4131 -1.0619  3.1888
16062TIP3   OH269676   4.354   0.575  12.010  0.2275 -0.0997 -0.0157
16062TIP3    H169677   4.285   0.641  12.000  0.7760  0.5598  0.4361
16062TIP3    H269678   4.420   0.599  11.944 -1.5249 -2.8675 -3.0810
16063TIP3   OH269679   3.364   6.028   5.562 -0.6317  0.7814  0.1468
16063TIP3    H169680   3.423   6.063   5.495  0.3397  0.6933  0.9327
16063TIP3    H269681   3.413   5.958   5.604 -0.6366  1.7855  1.9243
16064TIP3   OH269682   4.036   3.139  11.289 -0.2458  0.0915 -0.0155
16064TIP3    H169683   3.985   3.063  11.264  1.8449 -1.2263 -0.5114
16064TIP3    H269684   4.122   3.125  11.250 -0.1912  3.4851 -1.5140
16065TIP3   OH269685   4.759   1.091  11.084  0.8137  0.2469  0.6982
16065TIP3    H169686   4.794   1.005  11.061 -1.4335 -0.7609  0.7827
16065TIP3    H269687   4.815   1.121  11.156  1.5001 -1.2384  0.8242
16066TIP3   OH269688   0.511   0.135  11.789  0.3673  0.1229 -0.3784
16066TIP3    H169689   0.563   0.079  11.846 -0.0292 -0.4686 -0.5903
16066TIP3    H269690   0.530   0.105  11.701 -0.4211 -0.1925 -0.4535
16067TIP3   OH269691   3.840   3.786   4.824 -0.3957  0.2708  0.5243
16067TIP3    H169692   3.752   3.812   4.795  0.0277 -0.5745 -1.7037
16067TIP3    H269693   3.830   3.694   4.848 -0.1428  0.2145  0.4109
16068TIP3   OH269694   5.913   2.951  15.315  0.5139 -0.5259 -0.1569
16068TIP3    H169695   5.956   2.984  15.394  0.8617  0.9323 -0.9267
16068TIP3    H269696   5.824   2.986  15.319  0.6344 -0.1730 -0.5826
16069TIP3   OH269697   1.581   4.430   0.201 -0.5010 -0.7019 -0.3464
16069TIP3    H169698   1.610   4.416   0.111  0.6291 -0.1514 -0.0888
16069TIP3    H269699   1.485   4.433   0.196 -0.4338 -0.2097 -1.5958
16070TIP3   OH269700   5.387   4.475   3.492  0.4046 -0.4279  0.1582
16070TIP3    H169701   5.402   4.408   3.425  0.7556  0.3993 -0.6070
16070TIP3    H269702   5.463   4.469   3.550 -0.8416 -2.5343  1.7389
16071TIP3   OH269703   2.203   5.371  15.749 -0.0942 -0.5558 -0.0382
16071TIP3    H169704   2.189   5.373  15.844  1.2586  2.0107  0.1997
16071TIP3    H269705   2.298   5.362  15.739 -0.1323  0.0825 -1.1213
16072TIP3   OH269706   1.814   3.663  13.860  0.0600 -0.0760  0.2267
16072TIP3    H169707   1.839   3.574  13.835 -1.4535  0.0238 -1.9413
16072TIP3    H269708   1.800   3.659  13.954  0.1281 -2.1119  0.1821
16073TIP3   OH269709   3.878   6.232   4.331 -0.3910  0.6486 -0.5587
16073TIP3    H169710   3.906   6.287   4.403 -1.9631 -0.0096  0.6061
16073TIP3    H269711   3.782   6.231   4.336 -0.5663  0.7194 -2.7618
16074TIP3   OH269712   5.484   0.849  11.807 -0.3352 -0.1904  0.1177
16074TIP3    H169713   5.563   0.903  11.810 -0.7070  0.3477  0.4354
16074TIP3    H269714   5.476   0.814  11.896  0.7453 -2.0309 -0.4596
16075TIP3   OH269715   3.592   6.119  13.858 -0.0338  0.6557 -0.1184
16075TIP3    H169716   3.666   6.075  13.901 -0.9119  0.6281  1.4271
16075TIP3    H269717   3.530   6.137  13.929 -2.2282 -0.7216 -1.5700
16076TIP3   OH269718   3.743   0.747  11.644 -0.2208  0.0178 -0.0906
16076TIP3    H169719   3.658   0.704  11.644 -0.1271 -0.1691  0.3043
16076TIP3    H269720   3.743   0.803  11.721  0.6399 -1.2504  0.8767
16077TIP3   OH269721   0.458   6.642  12.137  0.1847 -0.3477  0.0962
16077TIP3    H169722   0.386   6.699  12.108 -0.4666 -2.0071 -1.7997
16077TIP3    H269723   0.417   6.558  12.156  1.3852 -0.8089  0.7815
16078TIP3   OH269724   5.906   1.311   2.762  0.0234  0.0247 -0.4016
16078TIP3    H169725   5.841   1.267   2.817  0.8622 -1.6115 -0.6746
16078TIP3    H269726   5.952   1.370   2.822  0.7748 -1.5693  0.6422
16079TIP3   OH269727   2.222   4.134  15.637  0.2277  0.5722  0.4077
16079TIP3    H169728   2.182   4.120  15.722 -0.1898 -2.6097 -0.1919
16079TIP3    H269729   2.292   4.069  15.632  2.4178  2.8572 -0.4514
16080TIP3   OH269730   2.452   4.405  15.259 -0.0186 -0.5407  0.0175
16080TIP3    H169731   2.536   4.435  15.225 -0.5420  0.1298 -0.7350
16080TIP3    H269732   2.465   4.400  15.354  0.6083  0.4364  0.0004
16081TIP3   OH269733   4.440   6.741  14.437 -0.1079  0.3352 -0.1149
16081TIP3    H169734   4.500   6.694  14.495  1.2994  0.1398 -1.6700
16081TIP3    H269735   4.375   6.779  14.496  1.1794  0.0287  1.5769
16082TIP3   OH269736   2.195   0.898   5.939  0.0883 -0.0776  0.7021
16082TIP3    H169737   2.217   0.991   5.945 -0.1695  0.2073 -1.8214
16082TIP3    H269738   2.099   0.896   5.939  0.0656 -0.5500  2.6829
16083TIP3   OH269739   3.194   6.471   2.588  0.1695 -0.0261  0.1468
16083TIP3    H169740   3.114   6.418   2.596  0.4985 -0.6712 -0.7364
16083TIP3    H269741   3.264   6.407   2.580  0.4580  0.5018 -2.2365
16084TIP3   OH269742   4.156   0.987  13.736 -0.4008  0.5385  0.0633
16084TIP3    H169743   4.086   1.004  13.674 -1.3205 -0.0114  0.9192
16084TIP3    H269744   4.182   0.897  13.719 -0.3485  0.5312  0.1804
16085TIP3   OH269745   2.860   3.231   6.508 -0.0248 -0.0615 -0.0978
16085TIP3    H169746   2.923   3.200   6.573  0.9498  0.3864 -0.8019
16085TIP3    H269747   2.914   3.263   6.436 -1.0502  0.9733 -0.4324
16086TIP3   OH269748   5.853   4.935   4.684  0.3633  0.1274 -0.1586
16086TIP3    H169749   5.775   4.948   4.738 -0.6846 -0.7524 -1.4109
16086TIP3    H269750   5.819   4.909   4.598  2.0610 -1.1105 -0.5027
16087TIP3   OH269751   6.182   6.013   4.274  0.0130 -0.3127  0.7634
16087TIP3    H169752   6.165   6.094   4.322 -1.1213  0.6715 -1.1902
16087TIP3    H269753   6.277   6.014   4.260  0.4707 -0.9399  3.4212
16088TIP3   OH269754   1.213   0.171   1.035  0.2410  0.3245 -0.0820
16088TIP3    H169755   1.259   0.212   1.108  0.7797  0.7353 -0.6420
16088TIP3    H269756   1.283   0.132   0.982  0.0718  1.9590 -1.5725
16089TIP3   OH269757   3.657   6.117  14.553  0.0989 -0.6055 -0.0500
16089TIP3    H169758   3.730   6.177  14.570 -0.1618 -0.5780  1.0039
16089TIP3    H269759   3.606   6.118  14.633 -0.5920 -1.2975 -0.4729
16090TIP3   OH269760   6.260   0.792  16.523  0.7664  0.4592  0.1000
16090TIP3    H169761   6.272   0.698  16.540 -0.3878  0.3403  0.2897
16090TIP3    H269762   6.345   0.821  16.490  0.6551 -1.0156 -1.6043
16091TIP3   OH269763   0.462   4.442   2.060  0.1103 -0.4673  0.0178
16091TIP3    H169764   0.493   4.414   1.974 -0.0869 -0.3914 -0.0782
16091TIP3    H269765   0.422   4.528   2.044  0.1623 -0.4089  0.2019
16092TIP3   OH269766   2.186   2.734   4.955 -0.2155 -0.3587 -0.2957
16092TIP3    H169767   2.099   2.775   4.951  0.7910  1.8401 -1.5289
16092TIP3    H269768   2.190   2.679   4.877 -0.2451  0.1168 -0.6374
16093TIP3   OH269769   4.704   6.388  11.313 -0.5187 -0.2658  0.3582
16093TIP3    H169770   4.714   6.293  11.325  0.0217 -0.2706 -0.0805
16093TIP3    H269771   4.624   6.397  11.260  1.5338 -0.7707 -3.1291
16094TIP3   OH269772   4.968   5.674  16.399  0.1576 -0.5325 -0.4649
16094TIP3    H169773   4.988   5.725  16.319  0.2897 -1.7759 -1.2491
16094TIP3    H269774   4.893   5.620  16.375 -1.1317  0.5410  0.9309
16095TIP3   OH269775   6.562   6.773   3.425  0.2394 -0.2886 -0.5107
16095TIP3    H169776   6.486   6.750   3.372 -0.3731  1.2280 -0.3425
16095TIP3    H269777   6.552   6.723   3.506 -1.3621  0.9448  0.1008
16096TIP3   OH269778   6.023   0.533  13.770 -0.7022 -0.3397 -0.0011
16096TIP3    H169779   6.003   0.607  13.827  0.6111  0.0188  0.0318
16096TIP3    H269780   6.054   0.574  13.689 -0.0122 -0.8548 -0.0028
16097TIP3   OH269781   3.729   0.830   4.440 -0.2435 -0.0198 -0.2122
16097TIP3    H169782   3.723   0.908   4.384  0.8998  0.0876 -0.2077
16097TIP3    H269783   3.643   0.824   4.482 -0.3330  1.2774 -0.1659
16098TIP3   OH269784   0.025   1.489  13.343 -0.7280  0.1992  0.1441
16098TIP3    H169785   0.055   1.409  13.300  0.9747  1.2910 -0.8221
16098TIP3    H269786   0.104   1.542  13.352 -2.0793  2.5681 -1.0268
16099TIP3   OH269787   0.559   1.452   2.308 -0.2332 -0.0777  0.2271
16099TIP3    H169788   0.516   1.368   2.317  1.0170 -0.6639  1.0800
16099TIP3    H269789   0.633   1.436   2.250  2.0410 -0.4704  3.0051
16100TIP3   OH269790   2.971   4.153  16.630  0.3687  0.3112  0.2353
16100TIP3    H169791   3.019   4.163  16.712  0.4654  1.4082  0.0545
16100TIP3    H269792   3.039   4.135  16.565  0.1256 -3.4660  0.7647
16101TIP3   OH269793   4.164   0.775  14.876 -0.0425 -0.4575 -0.2778
16101TIP3    H169794   4.087   0.809  14.922  0.0162  0.4963 -0.8703
16101TIP3    H269795   4.133   0.695  14.834 -1.1547  0.7137 -1.7982
16102TIP3   OH269796   6.707   1.614   2.493  0.1829  0.3120 -0.5200
16102TIP3    H169797   6.630   1.659   2.457 -0.4808  0.1108  0.6047
16102TIP3    H269798   6.761   1.595   2.416 -0.9659  0.2997 -1.3611
16103TIP3   OH269799   1.421   4.011   3.677  0.2274 -0.2612 -0.2311
16103TIP3    H169800   1.394   4.092   3.719 -0.8820 -0.9648  0.4494
16103TIP3    H269801   1.514   4.024   3.658  0.3360  0.7352  0.8690
16104TIP3   OH269802   1.109   0.773   1.379  0.1441  0.1156  0.2050
16104TIP3    H169803   1.200   0.752   1.359  0.2985  2.1734 -1.7124
16104TIP3    H269804   1.113   0.855   1.429 -0.6170  1.4536 -1.7744
16105TIP3   OH269805   0.793   4.931   4.066 -1.0098  0.6322 -0.0374
16105TIP3    H169806   0.880   4.919   4.105 -0.8556  1.5702 -0.0634
16105TIP3    H269807   0.777   4.850   4.018 -0.1652  0.4212  0.0163
16106TIP3   OH269808   0.142   6.749  13.643  0.6960 -0.0991  0.3213
16106TIP3    H169809   0.173   6.840  13.644 -2.4930  1.1883 -1.8307
16106TIP3    H269810   0.153   6.722  13.552 -2.1210 -0.3391 -0.0201
16107TIP3   OH269811   5.120   3.649  14.407 -0.1629  0.1702  0.1865
16107TIP3    H169812   5.165   3.621  14.327  0.9645 -1.1707  1.2576
16107TIP3    H269813   5.038   3.687  14.375 -0.3570 -1.5410 -1.5308
16108TIP3   OH269814   3.506   0.272  16.899 -0.0333  0.2921 -0.2358
16108TIP3    H169815   3.544   0.318  16.974 -0.9490 -0.8155  0.9720
16108TIP3    H269816   3.524   0.180  16.916 -0.5868 -0.0074 -1.1954
16109TIP3   OH269817   1.786   2.032   1.407  0.9483  0.5734 -0.2906
16109TIP3    H169818   1.843   1.964   1.442 -0.3746 -2.5966 -3.5796
16109TIP3    H269819   1.844   2.090   1.358  1.6653 -1.6664 -2.2635
16110TIP3   OH269820   5.628   5.303   3.086  0.4633 -0.4452  0.2753
16110TIP3    H169821   5.707   5.256   3.114  1.4243 -0.8524 -2.7984
16110TIP3    H269822   5.654   5.395   3.087 -0.0717 -0.2580  2.1556
16111TIP3   OH269823   5.231   1.522  12.823  0.4878 -0.2915  0.7740
16111TIP3    H169824   5.234   1.472  12.742 -2.4934  0.7806 -0.1370
16111TIP3    H269825   5.292   1.477  12.882  0.8508 -2.6009 -1.2166
16112TIP3   OH269826   0.339   2.367   2.307 -0.0247 -0.2981 -0.6941
16112TIP3    H169827   0.340   2.435   2.374  0.1159  2.0212 -2.9342
16112TIP3    H269828   0.427   2.369   2.270 -0.1476 -1.4358 -1.0976
16113TIP3   OH269829   4.010   0.406  16.908 -0.5798 -0.5642  0.4335
16113TIP3    H169830   3.932   0.362  16.876  0.7078 -0.5664 -3.2170
16113TIP3    H269831   4.083   0.353  16.875  1.0645 -0.6568  3.8070
16114TIP3   OH269832   2.964   6.338   2.541  0.4339  0.0513  0.3050
16114TIP3    H169833   2.876   6.373   2.524  1.0562  0.3432 -3.0563
16114TIP3    H269834   2.953   6.282   2.618 -2.0119  2.3450  1.7982
16115TIP3   OH269835   4.421   3.084   0.253 -0.1768 -0.0275  0.5804
16115TIP3    H169836   4.501   3.086   0.200 -0.2371  0.1490  0.4955
16115TIP3    H269837   4.439   3.143   0.326 -1.1412  2.0359 -0.7599
16116TIP3   OH269838   5.879   0.691   0.772  0.7172  0.2522 -0.6551
16116TIP3    H169839   5.820   0.697   0.697  0.5334  0.6137 -0.4842
16116TIP3    H269840   5.866   0.773   0.820  1.6105  0.4994 -0.8049
16117TIP3   OH269841   1.820   0.858  15.130 -0.6570  0.3478 -0.6743
16117TIP3    H169842   1.847   0.930  15.187 -1.0389  0.9391 -1.2172
16117TIP3    H269843   1.761   0.805  15.183  0.8062 -0.4441  0.2251
16118TIP3   OH269844   1.526   4.328  16.794  0.2710  0.1070 -0.2616
16118TIP3    H169845   1.602   4.312  16.738  0.4218 -0.0389 -0.0171
16118TIP3    H269846   1.455   4.280  16.753 -0.0663  1.5020 -1.3648
16119TIP3   OH269847   0.158   0.367  11.009 -0.2536  0.0981  0.0761
16119TIP3    H169848   0.098   0.294  10.993  1.2760 -1.6107  1.6355
16119TIP3    H269849   0.137   0.396  11.098 -0.2911  1.0346 -0.2270
16120TIP3   OH269850   4.997   4.091  13.847 -0.1566 -0.1163 -0.2062
16120TIP3    H169851   4.919   4.146  13.850 -0.0071  0.1053 -0.3443
16120TIP3    H269852   4.994   4.040  13.928  0.3003  0.9187  0.4763
16121TIP3   OH269853   1.666   0.096   2.164 -0.5238 -0.2640 -0.6896
16121TIP3    H169854   1.715   0.171   2.199  0.6903 -1.1319 -0.4631
16121TIP3    H269855   1.576   0.129   2.154  0.1682  1.5060 -1.5309
16122TIP3   OH269856   6.829   0.688   4.093  0.0887  0.2346  0.1689
16122TIP3    H169857   6.899   0.638   4.052  1.1848  1.7201  0.1727
16122TIP3    H269858   6.777   0.721   4.020 -1.2841 -1.7273  0.1886
16123TIP3   OH269859   1.634   4.341  16.544  0.1989  0.5273 -1.1937
16123TIP3    H169860   1.671   4.311  16.461 -0.5936 -0.1740 -1.3041
16123TIP3    H269861   1.572   4.411  16.519  1.1865  1.4831 -1.0372
16124TIP3   OH269862   4.916   3.859  14.522 -0.1141  0.5049  0.0896
16124TIP3    H169863   4.972   3.921  14.569 -0.5086  1.5403 -0.7707
16124TIP3    H269864   4.940   3.870  14.430 -2.7171  2.1004 -0.5085
16125TIP3   OH269865   5.984   4.988   0.832  0.2869 -0.0667 -0.3672
16125TIP3    H169866   5.970   4.900   0.867  0.4931 -0.4134 -1.1313
16125TIP3    H269867   6.033   5.034   0.901 -1.6046  0.1326  0.9299
16126TIP3   OH269868   5.193   2.712  14.343 -0.0778 -0.1507  0.8423
16126TIP3    H169869   5.157   2.657  14.273 -0.1735 -0.7646  1.3642
16126TIP3    H269870   5.233   2.786  14.297  0.6731 -0.9980  0.0706
16127TIP3   OH269871   4.655   1.102   0.682 -0.3925 -0.4995  0.0766
16127TIP3    H169872   4.734   1.053   0.657  0.6118  1.6718 -1.2574
16127TIP3    H269873   4.599   1.036   0.722  1.5885 -2.3852 -0.0176
16128TIP3   OH269874   4.296   1.087   3.233 -0.0988 -0.0231  0.2687
16128TIP3    H169875   4.358   1.111   3.301 -2.2662  1.2221  1.9330
16128TIP3    H269876   4.236   1.026   3.276  0.2087 -1.6363 -1.4405
16129TIP3   OH269877   3.985   4.181   6.602 -0.5333 -0.0344 -0.0193
16129TIP3    H169878   3.891   4.167   6.610 -0.2949 -0.9520  1.3994
16129TIP3    H269879   4.024   4.101   6.635  0.7711  0.7141  0.3111
16130TIP3   OH269880   6.131   2.837   1.336 -0.1833  0.1234 -0.1078
16130TIP3    H169881   6.070   2.910   1.345 -0.9934 -0.5967  0.5087
16130TIP3    H269882   6.202   2.857   1.397 -0.3150  0.4908 -0.0758
16131TIP3   OH269883   2.415   3.196   4.394 -0.1064 -0.3532 -0.4053
16131TIP3    H169884   2.433   3.290   4.404 -1.4064 -0.0225 -1.0383
16131TIP3    H269885   2.502   3.157   4.380  0.4383  0.7632 -0.2649
16132TIP3   OH269886   5.395   3.561  12.112  0.6432 -0.3523 -0.2727
16132TIP3    H169887   5.349   3.558  12.028  0.2652 -0.2444 -0.0740
16132TIP3    H269888   5.455   3.635  12.104  2.3451 -1.7670 -1.3168
16133TIP3   OH269889   2.031   5.443   0.866  0.3806  0.4335 -0.3867
16133TIP3    H169890   2.001   5.450   0.775  1.1781  1.1707 -0.6044
16133TIP3    H269891   2.047   5.349   0.878  0.1882  0.3179 -0.9889
16134TIP3   OH269892   0.047   6.720   5.869 -0.5347 -0.3179 -0.4952
16134TIP3    H169893   0.029   6.799   5.920 -0.3558  0.7268 -1.9976
16134TIP3    H269894   0.139   6.701   5.887 -1.0917 -1.4483  1.4976
16135TIP3   OH269895   4.227   4.331   4.579  0.4979  0.3482  0.0842
16135TIP3    H169896   4.172   4.257   4.606  0.6072 -0.4437 -1.7436
16135TIP3    H269897   4.186   4.407   4.620 -0.4999 -0.5215  0.7748
16136TIP3   OH269898   5.418   1.804  14.534 -0.7148 -0.1114 -0.0217
16136TIP3    H169899   5.388   1.880  14.484  1.2075 -0.2309 -1.5128
16136TIP3    H269900   5.415   1.832  14.625 -2.8646  0.6778 -0.2908
16137TIP3   OH269901   0.209   1.431  14.737  0.2590 -0.6178 -0.5496
16137TIP3    H169902   0.224   1.352  14.788 -1.9804 -0.3806  0.5531
16137TIP3    H269903   0.224   1.503  14.798  2.0643 -0.1207 -1.4861
16138TIP3   OH269904   4.417   2.434  13.076  0.0630 -0.0552  0.3397
16138TIP3    H169905   4.353   2.379  13.120 -2.3137  2.6471  0.5912
16138TIP3    H269906   4.475   2.373  13.031 -1.6534 -2.7162  1.5146
16139TIP3   OH269907   1.037   4.446  16.681  0.1736 -0.3801 -0.3840
16139TIP3    H169908   1.013   4.513  16.745  0.5420 -0.8302  0.2406
16139TIP3    H269909   0.968   4.379  16.690  0.5438 -0.7230 -0.0187
16140TIP3   OH269910   4.027   5.755  16.156 -0.2414 -0.1846  0.1042
16140TIP3    H169911   4.082   5.731  16.230 -1.9534 -1.3451  1.0579
16140TIP3    H269912   3.977   5.831  16.186 -0.9616 -0.6746  0.1483
16141TIP3   OH269913   4.830   2.349  15.429 -0.3801 -0.3568  0.4993
16141TIP3    H169914   4.739   2.367  15.455  0.2891 -1.0668  3.7343
16141TIP3    H269915   4.878   2.427  15.457 -0.0264  0.5944 -2.3477
16142TIP3   OH269916   3.155   1.626  15.970  0.1569 -0.2872  0.0918
16142TIP3    H169917   3.123   1.655  15.885  1.8076  0.6317 -0.2586
16142TIP3    H269918   3.249   1.613  15.957 -0.0277 -3.1831  0.9781
16143TIP3   OH269919   2.219   1.640   4.904 -0.2870  0.1084 -0.5108
16143TIP3    H169920   2.303   1.679   4.929 -0.8154  0.0061  1.6215
16143TIP3    H269921   2.154   1.690   4.952 -1.4810  0.2052 -2.1635
16144TIP3   OH269922   4.032   0.247   1.850  0.5643 -0.1452  0.1238
16144TIP3    H169923   4.029   0.342   1.835 -0.1233 -0.0233  0.9341
16144TIP3    H269924   4.113   0.218   1.808  0.3242  0.6570 -0.9280
16145TIP3   OH269925   5.503   5.093   2.991 -0.0066 -0.1650  0.6600
16145TIP3    H169926   5.467   5.055   3.071 -1.6642 -1.2129 -0.4953
16145TIP3    H269927   5.549   5.172   3.019  0.3685 -1.0691  2.7351
16146TIP3   OH269928   4.763   4.110   2.504  0.3078  0.5222 -0.0616
16146TIP3    H169929   4.786   4.075   2.590 -2.6964  2.0702  1.5350
16146TIP3    H269930   4.802   4.049   2.442  2.1121 -0.9826  2.3730
16147TIP3   OH269931   1.522   2.890   3.546 -0.1287 -0.3579  0.2964
16147TIP3    H169932   1.437   2.906   3.586  0.8853  0.4283  2.3268
16147TIP3    H269933   1.570   2.972   3.559  0.9505 -0.8004 -0.7495
16148TIP3   OH269934   1.867   1.557   2.167 -0.4169 -0.1428  0.0742
16148TIP3    H169935   1.833   1.487   2.222 -0.2768  0.6803  1.2459
16148TIP3    H269936   1.848   1.529   2.077  1.3792 -2.6102  0.3680
16149TIP3   OH269937   3.510   0.516   1.952 -0.1648 -0.4147  0.2354
16149TIP3    H169938   3.470   0.490   1.869 -1.8342  0.6366  0.6666
16149TIP3    H269939   3.498   0.440   2.009 -0.7655 -0.4404  0.0851
16150TIP3   OH269940   0.344   1.225  16.405 -0.0632  0.4249 -0.1665
16150TIP3    H169941   0.430   1.264  16.389  0.0373  0.2863  0.0364
16150TIP3    H269942   0.286   1.300  16.417  0.0579  0.5189 -0.1649
16151TIP3   OH269943   2.961   6.269   1.132  0.2522  0.1911 -0.3857
16151TIP3    H169944   3.022   6.215   1.183  1.7428  0.2282 -2.0188
16151TIP3    H269945   2.893   6.208   1.103 -0.1723  0.0134  0.9266
16152TIP3   OH269946   2.393   4.138   4.766 -0.1489 -0.1829  0.7244
16152TIP3    H169947   2.331   4.177   4.704 -1.6140 -0.2515  2.0806
16152TIP3    H269948   2.460   4.205   4.779  0.5345 -0.3946 -1.3476
16153TIP3   OH269949   4.546   2.935  16.316 -0.0843  0.2146  0.4849
16153TIP3    H169950   4.632   2.931  16.356 -0.4003 -0.4217  1.1075
16153TIP3    H269951   4.501   2.856  16.345 -1.1038  0.8457  0.6855
16154TIP3   OH269952   6.090   5.358  13.350  0.1138  0.0449  0.5633
16154TIP3    H169953   6.126   5.447  13.353  0.1856  0.0248  0.3245
16154TIP3    H269954   6.149   5.311  13.291  0.4298 -0.3199  1.1569
16155TIP3   OH269955   1.564   2.616  16.173 -0.3423 -0.2603  0.6456
16155TIP3    H169956   1.622   2.607  16.097 -2.5161 -0.0000 -1.1473
16155TIP3    H269957   1.557   2.711  16.187 -0.8065 -0.2567  0.4282
16156TIP3   OH269958   1.053   3.085  14.854  0.1805 -0.3737  0.8985
16156TIP3    H169959   1.095   3.165  14.822 -0.2650  0.3219  1.9861
16156TIP3    H269960   1.121   3.040  14.902  1.5621 -2.6093 -2.7842
16157TIP3   OH269961   2.315   0.808   1.925 -0.0911 -0.6571 -0.0661
16157TIP3    H169962   2.330   0.901   1.910 -2.2342 -0.0308  1.3295
16157TIP3    H269963   2.230   0.803   1.968 -0.1652 -3.2970 -0.3301
16158TIP3   OH269964   6.436   6.343   5.484 -0.0348  0.0367  0.2094
16158TIP3    H169965   6.344   6.368   5.489 -0.2736 -0.9192  0.9257
16158TIP3    H269966   6.437   6.250   5.506  1.0587 -0.0659 -0.2180
16159TIP3   OH269967   5.927   2.375  15.190 -0.4892 -0.2965  0.3328
16159TIP3    H169968   5.983   2.437  15.143  1.1221 -1.0873  1.1134
16159TIP3    H269969   5.838   2.398  15.164  0.2639 -0.2831 -2.6092
16160TIP3   OH269970   2.785   4.798  11.271  0.4772  0.0559 -0.2239
16160TIP3    H169971   2.743   4.732  11.325  0.2308  1.2875  1.1441
16160TIP3    H269972   2.868   4.758  11.245  0.0942 -0.9878  0.1269
16161TIP3   OH269973   5.970   6.096   5.777  0.1916  0.3391  0.4327
16161TIP3    H169974   6.047   6.144   5.806 -0.1890  0.1933  1.7675
16161TIP3    H269975   5.978   6.010   5.819 -1.0131  0.5476  1.1574
16162TIP3   OH269976   3.826   5.995  16.132  0.3759  0.3481  0.5949
16162TIP3    H169977   3.830   5.974  16.225 -2.3169  2.1705  1.2319
16162TIP3    H269978   3.806   6.089  16.130 -1.9786 -0.1056 -1.7533
16163TIP3   OH269979   1.533   5.891   2.193 -0.4258  0.1991 -0.8948
16163TIP3    H169980   1.480   5.969   2.209  0.1278  0.7934 -1.8363
16163TIP3    H269981   1.478   5.836   2.137 -0.4474  0.3682 -1.0432
16164TIP3   OH269982   0.977   4.709  11.257 -0.5375 -0.0436  0.0190
16164TIP3    H169983   0.937   4.734  11.174 -2.5500 -0.4549  0.8152
16164TIP3    H269984   0.957   4.782  11.316 -0.0421 -0.2264  0.4231
16165TIP3   OH269985   1.679   6.105   3.817  0.2286 -0.0117 -0.1143
16165TIP3    H169986   1.691   6.074   3.727  1.4159  1.4780 -0.5129
16165TIP3    H269987   1.667   6.200   3.808 -2.7565 -0.1728  1.0920
16166TIP3   OH269988   5.389   4.216   5.452  0.0291  0.0559  0.7937
16166TIP3    H169989   5.377   4.140   5.509 -1.1304 -1.5345 -1.4078
16166TIP3    H269990   5.447   4.185   5.383 -1.4486  0.7502 -0.8313
16167TIP3   OH269991   5.632   1.814  13.405 -0.6452 -0.1319 -0.6228
16167TIP3    H169992   5.599   1.805  13.494  1.2101  1.5186  0.3089
16167TIP3    H269993   5.685   1.735  13.391  1.5722  0.9663  0.9776
16168TIP3   OH269994   1.036   0.536  16.163  0.1293 -0.0947  0.3666
16168TIP3    H169995   0.999   0.468  16.219 -0.9568  0.0386 -0.1606
16168TIP3    H269996   1.115   0.496  16.126 -1.4472 -1.7962 -1.3536
16169TIP3   OH269997   0.707   4.483   3.315 -0.0289  0.0451 -0.7306
16169TIP3    H169998   0.719   4.571   3.280  1.4963 -0.6054 -1.9676
16169TIP3    H269999   0.786   4.466   3.365 -1.5972  0.4448  2.0716
16170TIP3   OH270000   5.401   5.157   0.474 -0.1135 -0.1502 -0.2247
16170TIP3    H170001   5.448   5.192   0.398  1.0528 -3.4373 -1.1731
16170TIP3    H270002   5.466   5.152   0.543 -0.4180  0.0279  0.0816
16171TIP3   OH270003   0.713   1.139   0.556 -0.0639  0.0970  0.4299
16171TIP3    H170004   0.790   1.087   0.532  0.1573  0.9067 -0.6695
16171TIP3    H270005   0.686   1.180   0.475 -1.5223  0.0255  0.8634
16172TIP3   OH270006   2.650   0.280   5.549 -0.1476  0.5193  0.0889
16172TIP3    H170007   2.561   0.314   5.538 -0.4158  0.3070  1.4305
16172TIP3    H270008   2.706   0.357   5.551 -0.5114  0.7705  0.9825
16173TIP3   OH270009   3.528   2.373   1.215 -0.1843 -0.4401  0.5523
16173TIP3    H170010   3.618   2.382   1.184 -0.4111  0.8235  0.1753
16173TIP3    H270011   3.494   2.295   1.171 -0.4114  1.1039 -2.2346
16174TIP3   OH270012   2.165   4.637   2.380 -0.6802 -0.3687 -0.1782
16174TIP3    H170013   2.218   4.586   2.320 -0.7759 -0.5455 -0.1128
16174TIP3    H270014   2.189   4.606   2.467 -0.6882 -0.2556 -0.1355
16175TIP3   OH270015   1.379   5.073  16.489  0.8495  0.3661  0.1151
16175TIP3    H170016   1.442   5.001  16.499 -0.2461 -0.6423  0.0044
16175TIP3    H270017   1.332   5.052  16.409  0.8906  1.5283 -0.2272
16176TIP3   OH270018   5.655   1.858  15.367  0.1843 -0.3583 -0.1901
16176TIP3    H170019   5.665   1.831  15.459 -1.9068 -1.4619 -0.2310
16176TIP3    H270020   5.697   1.944  15.363  0.8442 -0.5460  1.6547
16177TIP3   OH270021   6.491   3.537  14.726 -0.1661 -0.1275  1.0033
16177TIP3    H170022   6.511   3.515  14.635 -0.2288  1.7305  0.4990
16177TIP3    H270023   6.569   3.582  14.758 -0.7258  0.5795  1.3866
16178TIP3   OH270024   0.700   3.540  13.635 -0.0627 -0.2665 -0.2089
16178TIP3    H170025   0.616   3.495  13.632 -0.1686 -0.3550  2.1312
16178TIP3    H270026   0.763   3.472  13.659  0.0143  0.4491  1.8471
16179TIP3   OH270027   2.513   1.261   4.507 -1.0108 -0.1289  0.2947
16179TIP3    H170028   2.440   1.261   4.569  0.3684  0.3083  1.9962
16179TIP3    H270029   2.512   1.350   4.469 -1.3126 -0.1040  0.3611
16180TIP3   OH270030   2.897   2.693  16.016 -0.4224  1.1230 -0.1726
16180TIP3    H170031   2.979   2.649  15.995 -1.3168 -0.7498  0.0981
16180TIP3    H270032   2.919   2.752  16.088  0.7787  1.0301 -0.4462
16181TIP3   OH270033   1.627   2.228  14.741 -0.5142 -0.1545 -0.0429
16181TIP3    H170034   1.628   2.136  14.768 -1.5155 -0.1645 -0.0163
16181TIP3    H270035   1.692   2.233  14.671  1.2192 -0.3911  1.4775
16182TIP3   OH270036   1.334   6.477   6.644 -0.5357 -0.0506  0.0272
16182TIP3    H170037   1.399   6.447   6.707  0.3796  0.2099 -0.7735
16182TIP3    H270038   1.251   6.472   6.692  0.1966  0.7018  1.4573
16183TIP3   OH270039   3.156   6.789   4.444  0.0093 -0.5469 -0.8887
16183TIP3    H170040   3.087   6.730   4.416 -0.7362 -0.5604  0.9056
16183TIP3    H270041   3.114   6.875   4.447 -0.1879 -0.6763  0.9734
16184TIP3   OH270042   0.907   1.628  15.657 -0.4265 -0.5190  0.3117
16184TIP3    H170043   0.822   1.618  15.699 -0.1060 -0.3033  1.0333
16184TIP3    H270044   0.953   1.694  15.710 -0.4988  0.7812 -1.1891
16185TIP3   OH270045   1.630   3.422   2.234 -0.6471 -0.2222 -0.1330
16185TIP3    H170046   1.658   3.341   2.278 -1.0576 -0.7143 -0.7543
16185TIP3    H270047   1.593   3.392   2.151  0.0340  0.6825 -0.7826
16186TIP3   OH270048   0.964   3.821  10.771  0.3114  0.1536 -0.5589
16186TIP3    H170049   0.976   3.731  10.800  0.9024 -0.5266 -2.6766
16186TIP3    H270050   1.052   3.850  10.745 -0.1054  0.7599 -1.3611
16187TIP3   OH270051   5.332   6.114   5.125  0.3868 -0.0794 -0.3344
16187TIP3    H170052   5.356   6.029   5.160  0.3034  0.4713  1.1160
16187TIP3    H270053   5.359   6.177   5.192  0.2230  1.0167 -1.2638
16188TIP3   OH270054   5.962   1.494   0.970 -0.0310  0.6131  0.3455
16188TIP3    H170055   5.887   1.483   1.029 -0.3766  0.2953 -0.1402
16188TIP3    H270056   5.925   1.479   0.882  0.0871  2.7911 -0.1268
16189TIP3   OH270057   6.494   1.113  16.537  0.3006  0.2107  0.0388
16189TIP3    H170058   6.469   1.159  16.457 -3.2755 -1.2650  0.1422
16189TIP3    H270059   6.530   1.030  16.507  1.0516  0.5571 -0.0394
16190TIP3   OH270060   3.389   6.069  16.017 -0.3358 -0.7218 -0.0399
16190TIP3    H170061   3.348   6.145  16.058  0.5530  0.4945 -1.3065
16190TIP3    H270062   3.450   6.106  15.953 -0.3103 -2.5154 -1.1291
16191TIP3   OH270063   6.681   0.626  13.374  0.0638 -0.6872  0.3462
16191TIP3    H170064   6.708   0.669  13.293 -1.5577  1.2083  0.7244
16191TIP3    H270065   6.590   0.601  13.359 -0.1402 -0.6782  1.4318
16192TIP3   OH270066   5.217   0.299  12.737  0.0518  0.2421  0.1453
16192TIP3    H170067   5.227   0.270  12.828  1.3782  1.4408  0.4267
16192TIP3    H270068   5.299   0.345  12.718  0.0324 -0.4756 -1.8535
16193TIP3   OH270069   5.907   5.933   0.814  0.7358 -0.4166 -0.0748
16193TIP3    H170070   5.825   5.897   0.847  0.6013  1.4298  1.8522
16193TIP3    H270071   5.881   5.990   0.741  0.2708  0.1232  0.4965
16194TIP3   OH270072   2.955   4.270   2.315  0.0314 -0.1713  1.2137
16194TIP3    H170073   2.991   4.358   2.305 -2.3517  0.8712  1.0734
16194TIP3    H270074   2.873   4.284   2.363 -0.9276 -2.1919  0.2542
16195TIP3   OH270075   6.117   0.207  12.508 -0.4242  0.7734  0.3590
16195TIP3    H170076   6.028   0.232  12.482 -0.4805  0.4559  0.2391
16195TIP3    H270077   6.118   0.112  12.497 -0.1325  0.7570  0.5556
16196TIP3   OH270078   6.465   0.550   4.251 -0.0865  0.2026 -0.3487
16196TIP3    H170079   6.458   0.630   4.302  0.7191  0.6436 -0.9071
16196TIP3    H270080   6.440   0.576   4.162  0.8143 -0.0024 -0.6706
16197TIP3   OH270081   4.041   3.869   0.535  0.3150  0.0294 -0.1716
16197TIP3    H170082   4.113   3.867   0.471  1.1051 -0.2911  0.6946
16197TIP3    H270083   4.058   3.947   0.587 -1.5379  1.5052 -1.6529
16198TIP3   OH270084   3.087   3.944   0.811  0.8683  0.3250 -0.1780
16198TIP3    H170085   3.078   4.020   0.753 -1.7359  0.0615 -0.2206
16198TIP3    H270086   3.006   3.942   0.861  1.3484 -1.8016  0.6129
16199TIP3   OH270087   2.633   4.233  14.867  0.4837 -0.4314  0.2727
16199TIP3    H170088   2.539   4.215  14.877  0.6295 -2.0465 -0.8068
16199TIP3    H270089   2.647   4.233  14.773  1.0050  3.3455  0.2063
16200TIP3   OH270090   5.815   6.445  13.773 -0.2491 -0.5492  0.4661
16200TIP3    H170091   5.808   6.480  13.862  0.4987  1.6605 -0.2610
16200TIP3    H270092   5.754   6.371  13.771 -0.5867 -0.4066  2.6786
16201TIP3   OH270093   1.823   6.193  14.923 -0.1079  0.2105 -0.4543
16201TIP3    H170094   1.740   6.208  14.967  0.0330  1.5824 -0.6230
16201TIP3    H270095   1.847   6.104  14.947 -1.5433 -0.1528 -0.2836
16202TIP3   OH270096   4.770   0.348   6.338 -0.2397 -0.6673  0.2181
16202TIP3    H170097   4.852   0.319   6.377 -0.7317 -1.3364  0.7753
16202TIP3    H270098   4.719   0.382   6.412 -0.6866 -0.7770 -0.0359
16203TIP3   OH270099   3.378   0.103  13.434  0.3576  0.2720  0.1735
16203TIP3    H170100   3.287   0.118  13.461 -0.1073 -2.1924  0.1536
16203TIP3    H270101   3.378   0.124  13.340 -0.2812 -0.0725  0.0894
16204TIP3   OH270102   1.941   0.688   2.655 -0.2466 -0.3498 -0.3954
16204TIP3    H170103   1.985   0.721   2.733 -1.8897 -1.1181  0.9287
16204TIP3    H270104   1.926   0.595   2.673 -0.0905 -0.7007 -1.9233
16205TIP3   OH270105   5.589   1.389  10.662 -0.1251  0.2242  0.0324
16205TIP3    H170106   5.616   1.346  10.580  0.9422 -1.3444  1.1448
16205TIP3    H270107   5.644   1.468  10.666  1.3581 -0.7688  0.2072
16206TIP3   OH270108   3.548   0.363  10.947 -0.4807  0.2854  0.4994
16206TIP3    H170109   3.582   0.373  11.036 -0.5254 -0.3532  0.5935
16206TIP3    H270110   3.610   0.410  10.892  2.1997 -3.0364  0.3222
16207TIP3   OH270111   4.688   3.544   3.075  0.6696  0.5845  0.1522
16207TIP3    H170112   4.766   3.549   3.021 -0.4570 -1.3462 -1.8095
16207TIP3    H270113   4.635   3.476   3.034 -1.1282  0.3732  2.6165
16208TIP3   OH270114   1.641   2.804  16.863  0.6380  0.3319 -0.6179
16208TIP3    H170115   1.699   2.862  16.912 -0.1613  0.1718  0.5728
16208TIP3    H270116   1.552   2.836  16.882  0.1956 -1.0899 -0.1299
16209TIP3   OH270117   5.707   0.527   0.599 -0.8881 -0.2901 -0.6653
16209TIP3    H170118   5.707   0.468   0.523  0.4825 -0.3666 -0.6457
16209TIP3    H270119   5.649   0.598   0.574 -1.1154 -0.7340 -1.4455
16210TIP3   OH270120   6.029   2.015  16.057 -0.0956 -0.8277  0.0351
16210TIP3    H170121   6.122   2.036  16.068 -0.1921  0.1621 -0.8714
16210TIP3    H270122   6.016   1.938  16.111  0.5273  0.8240  2.7063
16211TIP3   OH270123   6.102   6.122   1.467 -0.0461  0.0461  0.6794
16211TIP3    H170124   6.060   6.190   1.414 -2.3686 -2.1096 -0.4930
16211TIP3    H270125   6.030   6.063   1.491  1.8688 -2.1490  1.3988
16212TIP3   OH270126   4.556   5.248   5.459 -0.6005  0.0397  0.2925
16212TIP3    H170127   4.503   5.168   5.468  1.2332 -1.2755 -0.0469
16212TIP3    H270128   4.637   5.218   5.417 -0.5737  2.3969 -1.5007
16213TIP3   OH270129   6.189   3.589  17.048  0.6361 -0.9375  0.0884
16213TIP3    H170130   6.235   3.673  17.053 -0.1971 -0.4596 -0.2130
16213TIP3    H270131   6.199   3.552  17.136  0.3219 -0.1588  0.4608
16214TIP3   OH270132   0.634   6.651  16.486  0.0108  0.0383  0.0268
16214TIP3    H170133   0.601   6.672  16.574  0.0894  1.4335 -0.2479
16214TIP3    H270134   0.705   6.589  16.502 -0.0290  0.2040  0.9416
16215TIP3   OH270135   6.618   2.519  10.364  0.6325  0.1322 -0.6121
16215TIP3    H170136   6.632   2.469  10.283 -0.3221 -1.5551  0.1956
16215TIP3    H270137   6.635   2.456  10.434 -1.5463  0.6285  0.4533
16216TIP3   OH270138   0.279   0.835   2.157 -0.4182 -0.2391 -0.5613
16216TIP3    H170139   0.348   0.771   2.177 -0.1582  0.2703  0.2041
16216TIP3    H270140   0.324   0.906   2.112 -0.5206 -0.1052 -0.4520
16217TIP3   OH270141   6.714   1.918   3.236  0.2539  0.7674 -0.8416
16217TIP3    H170142   6.645   1.984   3.226 -1.4123 -0.7369  0.0279
16217TIP3    H270143   6.668   1.834   3.230  1.0255 -0.4206  4.4368
16218TIP3   OH270144   5.539   3.755   3.251  0.2745  0.2847 -0.6505
16218TIP3    H170145   5.473   3.719   3.311  0.1839 -1.2709 -1.6271
16218TIP3    H270146   5.559   3.841   3.287 -1.1641  0.1732  0.5375
16219TIP3   OH270147   6.704   0.778   3.878  0.2867 -0.4426  0.1834
16219TIP3    H170148   6.642   0.705   3.872 -1.1844  0.7929 -0.6089
16219TIP3    H270149   6.649   0.856   3.868  1.9412  0.7365 -0.1163
16220TIP3   OH270150   4.743   6.060   5.405  0.4089  0.2124  0.2587
16220TIP3    H170151   4.721   6.044   5.313  0.8369 -0.9542  0.3386
16220TIP3    H270152   4.833   6.029   5.414  0.2624  0.0031  1.1390
16221TIP3   OH270153   5.752   6.168  17.141 -0.1030 -0.0025  0.2457
16221TIP3    H170154   5.769   6.242  17.083  2.3612 -1.1417 -0.6596
16221TIP3    H270155   5.826   6.109  17.126 -0.5875 -1.4384  2.8669
16222TIP3   OH270156   0.785   2.170   5.610 -0.0987  0.2249  0.2002
16222TIP3    H170157   0.725   2.104   5.645 -0.0674 -0.1532 -0.4422
16222TIP3    H270158   0.792   2.148   5.517 -0.0377  1.0992 -0.0025
16223TIP3   OH270159   4.878   2.355   4.120 -0.4777  0.1461 -0.2630
16223TIP3    H170160   4.958   2.305   4.105 -0.6098 -0.3831  0.6960
16223TIP3    H270161   4.890   2.436   4.071  0.4743 -0.1060 -0.4537
16224TIP3   OH270162   3.228   4.261   2.069  0.3613 -0.4133 -0.4569
16224TIP3    H170163   3.160   4.320   2.035  0.2899 -0.4663 -0.4051
16224TIP3    H270164   3.310   4.311   2.057  0.1819  0.1686  0.6345
16225TIP3   OH270165   1.489   1.148  13.575  0.3061  0.3451  0.0195
16225TIP3    H170166   1.567   1.135  13.521  1.5223 -3.6577  2.2884
16225TIP3    H270167   1.524   1.164  13.663 -1.3976 -0.6630  0.9377
16226TIP3   OH270168   0.900   0.760   0.979 -0.8269  0.0158  0.0215
16226TIP3    H170169   0.840   0.784   1.050 -1.1434 -0.4503 -0.0867
16226TIP3    H270170   0.921   0.668   0.996  0.5598  0.4136  0.5704
16227TIP3   OH270171   4.138   6.771  11.271  0.0651  0.2503  0.5203
16227TIP3    H170172   4.065   6.828  11.248  0.7005  1.3651  1.1923
16227TIP3    H270173   4.212   6.803  11.219  0.2437 -0.4700  0.3121
16228TIP3   OH270174   4.481   2.546   4.325 -0.4523  0.0843  0.3306
16228TIP3    H170175   4.392   2.576   4.344 -0.6215 -1.2056  1.7722
16228TIP3    H270176   4.531   2.570   4.403  0.4006  0.5150 -0.3375
16229TIP3   OH270177   6.181   2.211   4.786  0.1202  0.0056 -0.3792
16229TIP3    H170178   6.166   2.238   4.696  0.5536 -0.2195 -0.5210
16229TIP3    H270179   6.185   2.293   4.836 -4.1635  0.1076  0.1386
16230TIP3   OH270180   3.397   0.491  13.096  0.1220  0.6239 -0.4406
16230TIP3    H170181   3.391   0.558  13.164 -0.7593  3.5905 -3.1628
16230TIP3    H270182   3.307   0.458  13.087  0.0062  1.0639 -0.9138
16231TIP3   OH270183   4.071   6.476   4.104 -0.4081 -0.4224  0.3914
16231TIP3    H170184   4.116   6.465   4.188  0.2241  0.1045  0.1278
16231TIP3    H270185   4.008   6.404   4.102 -1.7984  0.6755  2.1777
16232TIP3   OH270186   5.441   0.478  14.776 -0.3152  0.4021 -0.1185
16232TIP3    H170187   5.521   0.427  14.788 -0.3882  0.4488  0.5929
16232TIP3    H270188   5.391   0.428  14.711  0.5998  0.7515 -1.1303
16233TIP3   OH270189   0.859   5.362  11.684  0.4081 -0.0533 -0.1061
16233TIP3    H170190   0.854   5.290  11.622  1.0982  0.0105 -0.2377
16233TIP3    H270191   0.896   5.435  11.635 -0.2886  0.3995  0.0249
16234TIP3   OH270192   6.462   4.695   2.069 -0.0447  0.2325 -0.6918
16234TIP3    H170193   6.459   4.734   2.157 -0.1623  1.0743 -1.0537
16234TIP3    H270194   6.509   4.612   2.081 -1.5597 -0.5087  0.4740
16235TIP3   OH270195   4.964   1.132  13.470 -0.0782 -0.3863 -0.4952
16235TIP3    H170196   5.004   1.197  13.529  0.1433 -0.0238 -1.0360
16235TIP3    H270197   4.920   1.184  13.403  0.0546 -0.7985 -0.9068
16236TIP3   OH270198   2.255   1.702  11.763 -0.1307  0.4445  0.0734
16236TIP3    H170199   2.230   1.722  11.673 -3.7768  2.0088  1.2249
16236TIP3    H270200   2.260   1.606  11.766 -1.9587  0.2363 -1.4206
16237TIP3   OH270201   0.567   1.655   3.604  0.4740 -0.3079 -0.2616
16237TIP3    H170202   0.494   1.596   3.583  0.5069 -0.9781  1.3226
16237TIP3    H270203   0.555   1.675   3.697  1.5074  0.7290 -0.3312
16238TIP3   OH270204   3.450   5.169   2.409 -0.3056  0.2155  0.3940
16238TIP3    H170205   3.525   5.114   2.388  0.4160  0.6203  1.8295
16238TIP3    H270206   3.375   5.123   2.372  0.3436 -1.4650  1.1100
16239TIP3   OH270207   5.289   4.597   4.393  0.2979 -0.4318  0.0137
16239TIP3    H170208   5.252   4.528   4.449 -0.1047 -0.6551 -0.5231
16239TIP3    H270209   5.216   4.658   4.380  0.5399 -0.1132  0.1589
16240TIP3   OH270210   5.600   2.289  14.733  0.2096  0.0111  0.3424
16240TIP3    H170211   5.623   2.229  14.662  1.0925 -1.2117  1.6081
16240TIP3    H270212   5.513   2.261  14.761 -0.9781  1.6848 -1.4072
16241TIP3   OH270213   0.283   2.722  16.281 -0.1057  0.1383 -0.4765
16241TIP3    H170214   0.207   2.667  16.301  0.0243 -1.1112 -2.9186
16241TIP3    H270215   0.293   2.779  16.357 -1.9522 -1.3571  0.9940
16242TIP3   OH270216   4.110   5.103  15.473  0.3069  0.1920 -0.0088
16242TIP3    H170217   4.032   5.089  15.526  1.3898 -1.6915  1.1918
16242TIP3    H270218   4.091   5.057  15.391 -0.4063  1.0462 -0.3460
16243TIP3   OH270219   2.243   5.650  16.456 -0.1461 -0.1649  0.5135
16243TIP3    H170220   2.171   5.666  16.395 -0.4914  0.1297  0.9916
16243TIP3    H270221   2.265   5.558  16.444  0.7681  0.2281 -1.1005
16244TIP3   OH270222   6.640   6.717   4.125  0.1698  0.1670 -0.0538
16244TIP3    H170223   6.618   6.776   4.197  0.2333 -0.4806  0.5029
16244TIP3    H270224   6.710   6.762   4.077 -0.2935  0.8739 -0.0734
16245TIP3   OH270225   5.019   6.084   4.829  0.0422  0.3614  0.1187
16245TIP3    H170226   5.005   6.075   4.735  0.9634 -0.0690  0.0207
16245TIP3    H270227   5.071   6.164   4.838 -0.8834  0.9623  0.3542
16246TIP3   OH270228   4.514   0.878  13.306  0.3532 -0.2204  0.5930
16246TIP3    H170229   4.428   0.877  13.348  0.5692 -1.1107  1.0167
16246TIP3    H270230   4.551   0.964  13.329 -0.4774  0.2373  0.2687
16247TIP3   OH270231   2.021   0.252   2.338 -0.4280 -0.1128 -0.6074
16247TIP3    H170232   2.114   0.266   2.359 -0.4766 -0.7371  0.0736
16247TIP3    H270233   1.992   0.188   2.403 -1.5474  0.7063 -0.2800
16248TIP3   OH270234   0.367   2.091   0.913 -0.9203  0.0931  0.2943
16248TIP3    H170235   0.335   2.033   0.844 -0.1810 -1.0509  0.8844
16248TIP3    H270236   0.458   2.108   0.889 -1.4156  1.9315 -0.4543
16249TIP3   OH270237   2.718   6.128  14.367  0.3552  0.5306  0.3507
16249TIP3    H170238   2.741   6.053  14.313 -2.1296 -0.1697  0.1391
16249TIP3    H270239   2.782   6.195  14.343  2.5741 -1.3928  0.4483
16250TIP3   OH270240   6.743   1.925   2.615  0.0642  0.2014  0.1585
16250TIP3    H170241   6.708   1.840   2.589 -2.1455  1.3548 -0.9501
16250TIP3    H270242   6.702   1.944   2.699  0.8587  0.0293  0.5965
16251TIP3   OH270243   6.798   6.215  14.101 -0.4002 -0.1427 -0.0466
16251TIP3    H170244   6.754   6.134  14.078 -0.7915 -0.0162  0.2404
16251TIP3    H270245   6.812   6.259  14.017 -0.7735 -0.2102 -0.1464
16252TIP3   OH270246   6.221   4.382   0.486 -0.2085  0.0640 -0.3216
16252TIP3    H170247   6.211   4.292   0.457  0.5919 -0.4802  0.9958
16252TIP3    H270248   6.288   4.419   0.429  0.5546 -0.6539  0.0940
16253TIP3   OH270249   1.843   3.997  15.816 -0.2878  0.0502 -0.2030
16253TIP3    H170250   1.850   4.030  15.727 -0.6677  0.2163 -0.1737
16253TIP3    H270251   1.931   4.007  15.852 -0.1603  0.0865 -0.5207
16254TIP3   OH270252   1.400   2.043  14.575  0.5535  0.9597  0.3020
16254TIP3    H170253   1.427   1.999  14.656  1.8438 -0.4466 -0.8390
16254TIP3    H270254   1.306   2.056  14.586  0.0716 -2.0816  0.7943
16255TIP3   OH270255   5.637   4.302   5.621 -0.1904  0.2018  0.0893
16255TIP3    H170256   5.693   4.335   5.551  0.1788 -0.8300 -0.1339
16255TIP3    H270257   5.549   4.332   5.599  0.2575  1.8086  0.4202
16256TIP3   OH270258   4.146   5.313   6.256  0.3084 -0.1429  0.1756
16256TIP3    H170259   4.160   5.352   6.343  1.5349  0.1555 -0.1371
16256TIP3    H270260   4.092   5.377   6.210  0.9384  0.4316  0.2156
16257TIP3   OH270261   5.584   5.048  10.633  0.4547  0.0243  0.4668
16257TIP3    H170262   5.603   4.971  10.580 -1.7758  1.0931 -2.1348
16257TIP3    H270263   5.656   5.108  10.614  0.5880 -0.2629  0.0249
16258TIP3   OH270264   4.346   4.257  16.023  0.9388 -0.0844  0.0530
16258TIP3    H170265   4.406   4.247  15.949  1.1620  0.5181  0.1512
16258TIP3    H270266   4.394   4.310  16.086 -0.1165  1.3728 -0.3388
16259TIP3   OH270267   4.504   6.235  14.883 -1.1618  0.1161  0.7562
16259TIP3    H170268   4.482   6.316  14.929 -0.1155 -0.0870  1.6252
16259TIP3    H270269   4.578   6.258  14.827  0.9412 -0.8337  3.0088
16260TIP3   OH270270   0.079   3.153   1.149 -0.1192  0.1631 -0.7772
16260TIP3    H170271   0.001   3.175   1.097 -1.6503 -0.8199  0.9850
16260TIP3    H270272   0.082   3.057   1.147 -0.8019  0.0376  1.6681
16261TIP3   OH270273   5.639   2.984  13.006  0.3472  0.1699 -0.4095
16261TIP3    H170274   5.586   2.927  13.062  2.0680 -0.2429  0.8796
16261TIP3    H270275   5.675   3.049  13.066  2.6849 -0.6091 -0.8581
16262TIP3   OH270276   5.759   3.562   0.304 -0.4777  0.6236 -0.6176
16262TIP3    H170277   5.831   3.564   0.240 -1.3533 -2.2573 -1.8329
16262TIP3    H270278   5.802   3.574   0.388  1.2729  0.2738 -1.4113
16263TIP3   OH270279   2.253   0.480   1.112 -0.0647  0.2016  0.1508
16263TIP3    H170280   2.302   0.533   1.175  2.1034 -0.0033 -1.2400
16263TIP3    H270281   2.229   0.541   1.043  1.0541 -0.2670 -0.6872
16264TIP3   OH270282   0.748   1.909  13.417 -0.0439  0.0097 -0.1295
16264TIP3    H170283   0.656   1.935  13.420 -0.2074 -0.5530 -0.1138
16264TIP3    H270284   0.781   1.948  13.336 -0.1585  0.6421  0.1204
16265TIP3   OH270285   4.615   5.636  14.433 -0.0833  0.3221  0.9435
16265TIP3    H170286   4.564   5.571  14.385  1.1980 -0.4256  0.5584
16265TIP3    H270287   4.560   5.658  14.509 -1.1663 -0.1074  0.3042
16266TIP3   OH270288   3.623   0.769   0.295 -0.6335  0.4690  0.1865
16266TIP3    H170289   3.620   0.681   0.333  1.0972  0.1788 -0.2589
16266TIP3    H270290   3.600   0.757   0.203 -0.1261  0.4275  0.0616
16267TIP3   OH270291   2.815   5.583   4.859  0.2184 -0.3581  0.5186
16267TIP3    H170292   2.898   5.586   4.811  0.6794  1.3350  1.3291
16267TIP3    H270293   2.792   5.490   4.862  1.1855 -0.7012 -1.2033
16268TIP3   OH270294   5.930   6.637   5.819 -0.3556 -0.0229 -0.0981
16268TIP3    H170295   5.920   6.710   5.880  2.8464  1.2551 -0.8615
16268TIP3    H270296   6.011   6.594   5.846 -0.2224 -1.0170 -1.8821
16269TIP3   OH270297   4.753   3.297   0.299  0.0894  0.4264  0.5018
16269TIP3    H170298   4.836   3.305   0.345 -0.1725 -0.7155  1.2149
16269TIP3    H270299   4.699   3.367   0.334  0.3677  0.4485  0.8946
16270TIP3   OH270300   6.490   3.147  11.756 -0.1505 -0.0208  0.5890
16270TIP3    H170301   6.460   3.072  11.808  0.3127  0.6864  1.9050
16270TIP3    H270302   6.519   3.211  11.820 -1.3273  1.6602 -0.4888
16271TIP3   OH270303   1.325   2.578   3.237  0.1878  0.0712  0.4459
16271TIP3    H170304   1.400   2.633   3.213  0.7534 -0.1908  1.5151
16271TIP3    H270305   1.271   2.635   3.292 -0.2966  0.1967 -0.1595
16272TIP3   OH270306   5.526   1.364   1.218 -0.4518  1.1283 -0.2219
16272TIP3    H170307   5.502   1.455   1.201 -1.0899  0.9862 -0.1269
16272TIP3    H270308   5.544   1.360   1.312 -0.0476  1.2374 -0.2946
16273TIP3   OH270309   6.567   4.049   4.417 -0.0419  0.5810  0.5302
16273TIP3    H170310   6.553   3.985   4.487  0.6279 -2.0098 -1.5466
16273TIP3    H270311   6.660   4.042   4.397 -0.3812  0.5635 -1.1975
16274TIP3   OH270312   1.555   5.162   0.356 -0.1360  0.3055  0.5530
16274TIP3    H170313   1.625   5.155   0.291 -0.0930 -1.7376  0.7770
16274TIP3    H270314   1.599   5.196   0.434  0.2881  0.5020  0.2331
16275TIP3   OH270315   2.602   0.548   4.405 -0.0772  0.2270  0.0561
16275TIP3    H170316   2.530   0.488   4.421  2.4595 -2.7866  1.1676
16275TIP3    H270317   2.615   0.545   4.310  0.1092 -1.2461  0.0987
16276TIP3   OH270318   5.471   1.634   1.195  0.0493 -0.3203  0.0546
16276TIP3    H170319   5.555   1.661   1.233 -0.7039  0.0147  1.5468
16276TIP3    H270320   5.441   1.710   1.146  0.6061 -0.4387 -0.4787
16277TIP3   OH270321   2.674   2.695  10.776  0.5841 -0.2047  0.8870
16277TIP3    H170322   2.765   2.679  10.748 -0.1044 -0.2202 -1.6023
16277TIP3    H270323   2.643   2.609  10.805  0.3461 -1.0429 -1.6436
16278TIP3   OH270324   6.693   2.136  13.978 -0.6113 -0.0322  0.3491
16278TIP3    H170325   6.711   2.222  13.940 -2.7397  0.6453  0.7184
16278TIP3    H270326   6.597   2.132  13.984 -0.4844 -1.3196  2.8501
16279TIP3   OH270327   1.126   0.017   4.909 -0.2263 -0.5407  0.0447
16279TIP3    H170328   1.153   0.107   4.926  1.0296 -0.7522 -0.6445
16279TIP3    H270329   1.059  -0.002   4.974 -0.6035  0.9359  0.1013
16280TIP3   OH270330   4.134   4.470   6.130  0.5074 -0.2742  0.1555
16280TIP3    H170331   4.075   4.405   6.167 -0.7768  0.1468 -1.0545
16280TIP3    H270332   4.126   4.546   6.188  0.6637 -0.5722  0.5731
16281TIP3   OH270333   5.797   1.503  11.246  0.0066  0.2567 -0.1458
16281TIP3    H170334   5.869   1.486  11.186 -0.3673 -1.9954 -0.0598
16281TIP3    H270335   5.839   1.527  11.329  0.8589 -2.6582  0.4057
16282TIP3   OH270336   6.703   4.650   1.875 -0.7310 -0.5913  0.1163
16282TIP3    H170337   6.643   4.609   1.937  0.6500 -0.3028  1.7220
16282TIP3    H270338   6.720   4.583   1.809 -3.4902 -0.3737 -0.9501
16283TIP3   OH270339   5.704   3.763  16.603  0.5222 -0.4421  0.0191
16283TIP3    H170340   5.726   3.744  16.512  0.9876 -1.8451  0.4021
16283TIP3    H270341   5.733   3.686  16.652  0.9365  0.5830  1.4631
16284TIP3   OH270342   0.652   0.799   1.596 -0.1061 -0.3583  0.7955
16284TIP3    H170343   0.615   0.772   1.680 -1.0684 -0.0199  0.4979
16284TIP3    H270344   0.616   0.737   1.533  0.8329 -0.7803  0.6652
16285TIP3   OH270345   0.888   4.680   6.279 -0.0566  0.0530 -0.5049
16285TIP3    H170346   0.961   4.694   6.218  1.7457 -1.5524  1.1245
16285TIP3    H270347   0.833   4.615   6.236 -1.2282  2.0732 -2.2411
16286TIP3   OH270348   0.069   1.425  13.756  0.6341  0.2819 -0.3756
16286TIP3    H170349   0.108   1.512  13.769  0.7526  0.1734  0.0156
16286TIP3    H270350   0.024   1.406  13.839  1.6997 -0.5809  0.0367
16287TIP3   OH270351   2.507   5.494   0.265  0.1780  0.5530  0.0304
16287TIP3    H170352   2.587   5.511   0.315 -0.7559 -0.1482  1.8710
16287TIP3    H270353   2.522   5.409   0.224 -0.2791 -0.4921  1.9131
16288TIP3   OH270354   1.951   2.996  13.257 -0.1000 -0.3670  0.6535
16288TIP3    H170355   1.967   2.943  13.179 -0.3446  0.9303 -0.3126
16288TIP3    H270356   1.988   3.082  13.236  1.3329 -0.4274  2.6221
16289TIP3   OH270357   2.480   6.210  13.122 -0.1247  0.0508 -0.2630
16289TIP3    H170358   2.479   6.304  13.136 -1.8852  0.0544 -0.2039
16289TIP3    H270359   2.508   6.200  13.031  1.0685  0.5657  0.0395
16290TIP3   OH270360   2.622   2.922  11.562 -0.1645 -0.3427  1.0231
16290TIP3    H170361   2.614   2.844  11.506  0.0099  0.2252  0.1918
16290TIP3    H270362   2.535   2.963  11.557 -0.6004 -1.0431  2.3319
16291TIP3   OH270363   0.931   0.091   3.189  0.1124  1.1315  0.1322
16291TIP3    H170364   0.986   0.164   3.162  0.3072  1.2735  0.8942
16291TIP3    H270365   0.899   0.116   3.276  0.8711 -0.0564  0.7813
16292TIP3   OH270366   0.454   5.706   1.224 -0.4365 -0.2652 -0.8305
16292TIP3    H170367   0.531   5.721   1.278 -0.7068  0.4312 -0.6201
16292TIP3    H270368   0.489   5.692   1.136 -0.0004 -1.3171 -0.5029
16293TIP3   OH270369   4.270   5.555   5.053  0.3174 -0.0325 -0.4776
16293TIP3    H170370   4.268   5.478   5.110 -0.9418 -0.3913 -0.9596
16293TIP3    H270371   4.326   5.617   5.098  1.7134 -1.3792 -0.2790
16294TIP3   OH270372   6.235   0.584   2.716  0.2767 -0.0494  0.8025
16294TIP3    H170373   6.240   0.502   2.764 -2.3545 -2.0946 -2.0745
16294TIP3    H270374   6.149   0.620   2.738  0.2902  0.5286 -0.0307
16295TIP3   OH270375   4.323   2.632  16.734  0.1712 -0.0984  0.0242
16295TIP3    H170376   4.260   2.565  16.708 -0.0618 -0.4297  1.3483
16295TIP3    H270377   4.287   2.668  16.815  2.1545 -0.9765  1.3716
16296TIP3   OH270378   6.299   1.119   1.378 -0.3060 -0.1506  0.2494
16296TIP3    H170379   6.314   1.074   1.295  0.7639 -0.6828  0.7134
16296TIP3    H270380   6.384   1.157   1.400 -0.7244  0.4705  0.8200
16297TIP3   OH270381   1.970   1.300   3.973 -0.2839 -0.4573  0.0156
16297TIP3    H170382   1.928   1.266   4.052 -1.6369  1.3389  0.1338
16297TIP3    H270383   2.063   1.305   3.996 -0.4934 -1.1173  1.0649
16298TIP3   OH270384   0.260   3.714   3.933 -0.1892 -0.0137 -0.1532
16298TIP3    H170385   0.204   3.767   3.876  0.3107  0.4140 -0.2481
16298TIP3    H270386   0.322   3.777   3.971  0.0612 -0.4441  0.1546
16299TIP3   OH270387   3.102   6.016   3.071  0.2664  0.1242 -0.4226
16299TIP3    H170388   3.189   6.055   3.066  0.6251 -0.6636 -0.4548
16299TIP3    H270389   3.116   5.930   3.108 -0.4950 -0.0416 -0.4966
16300TIP3   OH270390   1.003   5.054  15.110  0.2692  0.5405 -0.3203
16300TIP3    H170391   1.044   5.134  15.143 -0.9438  0.6978  0.8785
16300TIP3    H270392   0.958   5.017  15.185  0.0348 -0.7981 -1.0850
16301TIP3   OH270393   0.256   1.088   1.991 -0.5576  0.3109 -0.4400
16301TIP3    H170394   0.292   1.057   1.908  0.9500 -1.4985  0.8126
16301TIP3    H270395   0.324   1.147   2.026  0.4055 -1.5178  0.9771
16302TIP3   OH270396   0.473   0.996  10.804 -0.0393  0.1026 -0.3235
16302TIP3    H170397   0.409   1.034  10.743 -0.8773 -1.2512 -0.3360
16302TIP3    H270398   0.526   0.938  10.751  0.9243  0.8641 -0.2194
16303TIP3   OH270399   3.736   3.008   0.793  0.3123  0.5721  1.1092
16303TIP3    H170400   3.770   2.920   0.775 -0.7693 -0.1079  2.1779
16303TIP3    H270401   3.647   2.993   0.825 -0.3797  2.1689  0.0466
16304TIP3   OH270402   6.012   0.902   5.805 -0.4388  0.1897  0.0715
16304TIP3    H170403   6.003   0.817   5.763 -0.6534  1.0154 -1.6257
16304TIP3    H270404   5.937   0.907   5.864  0.2349 -1.2635  1.1157
16305TIP3   OH270405   4.240   4.316  11.527  0.2373  0.4656 -0.2520
16305TIP3    H170406   4.323   4.323  11.573 -0.5387 -0.2815  1.3431
16305TIP3    H270407   4.174   4.322  11.596 -0.9507 -2.7598 -0.9418
16306TIP3   OH270408   5.381   5.939  15.093 -0.1365  0.1311  0.6733
16306TIP3    H170409   5.465   5.970  15.060 -1.3739  2.0391 -0.8754
16306TIP3    H270410   5.342   5.891  15.020 -0.8873  0.2717  0.9728
16307TIP3   OH270411   6.844   0.141  10.999  0.0644  0.1447 -0.3293
16307TIP3    H170412   6.759   0.180  11.020 -0.1196 -0.8023  0.8035
16307TIP3    H270413   6.881   0.119  11.084  0.9853 -0.4071 -0.8655
16308TIP3   OH270414   2.295   3.416  16.432  0.1308 -0.1807 -0.1645
16308TIP3    H170415   2.258   3.328  16.428 -1.9676  0.6662 -0.7655
16308TIP3    H270416   2.287   3.440  16.524  2.7410 -1.3577  0.4630
16309TIP3   OH270417   3.194   2.848   3.291 -0.4463  0.0062 -0.1946
16309TIP3    H170418   3.110   2.832   3.249 -1.2101  2.5032  0.2328
16309TIP3    H270419   3.175   2.911   3.361  1.6457 -0.0024  0.4714
16310TIP3   OH270420   2.753   3.798   5.907 -0.3028  0.5838 -0.5078
16310TIP3    H170421   2.784   3.748   5.983 -0.9333  1.8684  0.6275
16310TIP3    H270422   2.833   3.833   5.868 -0.0710  1.3208  0.5845
16311TIP3   OH270423   1.257   6.207  11.544 -0.9771 -0.4356 -0.6144
16311TIP3    H170424   1.283   6.220  11.635  0.8015  0.8987 -1.2589
16311TIP3    H270425   1.286   6.286  11.498  0.6283 -2.1453 -2.8099
16312TIP3   OH270426   0.080   1.245  16.044 -0.6319  0.0813  0.2503
16312TIP3    H170427   0.166   1.203  16.036 -1.0108 -0.6810  0.0817
16312TIP3    H270428   0.030   1.186  16.100 -0.5538  1.3220  1.6803
16313TIP3   OH270429   3.380   3.263   0.298  0.0520 -0.2162  0.3359
16313TIP3    H170430   3.375   3.353   0.266  0.6454 -0.7520 -1.3074
16313TIP3    H270431   3.292   3.246   0.334 -0.4678  0.5851 -0.5160
16314TIP3   OH270432   3.121   3.811   3.698  0.4080  0.1355  0.1024
16314TIP3    H170433   3.077   3.727   3.687 -0.5736  0.6119  0.3578
16314TIP3    H270434   3.211   3.794   3.668  0.5527 -1.2966  1.2042
16315TIP3   OH270435   0.620   6.363  12.795  0.0151 -0.1299 -0.1206
16315TIP3    H170436   0.575   6.345  12.713 -0.6622 -0.2061  0.2646
16315TIP3    H270437   0.711   6.379  12.769 -0.9530  4.8857 -1.5824
16316TIP3   OH270438   3.500   6.501   2.785  0.7760  0.3333 -0.1586
16316TIP3    H170439   3.530   6.549   2.709  0.0935 -0.3884 -0.9042
16316TIP3    H270440   3.568   6.437   2.802  0.4964 -0.1265 -0.7482
16317TIP3   OH270441   0.283   6.691  12.416  0.0433 -0.0903  0.1561
16317TIP3    H170442   0.295   6.785  12.407  3.8968 -0.5091 -0.7610
16317TIP3    H270443   0.188   6.678  12.407 -0.6480  3.6545  0.5353
16318TIP3   OH270444   3.861   2.709  15.249 -0.0509 -0.4342 -0.1784
16318TIP3    H170445   3.844   2.734  15.339  0.1297 -0.2575 -0.1917
16318TIP3    H270446   3.936   2.762  15.223 -0.6995  0.2222 -0.7388
16319TIP3   OH270447   5.323   3.180   1.718 -0.0526 -0.0914  0.2258
16319TIP3    H170448   5.281   3.245   1.774 -0.8763 -0.4417  0.0239
16319TIP3    H270449   5.417   3.188   1.738 -0.1818  0.8633  0.5060
16320TIP3   OH270450   3.061   3.683   3.177 -0.1240 -0.3621  0.5350
16320TIP3    H170451   2.965   3.686   3.173 -0.1709 -2.1227 -0.4570
16320TIP3    H270452   3.081   3.602   3.224  0.8684 -0.3659  0.1322
16321TIP3   OH270453   6.092   1.162  10.787  0.2824  0.4891  0.0013
16321TIP3    H170454   6.159   1.225  10.814  0.4726  0.0985  0.4428
16321TIP3    H270455   6.009   1.209  10.800  0.3003 -0.0015  2.2157
16322TIP3   OH270456   1.705   4.740   5.045 -0.3332 -0.1605 -0.4433
16322TIP3    H170457   1.665   4.653   5.044 -1.5898  0.3816 -0.3908
16322TIP3    H270458   1.630   4.800   5.053  0.5632  0.8873  0.3196
16323TIP3   OH270459   5.033   3.782   2.220  0.1510  0.0785 -0.9884
16323TIP3    H170460   5.021   3.704   2.274  0.7757 -1.6121 -3.1376
16323TIP3    H270461   4.979   3.849   2.262  1.1120 -0.8856  2.0570
16324TIP3   OH270462   6.215   4.045   5.812 -0.7299 -0.0963 -0.1223
16324TIP3    H170463   6.197   4.002   5.728  0.4695  0.1816 -0.5464
16324TIP3    H270464   6.247   4.132   5.787 -1.2482  0.3369  0.6646
16325TIP3   OH270465   4.312   5.838  11.143  0.0003  0.2352  0.6049
16325TIP3    H170466   4.312   5.770  11.210 -0.1398 -0.6141 -0.2444
16325TIP3    H270467   4.396   5.829  11.099  0.3016  1.1170  0.9651
16326TIP3   OH270468   5.962   3.828   5.019  0.3260  0.3484  1.0110
16326TIP3    H170469   5.909   3.842   5.098  0.8007 -0.5658  1.5202
16326TIP3    H270470   6.031   3.894   5.025  0.5042  0.1265  1.5009
16327TIP3   OH270471   3.962   3.291   6.500  0.0169  0.1616 -0.3560
16327TIP3    H170472   4.044   3.271   6.545  0.2649  1.0813 -0.3793
16327TIP3    H270473   3.973   3.253   6.413 -1.3387 -3.6388  0.9117
16328TIP3   OH270474   1.940   1.961  11.721  0.3078  0.2793 -0.8911
16328TIP3    H170475   1.931   1.867  11.740  0.6237  0.2621 -0.8191
16328TIP3    H270476   1.924   2.004  11.805  0.6382  0.2620 -0.8180
16329TIP3   OH270477   1.227   5.418  11.076 -0.4498  0.1374  0.0765
16329TIP3    H170478   1.164   5.401  11.006 -0.6835  0.1047  0.2926
16329TIP3    H270479   1.306   5.450  11.031 -0.9921  1.2437 -0.1255
16330TIP3   OH270480   6.362   2.919  13.295 -0.3005 -0.1289 -0.7086
16330TIP3    H170481   6.338   2.986  13.232  1.7145 -0.1258 -1.5441
16330TIP3    H270482   6.284   2.909  13.350 -1.0248  2.1047 -1.2225
16331TIP3   OH270483   2.072   0.817  14.946  0.3556 -0.3186 -0.4281
16331TIP3    H170484   1.984   0.831  14.980 -0.2137 -1.1412 -1.4792
16331TIP3    H270485   2.081   0.882  14.876  1.4921  1.3204  1.1523
16332TIP3   OH270486   6.786   4.918   1.856 -0.2045 -0.4247 -0.4790
16332TIP3    H170487   6.747   4.969   1.927 -1.2106 -1.5944 -0.1654
16332TIP3    H270488   6.747   4.831   1.864 -0.1590 -0.6578 -2.3162
16333TIP3   OH270489   2.237   0.431   3.532 -0.5026  0.0271 -0.4046
16333TIP3    H170490   2.244   0.369   3.459 -0.2788 -0.2859 -0.1191
16333TIP3    H270491   2.185   0.385   3.598 -0.5402  0.2349 -0.2893
16334TIP3   OH270492   5.014   2.190  15.738 -0.3585 -0.3544 -0.4509
16334TIP3    H170493   5.086   2.135  15.769 -1.5824 -0.5235  2.3672
16334TIP3    H270494   4.935   2.142  15.762 -1.4431  0.8468 -1.4938
16335TIP3   OH270495   1.442   0.261   2.210 -0.2488  0.4725 -0.0096
16335TIP3    H170496   1.489   0.329   2.258 -1.0817  0.7838  0.3835
16335TIP3    H270497   1.387   0.219   2.276 -0.2907 -0.0944 -0.3984
16336TIP3   OH270498   6.730   2.850  16.517  0.4092  0.1796 -0.1572
16336TIP3    H170499   6.694   2.869  16.604 -0.1429 -0.5988 -0.2149
16336TIP3    H270500   6.733   2.755  16.512  0.7138  0.2198 -0.8903
16337TIP3   OH270501   0.072   1.486   1.891 -0.3607 -0.2764  0.4493
16337TIP3    H170502   0.037   1.400   1.867 -0.3301 -0.1890  0.0868
16337TIP3    H270503   0.014   1.517   1.961 -1.1006 -0.0624 -0.2489
16338TIP3   OH270504   2.313   0.070   4.396  0.1262 -0.1485  0.0252
16338TIP3    H170505   2.240   0.060   4.458  1.2272 -1.6683  1.1794
16338TIP3    H270506   2.389   0.034   4.443  1.3548  0.1621 -1.6261
16339TIP3   OH270507   3.220   6.066   3.411  0.4019  0.3140 -0.4669
16339TIP3    H170508   3.301   6.087   3.365  1.5886 -0.0956  1.3428
16339TIP3    H270509   3.229   5.974   3.436  0.4261  0.8515  1.7075
16340TIP3   OH270510   4.471   6.757  16.797 -0.3513 -0.5347  0.3570
16340TIP3    H170511   4.460   6.672  16.840  0.2449 -1.0803 -0.5412
16340TIP3    H270512   4.383   6.793  16.792 -0.4885 -0.6279  1.6617
16341TIP3   OH270513   1.107   1.774   1.613  0.0458 -0.1030  0.3114
16341TIP3    H170514   1.142   1.769   1.702 -1.2345 -0.0224  0.8291
16341TIP3    H270515   1.050   1.698   1.604 -0.0541  0.0397 -0.3572
16342TIP3   OH270516   6.369   2.092  12.635  0.1329 -0.1281 -0.1316
16342TIP3    H170517   6.397   2.006  12.605 -0.7474 -0.7197  0.6968
16342TIP3    H270518   6.383   2.090  12.730  0.3084  0.7228 -0.1288
16343TIP3   OH270519   2.113   4.303   4.293 -0.0386 -0.2818 -0.3554
16343TIP3    H170520   2.209   4.292   4.289  0.2782  1.5278  1.0648
16343TIP3    H270521   2.080   4.216   4.315  1.2608 -0.9779 -1.0465
16344TIP3   OH270522   4.256   5.698  13.228 -0.1845  0.4605  0.3411
16344TIP3    H170523   4.229   5.725  13.141  1.6139 -0.5455 -0.5724
16344TIP3    H270524   4.227   5.607  13.236  1.6309 -0.1980 -0.1380
16345TIP3   OH270525   0.957   2.232   4.498  0.2161  0.2026  0.3642
16345TIP3    H170526   1.009   2.236   4.418  0.3859  0.0716  0.4689
16345TIP3    H270527   0.972   2.144   4.533  0.1537  0.2635  0.5469
16346TIP3   OH270528   1.453   3.629   5.143  0.7207  0.2905  0.3341
16346TIP3    H170529   1.475   3.595   5.056  0.2206 -1.3766  0.8243
16346TIP3    H270530   1.365   3.666   5.132  0.9898  0.8375 -0.0451
16347TIP3   OH270531   0.985   1.227   3.640  0.2219  0.3050  0.1894
16347TIP3    H170532   1.055   1.283   3.673  0.6739  1.6387 -2.7583
16347TIP3    H270533   0.914   1.287   3.619  0.3708 -0.2729 -2.1943
16348TIP3   OH270534   2.893   2.060  13.088 -0.1627 -0.4730 -0.1205
16348TIP3    H170535   2.837   1.989  13.119 -0.5795  0.2175  0.7640
16348TIP3    H270536   2.965   2.016  13.042 -0.0076 -1.5140  1.0631
16349TIP3   OH270537   6.751   4.279   1.009 -0.0377  0.6149 -0.0490
16349TIP3    H170538   6.771   4.316   0.923 -1.5886  1.6270 -0.0316
16349TIP3    H270539   6.831   4.292   1.060  0.6841  0.5851 -1.1346
16350TIP3   OH270540   0.839   1.916   4.218 -0.2701 -0.0139 -0.6677
16350TIP3    H170541   0.752   1.935   4.182 -0.1347 -0.9504 -1.5582
16350TIP3    H270542   0.866   1.837   4.172  0.4466 -0.5706  0.6697
16351TIP3   OH270543   4.271   0.352  14.685  0.3569 -0.0477  0.0009
16351TIP3    H170544   4.279   0.441  14.650  1.5827  0.3670  1.2499
16351TIP3    H270545   4.285   0.295  14.609 -0.5846  0.7955 -0.8476
16352TIP3   OH270546   3.124   1.746   2.997 -0.1800  0.2521 -0.1507
16352TIP3    H170547   3.175   1.821   3.027 -0.6570  1.1884 -1.6456
16352TIP3    H270548   3.038   1.781   2.976 -0.7471 -0.9109  0.1249
16353TIP3   OH270549   5.991   5.763   1.536  0.1994  0.0155 -0.2325
16353TIP3    H170550   6.059   5.785   1.600 -0.1596 -0.0662  0.1846
16353TIP3    H270551   6.035   5.709   1.471  0.7074  0.5859 -0.3686
16354TIP3   OH270552   4.254   5.548   4.551 -0.2381 -0.1901 -0.1738
16354TIP3    H170553   4.168   5.590   4.549 -1.6067 -2.5119  2.0102
16354TIP3    H270554   4.299   5.587   4.626  0.8021  1.2233 -1.4817
16355TIP3   OH270555   4.247   3.415  16.294 -0.4835 -0.1412 -0.1180
16355TIP3    H170556   4.262   3.322  16.277 -0.0173 -0.2412  0.7830
16355TIP3    H270557   4.191   3.444  16.222 -0.1252 -0.9712 -0.7441
16356TIP3   OH270558   5.968   3.062  11.960  0.0049 -0.2196 -0.5717
16356TIP3    H170559   6.038   3.110  12.004  0.8109 -0.2512 -1.7787
16356TIP3    H270560   5.891   3.118  11.970  0.6153  0.6899 -0.7772
16357TIP3   OH270561   5.160   4.575   1.583  0.4491 -0.0141  0.0708
16357TIP3    H170562   5.078   4.594   1.627  0.8543  1.2191  0.3503
16357TIP3    H270563   5.171   4.480   1.592 -1.5296 -0.3919 -1.0610
16358TIP3   OH270564   1.124   3.755   3.791 -0.0562 -0.6364  0.0966
16358TIP3    H170565   1.127   3.694   3.717 -1.7776 -1.6155  0.7508
16358TIP3    H270566   1.072   3.829   3.759  0.9718 -0.0737 -0.3049
16359TIP3   OH270567   6.367   4.570   5.390  0.5578  0.1849  0.0653
16359TIP3    H170568   6.319   4.569   5.307 -0.7778 -1.0546  0.7911
16359TIP3    H270569   6.442   4.512   5.375 -0.7181 -1.6024  0.2300
16360TIP3   OH270570   5.324   5.007  14.742 -0.4077  0.1050  0.4633
16360TIP3    H170571   5.392   4.984  14.805  0.1695  1.7615  0.4778
16360TIP3    H270572   5.252   4.947  14.761  0.5271 -0.7750  1.3360
16361TIP3   OH270573   2.999   3.205  14.601 -0.3530 -0.7985  0.9044
16361TIP3    H170574   2.991   3.201  14.697  0.5701 -1.8061  0.9587
16361TIP3    H270575   3.063   3.138  14.580  0.6750  0.5168 -0.2872
16362TIP3   OH270576   6.663   4.130   3.430 -0.3764  0.8480 -0.1079
16362TIP3    H170577   6.726   4.058   3.434  1.0067  1.9836 -0.6971
16362TIP3    H270578   6.615   4.116   3.349 -0.0161  0.6567 -0.2907
16363TIP3   OH270579   6.162   3.776  14.884  0.2034 -0.0882  0.0056
16363TIP3    H170580   6.141   3.683  14.891  0.4554 -0.2330 -0.9470
16363TIP3    H270581   6.082   3.817  14.851 -0.4863  0.3390  2.0589
16364TIP3   OH270582   6.441   5.116   4.928  0.4635 -0.1042  0.0261
16364TIP3    H170583   6.406   5.098   4.840  0.0788  0.7229 -0.0078
16364TIP3    H270584   6.394   5.195   4.956 -0.8300 -1.4289  1.7825
16365TIP3   OH270585   5.827   5.853   5.017  0.1083  0.0812  0.3291
16365TIP3    H170586   5.745   5.820   4.981  0.9634 -1.4888 -0.2907
16365TIP3    H270587   5.802   5.890   5.102 -1.2081 -0.5972  0.2707
16366TIP3   OH270588   2.614   1.376   2.206  0.1395 -0.3248  0.2714
16366TIP3    H170589   2.556   1.341   2.274  1.3576 -0.6184  1.1973
16366TIP3    H270590   2.692   1.321   2.210  0.5955  0.2139 -0.7727
16367TIP3   OH270591   3.850   0.584   0.288  0.2205 -0.3228  0.1454
16367TIP3    H170592   3.869   0.577   0.195 -0.0638 -0.2900  0.0839
16367TIP3    H270593   3.780   0.520   0.302 -0.1847  0.1361  0.2111
16368TIP3   OH270594   5.030   5.245   0.870  0.6785  0.0035 -0.4898
16368TIP3    H170595   5.034   5.150   0.863  1.1505 -0.0255  0.0942
16368TIP3    H270596   5.054   5.276   0.783  0.4269 -0.4120 -0.7118
16369TIP3   OH270597   0.161   2.542  17.062 -0.2196  0.3828 -0.1158
16369TIP3    H170598   0.168   2.476  17.131  0.9751  0.6548  0.0400
16369TIP3    H270599   0.077   2.586  17.080 -0.0082  0.3436  1.0613
16370TIP3   OH270600   5.558   2.403   0.549  0.4889  0.6991  0.3839
16370TIP3    H170601   5.475   2.367   0.580  0.9096 -0.9336 -0.3234
16370TIP3    H270602   5.607   2.328   0.516  2.1302  1.6672  0.4700
16371TIP3   OH270603   5.574   3.687  12.428 -0.1336  0.4651 -0.2305
16371TIP3    H170604   5.631   3.644  12.364  0.4764  0.8424  0.0460
16371TIP3    H270605   5.555   3.772  12.389 -0.3060  0.4362 -0.2084
16372TIP3   OH270606   2.171   3.676  13.916  0.6780  0.3711  0.3673
16372TIP3    H170607   2.191   3.594  13.961  1.4009  0.3791  0.0732
16372TIP3    H270608   2.136   3.648  13.831  0.3296  0.3663  0.5095
16373TIP3   OH270609   0.649   3.358  12.035  0.3088  0.3724  0.9504
16373TIP3    H170610   0.649   3.283  12.094  0.4867 -0.3618  0.0277
16373TIP3    H270611   0.658   3.434  12.093 -0.5219 -0.2690  1.9441
16374TIP3   OH270612   1.059   2.046  15.102  0.6217 -0.8079 -0.0173
16374TIP3    H170613   1.123   1.990  15.059  1.0537 -0.3866  0.0653
16374TIP3    H270614   1.028   1.995  15.176  1.7482 -0.5632  0.6471
16375TIP3   OH270615   5.366   4.004   5.622 -0.4144 -0.3976  0.1701
16375TIP3    H170616   5.328   3.930   5.575 -0.7169  0.2449 -0.5996
16375TIP3    H270617   5.293   4.039   5.673 -0.3521 -0.4119  0.2698
16376TIP3   OH270618   4.614   3.033  12.271 -0.4831  0.0679  0.0924
16376TIP3    H170619   4.553   3.105  12.258 -2.2093 -1.5759 -1.5875
16376TIP3    H270620   4.602   3.008  12.363  0.2871  1.9703  0.7536
16377TIP3   OH270621   2.123   2.665  15.164  0.2158  0.0525  0.1480
16377TIP3    H170622   2.093   2.641  15.077  0.0435 -0.4317  0.3350
16377TIP3    H270623   2.191   2.731  15.149  1.2163 -1.0603 -0.4332
16378TIP3   OH270624   0.488   3.475   4.751  0.0895  0.7241  0.4499
16378TIP3    H170625   0.511   3.400   4.806  2.2024  1.3764  0.5404
16378TIP3    H270626   0.517   3.551   4.802 -2.1909  1.6569  0.4450
16379TIP3   OH270627   2.496   0.229   5.977 -0.1589 -0.2546  0.3602
16379TIP3    H170628   2.507   0.199   6.067 -1.3288 -0.4943  0.4355
16379TIP3    H270629   2.471   0.321   5.985  2.7506  0.6533  0.1501
16380TIP3   OH270630   4.533   5.448   4.485 -0.1277 -0.1690 -0.4380
16380TIP3    H170631   4.492   5.533   4.475 -0.3132 -0.2243 -0.1760
16380TIP3    H270632   4.473   5.399   4.541 -0.5571 -0.8342 -1.4492
16381TIP3   OH270633   4.796   4.279   4.537  0.3533  0.6564 -0.5233
16381TIP3    H170634   4.701   4.279   4.544  0.3375  0.1833 -0.7209
16381TIP3    H270635   4.819   4.372   4.527  0.0052  0.8697  0.6057
16382TIP3   OH270636   2.717   5.550   0.443  0.7459 -0.5396  0.1911
16382TIP3    H170637   2.759   5.464   0.450 -0.1252 -1.0095 -0.2274
16382TIP3    H270638   2.785   5.611   0.473  2.0417 -1.1708 -1.3072
16383TIP3   OH270639   6.817   0.772  16.153 -0.0188  0.3071 -0.3696
16383TIP3    H170640   6.756   0.754  16.081 -0.8129  0.6787  0.2055
16383TIP3    H270641   6.835   0.686  16.192  0.9984 -0.0086 -1.4447
16384TIP3   OH270642   4.613   6.044   1.058 -0.2990 -0.1924  0.2634
16384TIP3    H170643   4.577   6.100   0.990 -0.8462  0.7242  1.2684
16384TIP3    H270644   4.708   6.044   1.042 -0.2990  0.9462  0.1615
16385TIP3   OH270645   5.931   4.078  11.491  0.6967 -0.7034  0.5207
16385TIP3    H170646   5.982   4.038  11.561 -0.0972 -2.0620  0.3502
16385TIP3    H270647   5.853   4.113  11.536  2.1957  2.4387  0.9855
16386TIP3   OH270648   0.597   3.421  14.717 -0.0544  0.2866 -0.4798
16386TIP3    H170649   0.664   3.489  14.703  1.1693 -0.6128  0.7011
16386TIP3    H270650   0.554   3.447  14.798 -0.7633  0.5554 -0.9382
16387TIP3   OH270651   2.961   6.789  10.977  0.6819  0.3728  0.1277
16387TIP3    H170652   2.896   6.841  10.930 -0.3014 -1.1979 -0.3095
16387TIP3    H270653   3.037   6.787  10.920  1.0042  1.8793  0.4597
16388TIP3   OH270654   4.188   2.746   4.286 -0.0352  0.1017  0.4286
16388TIP3    H170655   4.242   2.765   4.363 -1.1780  0.6140  1.1256
16388TIP3    H270656   4.131   2.822   4.277  1.2168  0.8358 -1.9742
16389TIP3   OH270657   2.278   2.818  13.869 -0.1201 -0.0160 -0.1049
16389TIP3    H170658   2.347   2.754  13.886 -0.0118  0.6176  2.0625
16389TIP3    H270659   2.197   2.768  13.871  0.0289 -0.2255  0.7202
16390TIP3   OH270660   1.596   4.381  14.282  0.2242  0.2478  0.1490
16390TIP3    H170661   1.619   4.289  14.270 -1.1057 -0.0612 -0.1758
16390TIP3    H270662   1.502   4.385  14.264  0.2369  1.6497  0.2828
16391TIP3   OH270663   0.315   4.792  10.342 -0.2834 -0.0009  0.1363
16391TIP3    H170664   0.273   4.741  10.411  0.3812  0.0343  0.5799
16391TIP3    H270665   0.384   4.736  10.308  0.0381  0.3558  0.1892
16392TIP3   OH270666   3.431   5.859  13.027 -0.5262  0.4767 -0.3651
16392TIP3    H170667   3.482   5.922  13.079 -0.3701  0.2486 -0.2403
16392TIP3    H270668   3.495   5.822  12.966 -0.0598 -1.2810  1.1171
16393TIP3   OH270669   3.828   4.810  16.046 -0.0644 -0.2203  0.2330
16393TIP3    H170670   3.826   4.763  15.963 -1.1864 -0.4711  0.3912
16393TIP3    H270671   3.737   4.835  16.062  0.2893  0.7068  0.8960
16394TIP3   OH270672   4.482   6.445   4.343  0.1473  0.0710 -0.7065
16394TIP3    H170673   4.486   6.538   4.323  1.2898 -0.4409 -3.2537
16394TIP3    H270674   4.397   6.416   4.311 -1.0059  0.5051  1.7596
16395TIP3   OH270675   0.632   4.665   0.608 -0.4611 -0.0258  0.3843
16395TIP3    H170676   0.674   4.744   0.573 -1.7084  0.8351  0.7448
16395TIP3    H270677   0.687   4.593   0.577  1.1557  1.0206  0.7029
16396TIP3   OH270678   4.695   6.159  11.590  0.3338 -0.3104  0.4982
16396TIP3    H170679   4.783   6.123  11.583 -0.2424 -1.7487  0.3444
16396TIP3    H270680   4.667   6.171  11.499  0.7339  1.1518  0.5353
16397TIP3   OH270681   0.412   2.294  15.456 -0.2492 -0.1937 -0.0409
16397TIP3    H170682   0.351   2.335  15.517 -0.8260 -0.7729 -0.2259
16397TIP3    H270683   0.493   2.284  15.506 -0.6883 -0.5750  0.5996
16398TIP3   OH270684   1.155   0.040   2.268  0.3135  0.3223 -0.1932
16398TIP3    H170685   1.218   0.012   2.202  0.4251 -0.9888  0.4271
16398TIP3    H270686   1.077   0.065   2.219  1.2766  1.9008 -0.9646
16399TIP3   OH270687   0.541   5.174  12.021  0.7561 -0.4482  0.5670
16399TIP3    H170688   0.610   5.143  11.963  0.1013 -1.2873  0.2175
16399TIP3    H270689   0.461   5.137  11.986 -0.0416  1.3592  0.3531
16400TIP3   OH270690   0.660   6.807   0.075  0.1843  0.3735  0.5920
16400TIP3    H170691   0.566   6.799   0.093  0.1798  1.1355  0.9659
16400TIP3    H270692   0.675   6.749   0.001 -0.2292 -1.1815  1.6851
16401TIP3   OH270693   3.093   1.058  16.291  0.3484  0.6806 -0.0665
16401TIP3    H170694   3.142   1.139  16.304  0.0946  0.7856  0.2607
16401TIP3    H270695   3.034   1.078  16.218  0.8348  0.5301 -0.5066
16402TIP3   OH270696   6.404   0.621   3.984  0.0589 -0.4968  0.4625
16402TIP3    H170697   6.450   0.613   3.900 -1.1913  1.3123 -0.4582
16402TIP3    H270698   6.344   0.547   3.984  1.5546 -1.7705  0.8048
16403TIP3   OH270699   3.515   3.134   1.197  0.7636 -0.1685 -0.7894
16403TIP3    H170700   3.497   3.200   1.264  1.1496 -0.8092 -0.0451
16403TIP3    H270701   3.489   3.176   1.115 -0.1755  0.4560 -0.1939
16404TIP3   OH270702   1.929   0.554  11.614 -0.0012 -1.3042 -0.3563
16404TIP3    H170703   1.841   0.520  11.632 -0.7082 -0.1289 -1.4118
16404TIP3    H270704   1.922   0.648  11.628  1.3738 -1.2943  0.5020
16405TIP3   OH270705   4.152   4.982   3.242  0.4308 -0.6488  0.0234
16405TIP3    H170706   4.164   4.887   3.241  1.1245 -0.5818  0.9208
16405TIP3    H270707   4.070   4.996   3.288 -0.3841 -0.8558 -1.3017
16406TIP3   OH270708   1.381   4.930   1.817 -0.0876 -0.0691  0.1095
16406TIP3    H170709   1.302   4.940   1.764  0.0474  1.2931  0.1097
16406TIP3    H270710   1.357   4.869   1.886 -1.7672  1.6788  1.1910
16407TIP3   OH270711   6.698   4.468   3.965  0.4994  0.5927 -0.2278
16407TIP3    H170712   6.607   4.446   3.945 -0.1895  1.0020  2.1035
16407TIP3    H270713   6.743   4.383   3.969 -0.2413  0.2175  0.5038
16408TIP3   OH270714   6.254   4.847   0.721  0.0833 -0.3923  0.9175
16408TIP3    H170715   6.182   4.881   0.775  0.6196  0.3154  1.2035
16408TIP3    H270716   6.255   4.753   0.739 -1.7095 -0.6840 -0.2138
16409TIP3   OH270717   0.221   0.989   0.167  0.4097  0.5750 -0.2119
16409TIP3    H170718   0.142   1.010   0.217  0.2277  0.4092 -0.4302
16409TIP3    H270719   0.205   0.901   0.133  0.1427  1.0404 -1.3292
16410TIP3   OH270720   2.898   4.558   2.698  0.9794  0.9791 -0.0026
16410TIP3    H170721   2.872   4.529   2.785  1.4031  0.2232 -0.1214
16410TIP3    H270722   2.871   4.650   2.694 -2.5134  0.0722 -0.4300
16411TIP3   OH270723   3.236   1.273  16.193 -0.2205  0.6060  0.1257
16411TIP3    H170724   3.254   1.334  16.264  0.3212 -1.3700  1.7917
16411TIP3    H270725   3.300   1.294  16.125  1.4626  0.4618  1.6074
16412TIP3   OH270726   3.452   1.131   5.705  0.4280 -0.5012  0.2541
16412TIP3    H170727   3.477   1.220   5.728  0.7818 -0.6640  0.5138
16412TIP3    H270728   3.511   1.107   5.634  0.7018 -0.7231  0.5565
16413TIP3   OH270729   2.936   0.755  14.915 -0.5040 -0.5335  0.1285
16413TIP3    H170730   2.897   0.699  14.849  1.3353 -0.8279 -0.7524
16413TIP3    H270731   2.982   0.696  14.974  1.1591 -0.0426 -0.6094
16414TIP3   OH270732   3.148   6.076   1.297  0.0077  0.0981  0.5899
16414TIP3    H170733   3.149   5.982   1.310  2.1193  0.3819  3.1982
16414TIP3    H270734   3.142   6.113   1.385  0.6668  2.3972 -0.2408
16415TIP3   OH270735   0.775   4.332   1.563 -0.2650 -0.0373 -0.1247
16415TIP3    H170736   0.796   4.297   1.476  3.3686  0.9845  0.1531
16415TIP3    H270737   0.711   4.402   1.546 -0.7053 -0.7848 -1.7659
16416TIP3   OH270738   3.546   1.416  16.222 -0.2504  0.2815 -0.1302
16416TIP3    H170739   3.462   1.447  16.256  0.9116  2.6869  0.7387
16416TIP3    H270740   3.604   1.492  16.227  2.0151 -1.3025 -0.6935
16417TIP3   OH270741   1.265   2.842  14.389  0.4219  0.1985 -0.2534
16417TIP3    H170742   1.342   2.896  14.406 -0.1503  1.2655 -0.9585
16417TIP3    H270743   1.240   2.809  14.475 -0.6825  3.1059  0.6763
16418TIP3   OH270744   1.406   3.627   1.918 -0.0632 -0.7239 -0.4258
16418TIP3    H170745   1.449   3.654   1.837  0.3610 -0.6927 -0.1942
16418TIP3    H270746   1.436   3.537   1.933 -2.5759 -1.9215 -1.9525
16419TIP3   OH270747   5.558   0.834   0.836 -0.5707 -0.4846  0.1543
16419TIP3    H170748   5.468   0.860   0.814  0.2025  0.8491 -1.6315
16419TIP3    H270749   5.612   0.875   0.769  1.5112 -0.3304  1.8261
16420TIP3   OH270750   6.395   1.679   1.193  0.6575  0.5331  0.1011
16420TIP3    H170751   6.400   1.586   1.215  0.4940  0.2887 -0.8585
16420TIP3    H270752   6.351   1.719   1.268 -1.4567 -0.5312 -0.5187
16421TIP3   OH270753   3.962   1.662  14.481  0.2150  0.1925  0.9187
16421TIP3    H170754   3.891   1.598  14.480 -0.2959  0.7359  1.5572
16421TIP3    H270755   3.973   1.685  14.573  1.0122  0.3506  0.7964
16422TIP3   OH270756   4.717   1.834  14.005 -0.2363  0.3003 -0.1110
16422TIP3    H170757   4.803   1.822  13.963 -0.8901 -1.1432 -1.1382
16422TIP3    H270758   4.669   1.891  13.945  0.4346  2.2662  1.1575
16423TIP3   OH270759   6.350   4.177   2.260  0.0873 -0.3302 -0.2996
16423TIP3    H170760   6.317   4.099   2.218 -0.3877 -0.4192  0.2272
16423TIP3    H270761   6.292   4.191   2.335  1.1295 -0.3931  0.5456
16424TIP3   OH270762   6.484   3.693   0.351  0.2398  0.5145 -0.2454
16424TIP3    H170763   6.484   3.765   0.288 -0.9704  0.4918 -0.2922
16424TIP3    H270764   6.544   3.629   0.314  0.5776  1.0776 -0.6921
16425TIP3   OH270765   3.696   1.032  13.635 -0.8170  0.4246 -0.1161
16425TIP3    H170766   3.704   1.036  13.730 -0.8805 -0.4103 -0.0618
16425TIP3    H270767   3.612   1.072  13.616 -0.7855  0.6335  0.1805
16426TIP3   OH270768   6.021   0.017  14.219 -0.2359 -0.2448  0.4878
16426TIP3    H170769   6.099   0.042  14.269  0.0971  0.5398 -0.4089
16426TIP3    H270770   6.050  -0.057  14.166 -0.1603 -0.0876  0.3098
16427TIP3   OH270771   6.684   6.674   2.634 -0.0342  0.1085 -0.2256
16427TIP3    H170772   6.677   6.582   2.662 -1.0198  0.0914 -0.4761
16427TIP3    H270773   6.778   6.691   2.629  0.1649 -1.1012 -0.8806
16428TIP3   OH270774   4.799   6.410  12.855  0.9390 -0.3644  0.1978
16428TIP3    H170775   4.741   6.344  12.815  1.0727  0.2707 -1.1080
16428TIP3    H270776   4.827   6.464  12.781  0.6720  1.2980  1.2796
16429TIP3   OH270777   6.269   0.312   2.745  0.2501 -0.2462 -0.2471
16429TIP3    H170778   6.268   0.265   2.828  1.9854 -0.1335 -0.1357
16429TIP3    H270779   6.252   0.245   2.678 -1.9800 -0.2062  0.2036
16430TIP3   OH270780   0.537   0.885  15.779 -0.0043 -0.2581  0.5491
16430TIP3    H170781   0.578   0.918  15.859  0.9844  0.1856 -0.1284
16430TIP3    H270782   0.506   0.963  15.734 -1.0333 -0.5411  0.7207
16431TIP3   OH270783   3.447   4.293  12.429  0.0624 -0.1906 -0.0260
16431TIP3    H170784   3.355   4.266  12.421 -0.1987  0.7763 -0.5251
16431TIP3    H270785   3.475   4.257  12.513 -0.9326 -0.0930  0.3703
16432TIP3   OH270786   4.126   6.251   2.120  0.1856  0.2750  0.7498
16432TIP3    H170787   4.169   6.310   2.180  2.4375  0.3770 -0.8492
16432TIP3    H270788   4.052   6.302   2.085 -1.4917  0.0266  3.6681
16433TIP3   OH270789   4.506   5.067  13.962  0.0180  0.2917  0.7079
16433TIP3    H170790   4.458   4.984  13.957  0.8607 -0.2028  0.5710
16433TIP3    H270791   4.443   5.133  13.936 -0.4117 -0.4106 -0.0766
16434TIP3   OH270792   5.114   0.318   4.471  0.2694 -0.3971  0.6128
16434TIP3    H170793   5.191   0.268   4.498  0.1011 -1.3728 -0.6469
16434TIP3    H270794   5.061   0.257   4.420 -0.4597  0.7579 -0.0712
16435TIP3   OH270795   3.219   0.745  15.581  0.1134  0.5453 -0.1667
16435TIP3    H170796   3.151   0.684  15.608 -0.0217  0.3903 -0.8356
16435TIP3    H270797   3.175   0.830  15.573 -0.0289  0.4289 -0.6796
16436TIP3   OH270798   3.046   1.976  16.906  0.3532  0.2284  0.3959
16436TIP3    H170799   2.992   1.963  16.983  0.1729 -1.1146  0.0736
16436TIP3    H270800   3.112   1.907  16.911  0.1047 -0.1297 -0.8362
16437TIP3   OH270801   5.089   6.440  16.163  0.2489 -0.0709  0.0831
16437TIP3    H170802   5.034   6.473  16.093  0.7630  1.0133  0.1643
16437TIP3    H270803   5.029   6.397  16.223 -0.5133  0.9754  0.1040
16438TIP3   OH270804   3.958   5.572   6.435 -0.4581 -0.8072 -0.3500
16438TIP3    H170805   3.930   5.650   6.483 -1.0357 -1.2904  0.1165
16438TIP3    H270806   3.940   5.592   6.343 -3.3199 -1.4263 -0.0387
16439TIP3   OH270807   3.628   6.558   0.626 -0.1177  0.0448 -0.1861
16439TIP3    H170808   3.595   6.528   0.541 -1.3609  0.9845 -0.0620
16439TIP3    H270809   3.696   6.495   0.649  0.5748  0.0339 -2.0906
16440TIP3   OH270810   3.006   0.618   2.883  0.2389 -0.3251  0.0487
16440TIP3    H170811   3.088   0.660   2.907  1.0602 -0.7978 -1.7874
16440TIP3    H270812   2.984   0.654   2.797 -3.1081  2.0522  1.6963
16441TIP3   OH270813   3.913   5.894  16.380  0.0360 -0.2925 -1.0318
16441TIP3    H170814   3.861   5.833  16.432  0.8054 -1.6709 -1.8118
16441TIP3    H270815   3.983   5.922  16.439  1.1561 -2.1762 -1.3522
16442TIP3   OH270816   5.690   3.703  13.336 -0.0835 -0.0347 -0.4167
16442TIP3    H170817   5.748   3.684  13.410 -1.8073  1.2211  1.3553
16442TIP3    H270818   5.720   3.644  13.267  1.8556 -0.9978  1.1296
16443TIP3   OH270819   5.880   5.791  11.201 -0.0699 -0.1594 -0.4068
16443TIP3    H170820   5.800   5.819  11.246  0.8040  2.0076 -0.0589
16443TIP3    H270821   5.932   5.871  11.192  2.5932 -1.6562  0.4178
16444TIP3   OH270822   4.809   4.275   3.671  0.3055 -0.4159 -0.1688
16444TIP3    H170823   4.867   4.292   3.597  2.9535 -0.7155  1.7069
16444TIP3    H270824   4.781   4.361   3.701  2.2276 -0.0495  0.6833
16445TIP3   OH270825   6.061   1.835  11.340 -0.1458 -0.0565 -0.2996
16445TIP3    H170826   6.061   1.741  11.356  0.7319  0.2295  1.6620
16445TIP3    H270827   5.970   1.855  11.317 -1.0594 -1.0181  2.0656
16446TIP3   OH270828   4.593   3.758  11.451  0.1184  0.0749 -0.2244
16446TIP3    H170829   4.669   3.702  11.466  1.3596  1.5643 -0.6282
16446TIP3    H270830   4.562   3.735  11.364 -0.3132 -0.9790  0.1915
16447TIP3   OH270831   3.161   6.613  12.583  0.4446 -0.1174  0.1404
16447TIP3    H170832   3.181   6.520  12.571  0.9111 -0.1475  1.0451
16447TIP3    H270833   3.118   6.617  12.668  0.5770  0.5227  0.1793
16448TIP3   OH270834   2.265   1.743  11.479 -0.7543 -0.2285 -0.0383
16448TIP3    H170835   2.335   1.749  11.414 -2.4281  2.7278 -1.8340
16448TIP3    H270836   2.201   1.683  11.440 -0.3705 -0.9644  0.4360
16449TIP3   OH270837   1.113   3.669  14.226 -0.4418  0.0510 -1.0701
16449TIP3    H170838   1.120   3.742  14.288 -2.2190 -0.5240 -0.1053
16449TIP3    H270839   1.200   3.629  14.225  1.0031  2.9512 -2.6972
16450TIP3   OH270840   6.483   6.139  11.316  0.0318 -0.1864 -0.0689
16450TIP3    H170841   6.446   6.217  11.276  1.4634  1.0665  0.9417
16450TIP3    H270842   6.490   6.076  11.244 -0.6446  0.7883 -1.0164
16451TIP3   OH270843   2.215   0.103   2.701  0.3252 -0.5912  0.0867
16451TIP3    H170844   2.232   0.054   2.620  0.2839 -0.8546  0.2385
16451TIP3    H270845   2.301   0.110   2.742  0.3969 -0.2014 -0.1227
16452TIP3   OH270846   3.899   3.268   3.692 -0.0302  0.2052  0.6818
16452TIP3    H170847   3.809   3.256   3.723  0.2239 -1.2369  0.9284
16452TIP3    H270848   3.950   3.202   3.740  1.4484  1.9945  1.7105
16453TIP3   OH270849   4.304   2.041   4.779 -0.5896 -0.0433  0.0284
16453TIP3    H170850   4.344   2.113   4.829  0.6553 -0.0835 -0.8541
16453TIP3    H270851   4.379   1.994   4.741 -1.4661 -0.0461 -1.8125
16454TIP3   OH270852   3.236   2.228  11.181  0.0772 -0.3983 -0.1936
16454TIP3    H170853   3.283   2.169  11.123  0.1608  0.1843 -0.7239
16454TIP3    H270854   3.147   2.232  11.145 -0.5246 -1.8142  1.0323
16455TIP3   OH270855   5.510   1.194   6.062 -0.2182  0.0305  0.2002
16455TIP3    H170856   5.603   1.202   6.044 -0.6198  1.0937 -1.7236
16455TIP3    H270857   5.487   1.276   6.107 -0.5302  0.5987 -0.9580
16456TIP3   OH270858   1.987   1.791  15.585  0.3546 -0.0897  0.2792
16456TIP3    H170859   2.004   1.748  15.668  1.0612  1.2335  0.8464
16456TIP3    H270860   1.938   1.726  15.534 -0.8087 -0.6387  1.9955
16457TIP3   OH270861   5.990   3.934  11.106  0.8301  0.3370  0.0003
16457TIP3    H170862   5.912   3.886  11.133  0.7049  0.2654 -0.4952
16457TIP3    H270863   6.053   3.919  11.178 -0.0979  1.6223  1.1320
16458TIP3   OH270864   1.751   1.365   4.780 -0.2577  0.0708 -0.4002
16458TIP3    H170865   1.677   1.378   4.720  0.5936  0.0716 -1.4749
16458TIP3    H270866   1.799   1.447   4.776 -1.6247  1.1350  2.4003
16459TIP3   OH270867   2.532   4.056  12.640  0.9749  0.3115 -0.1395
16459TIP3    H170868   2.611   4.026  12.684  2.2599  0.6023 -2.1206
16459TIP3    H270869   2.515   4.143  12.677  0.4074 -0.5069  1.6678
16460TIP3   OH270870   0.672   5.218  15.300 -0.3627 -0.3616 -0.1156
16460TIP3    H170871   0.626   5.267  15.232 -0.9310  1.2844  1.3711
16460TIP3    H270872   0.605   5.201  15.366  0.8149  1.0538  1.5563
16461TIP3   OH270873   2.214   3.861  16.449 -0.0885  0.2349  0.1683
16461TIP3    H170874   2.151   3.816  16.504 -0.1816  0.8995  0.6152
16461TIP3    H270875   2.172   3.944  16.427  0.5316  0.5912  0.2958
16462TIP3   OH270876   0.338   0.363  12.288 -0.0637  0.1086 -0.0278
16462TIP3    H170877   0.281   0.331  12.359  0.6544 -0.9176  0.1041
16462TIP3    H270878   0.318   0.456  12.283 -0.5983  0.0826  1.1013
16463TIP3   OH270879   5.292   2.487   4.712 -0.2802 -0.7275 -0.4866
16463TIP3    H170880   5.280   2.497   4.617 -0.2444  0.2904 -0.3998
16463TIP3    H270881   5.254   2.402   4.732  2.1886 -2.2952 -1.8331
16464TIP3   OH270882   3.268   3.904   1.369  0.2083 -0.7282 -0.2586
16464TIP3    H170883   3.343   3.852   1.340  0.6837  0.8052 -1.9376
16464TIP3    H270884   3.306   3.981   1.411 -0.4478 -0.6360  0.1920
16465TIP3   OH270885   4.772   0.893  17.138 -0.4659  0.7292  0.2761
16465TIP3    H170886   4.834   0.832  17.098 -0.3709 -1.2330  3.1167
16465TIP3    H270887   4.690   0.878  17.091  0.2737  0.6814 -1.0701
16466TIP3   OH270888   3.870   1.526  15.056  0.3079 -0.2376 -0.3752
16466TIP3    H170889   3.894   1.466  14.985 -0.1052 -2.1123  0.9849
16466TIP3    H270890   3.932   1.598  15.048  2.5250 -2.0501 -0.5802
16467TIP3   OH270891   3.871   0.019  13.520  0.0252 -0.1204  0.1194
16467TIP3    H170892   3.778   0.015  13.543  0.1853  1.2439  1.1492
16467TIP3    H270893   3.889  -0.065  13.478 -1.2265 -1.1795  1.5879
16468TIP3   OH270894   2.511   4.058  17.023 -0.4243 -0.1870 -0.5309
16468TIP3    H170895   2.589   4.074  17.077 -1.2389  0.1337  0.5809
16468TIP3    H270896   2.545   4.017  16.944  0.7380 -1.4237  0.5656
16469TIP3   OH270897   4.263   0.173   1.706 -0.1388  0.2809  1.1559
16469TIP3    H170898   4.304   0.155   1.790 -0.5733  1.3560  1.6106
16469TIP3    H270899   4.307   0.114   1.645 -1.5053 -2.3457  2.5360
16470TIP3   OH270900   2.689   2.733  16.285  0.3361  0.5733  0.1922
16470TIP3    H170901   2.723   2.647  16.261  2.0536  0.6648  1.9803
16470TIP3    H270902   2.761   2.793  16.264 -2.2012  2.4109 -4.9900
16471TIP3   OH270903   6.573   4.067  15.457  0.2157  0.8256  0.8317
16471TIP3    H170904   6.610   4.081  15.370 -0.0595  1.8916  0.8694
16471TIP3    H270905   6.479   4.060  15.443  0.1470  1.2665  1.0726
16472TIP3   OH270906   0.904   3.575  14.049  0.0334  0.2085  0.3413
16472TIP3    H170907   0.958   3.625  14.110 -2.7909  1.4689  1.9770
16472TIP3    H270908   0.900   3.487  14.088 -0.6585  0.6481  1.3125
16473TIP3   OH270909   3.557   0.160   0.970 -0.1716  0.3960 -0.1871
16473TIP3    H170910   3.549   0.114   0.886 -1.1370  0.6022 -0.2188
16473TIP3    H270911   3.636   0.124   1.010 -0.4793 -0.7123 -0.5626
16474TIP3   OH270912   4.335   1.440  13.478  0.3046 -0.1074 -0.1609
16474TIP3    H170913   4.397   1.504  13.511  0.9721 -0.7365 -0.1603
16474TIP3    H270914   4.388   1.383  13.422 -0.4628 -0.0925 -0.9201
16475TIP3   OH270915   3.947   3.502   4.973 -0.3287 -0.6468 -0.0640
16475TIP3    H170916   3.946   3.430   5.037 -1.9258 -1.5156 -1.0039
16475TIP3    H270917   3.885   3.566   5.007  1.7430  0.8012  1.2330
16476TIP3   OH270918   6.030   4.405   4.859 -0.3734 -0.2874  0.1999
16476TIP3    H170919   5.955   4.354   4.828  0.0587 -0.9806  0.2988
16476TIP3    H270920   6.097   4.394   4.791 -1.0318  2.0033 -0.9439
16477TIP3   OH270921   3.715   4.742  13.404 -0.1402  0.0033  0.2612
16477TIP3    H170922   3.663   4.737  13.323 -2.5771 -1.1960  1.7821
16477TIP3    H270923   3.653   4.773  13.470  1.8544  1.2200  1.6523
16478TIP3   OH270924   2.008   0.419  15.648  0.3057  0.0146  0.4389
16478TIP3    H170925   1.958   0.493  15.611 -0.1827 -0.0215  1.0064
16478TIP3    H270926   2.022   0.361  15.574  2.7940  1.7564 -0.6050
16479TIP3   OH270927   5.708   6.097  16.237  0.0444 -0.0502  0.0452
16479TIP3    H170928   5.671   6.169  16.185  2.9892  1.0558 -0.7348
16479TIP3    H270929   5.674   6.112  16.325  0.0138  1.9504 -0.2483
16480TIP3   OH270930   5.300   6.611  12.390 -0.2947  0.4165  0.0766
16480TIP3    H170931   5.299   6.617  12.486 -0.9071 -0.8614  0.1694
16480TIP3    H270932   5.226   6.554  12.369  0.4680 -0.1767 -1.0882
16481TIP3   OH270933   2.394   4.368  13.668  0.5412  0.7432 -0.3800
16481TIP3    H170934   2.370   4.310  13.740  0.4045  0.2375 -0.8250
16481TIP3    H270935   2.343   4.447  13.682 -0.1973  0.2855 -0.4374
16482TIP3   OH270936   4.156   0.036  16.783  0.2419  0.4220 -0.2576
16482TIP3    H170937   4.212   0.075  16.850  2.0437 -1.2098 -0.7262
16482TIP3    H270938   4.072   0.024  16.826  0.6435  1.6216  0.9315
16483TIP3   OH270939   5.176   1.635   4.277 -0.2958  0.0336  0.5210
16483TIP3    H170940   5.092   1.592   4.259 -0.3600  0.1816  0.4601
16483TIP3    H270941   5.193   1.617   4.369 -0.3017 -0.1580  0.4850
16484TIP3   OH270942   6.581   2.464  16.296  0.6036  0.8107 -0.5941
16484TIP3    H170943   6.589   2.556  16.270  0.4023  0.8475 -0.5186
16484TIP3    H270944   6.648   2.420  16.244  0.7810  1.0167 -0.5425
16485TIP3   OH270945   2.746   6.534  13.322 -0.1791 -0.8149  0.0344
16485TIP3    H170946   2.724   6.620  13.357  0.3490 -0.7785  0.2925
16485TIP3    H270947   2.805   6.496  13.387  0.3741 -0.9651 -0.5438
16486TIP3   OH270948   2.529   3.508   2.418 -0.0798  0.2668 -0.2723
16486TIP3    H170949   2.527   3.533   2.326  0.9895  2.1136  0.1547
16486TIP3    H270950   2.603   3.448   2.426  1.2790  1.8932 -0.2517
16487TIP3   OH270951   6.349   3.309  11.327 -0.3311  0.1458 -0.8972
16487TIP3    H170952   6.288   3.334  11.257  0.5601 -0.7675 -2.0276
16487TIP3    H270953   6.312   3.228  11.363 -0.0576 -0.1336 -1.2428
16488TIP3   OH270954   5.549   1.791   2.576 -0.2401 -0.3281 -0.1085
16488TIP3    H170955   5.597   1.860   2.622  0.5009  0.6860 -2.2879
16488TIP3    H270956   5.469   1.834   2.545 -1.3037 -1.3045  1.1306
16489TIP3   OH270957   5.580   4.522   4.777  0.1846 -0.1711  0.1971
16489TIP3    H170958   5.667   4.514   4.818 -0.5828 -2.9113  1.5423
16489TIP3    H270959   5.590   4.479   4.692  0.8971  2.5015 -1.1907
16490TIP3   OH270960   0.335   1.341  15.602  0.1815 -0.0938 -0.0881
16490TIP3    H170961   0.400   1.276  15.628  0.8647  1.0093  1.0112
16490TIP3    H270962   0.369   1.377  15.520  0.7075  0.1388  0.2315
16491TIP3   OH270963   6.025   3.344  12.008 -0.2020  0.1125  0.4544
16491TIP3    H170964   6.070   3.324  11.926 -0.6315 -0.8640  0.4461
16491TIP3    H270965   6.029   3.439  12.015  0.1483  0.1785 -0.5250
16492TIP3   OH270966   0.381   0.511  11.222 -0.2033 -0.4380  0.3068
16492TIP3    H170967   0.386   0.606  11.223  2.5251 -0.4634 -1.4613
16492TIP3    H270968   0.471   0.481  11.234 -0.6621 -2.7449 -1.2818
16493TIP3   OH270969   1.782   4.606   0.865 -0.1439 -0.3274  0.3212
16493TIP3    H170970   1.865   4.617   0.820 -1.4465 -2.3317 -2.9376
16493TIP3    H270971   1.769   4.511   0.869 -1.6849 -0.1118  2.0137
16494TIP3   OH270972   4.478   2.153  11.610  0.0651 -0.0541  0.0206
16494TIP3    H170973   4.572   2.162  11.619  0.1472 -0.7742 -0.0204
16494TIP3    H270974   4.467   2.093  11.536 -0.2976 -2.8056  2.1435
16495TIP3   OH270975   1.567   2.253   1.172 -0.0059  0.2433  0.0264
16495TIP3    H170976   1.589   2.320   1.237  0.0742 -0.5477  0.8348
16495TIP3    H270977   1.528   2.182   1.223  0.9646 -0.8073 -0.6694
16496TIP3   OH270978   3.574   6.245   5.119 -0.3167  0.1829 -0.0128
16496TIP3    H170979   3.668   6.239   5.132  0.0493  1.3216 -1.7602
16496TIP3    H270980   3.558   6.200   5.036 -1.6540 -1.8520  1.2599
16497TIP3   OH270981   0.968   3.547   5.254  0.4725  0.2544  0.0118
16497TIP3    H170982   1.032   3.485   5.286  1.1563  1.8294  1.8815
16497TIP3    H270983   0.911   3.496   5.196  0.4067 -2.3120  2.1937
16498TIP3   OH270984   0.608   2.002   5.760  0.5769  0.3908  0.4273
16498TIP3    H170985   0.641   2.046   5.839 -1.1760  0.9385  0.9248
16498TIP3    H270986   0.513   2.013   5.766  0.3591 -0.2065 -1.4051
16499TIP3   OH270987   4.467   3.575  12.585 -0.2007 -0.3650  0.0398
16499TIP3    H170988   4.465   3.489  12.629 -2.0743  0.6711  2.1918
16499TIP3    H270989   4.479   3.638  12.656 -1.8313  1.3286 -1.0785
16500TIP3   OH270990   5.363   3.040   6.065  0.1129  0.3174 -0.7065
16500TIP3    H170991   5.386   2.979   6.136  0.8224  1.8187  0.4318
16500TIP3    H270992   5.442   3.094   6.055 -0.5653  1.1686 -1.5258
16501TIP3   OH270993   0.571   1.426   5.636 -0.1345  0.0976 -0.0742
16501TIP3    H170994   0.580   1.335   5.609  0.1007  0.5277 -1.5341
16501TIP3    H270995   0.490   1.428   5.688 -0.4395 -0.8314 -0.4906
16502TIP3   OH270996   3.404   0.802  16.928  0.3917  0.1151  0.7745
16502TIP3    H170997   3.345   0.760  16.991 -0.8899 -0.1695 -0.5623
16502TIP3    H270998   3.363   0.786  16.843  1.6499  1.1938 -0.0634
16503TIP3   OH270999   0.733   2.648  11.833  0.0257 -0.1519 -0.2573
16503TIP3    H171000   0.697   2.729  11.796  1.9432  0.3215 -1.2067
16503TIP3    H271001   0.657   2.603  11.872 -0.9830  2.4242  0.9735
16504TIP3   OH271002   4.762   4.425   4.261  0.6986 -0.0523  0.0122
16504TIP3    H171003   4.831   4.361   4.246  0.6230 -0.1808  0.2048
16504TIP3    H271004   4.682   4.383   4.229  0.9291  0.7034 -1.7060
16505TIP3   OH271005   2.704   4.280  13.010 -0.4358  0.1075 -0.1311
16505TIP3    H171006   2.732   4.211  13.071 -1.4789 -0.2075  0.0022
16505TIP3    H271007   2.769   4.349  13.022  1.5085 -1.3977 -1.3263
16506TIP3   OH271008   2.122   2.360  16.265 -0.1728  0.1943 -0.2216
16506TIP3    H171009   2.196   2.299  16.266  0.3986  0.6484 -3.6506
16506TIP3    H271010   2.050   2.310  16.227 -1.1740  0.2749  1.4897
16507TIP3   OH271011   5.940   4.898  12.348 -0.0988  0.0747 -0.1088
16507TIP3    H171012   5.924   4.944  12.266 -0.0551  1.0950  0.4321
16507TIP3    H271013   6.035   4.905  12.362  0.0723 -1.1336 -0.5509
16508TIP3   OH271014   1.919   0.323   0.329  0.2639 -0.2016  0.4125
16508TIP3    H171015   1.845   0.267   0.351 -0.2141  0.7123  1.2110
16508TIP3    H271016   1.885   0.383   0.262  0.6303 -0.5154 -0.0707
16509TIP3   OH271017   4.764   3.972   2.203 -0.1071 -0.2127  0.1042
16509TIP3    H171018   4.700   4.031   2.164  0.5319  0.4850  0.0800
16509TIP3    H271019   4.712   3.901   2.240 -0.8957  0.3922  0.1802
16510TIP3   OH271020   0.029   4.239   0.200  0.0251  0.0557 -0.1071
16510TIP3    H171021  -0.017   4.194   0.128  1.3205 -0.2005 -0.8031
16510TIP3    H271022   0.084   4.172   0.239 -0.6439  0.2038  1.1499
16511TIP3   OH271023   2.757   3.230   1.712 -0.1873 -0.2998 -0.0878
16511TIP3    H171024   2.816   3.171   1.665  0.0314 -0.1593  0.0088
16511TIP3    H271025   2.678   3.235   1.657 -0.1337 -0.5361 -0.1864
16512TIP3   OH271026   4.558   3.079   3.929 -0.2964  0.2548 -1.2689
16512TIP3    H171027   4.550   3.063   4.023 -2.2280  0.9816 -1.2640
16512TIP3    H271028   4.560   3.174   3.921  2.3841  0.2217 -1.8524
16513TIP3   OH271029   4.447   4.703   2.542  0.0744  0.0232  0.3978
16513TIP3    H171030   4.523   4.655   2.574  2.3540  2.0514 -1.5144
16513TIP3    H271031   4.428   4.663   2.457 -2.9564 -2.3114  2.0016
16514TIP3   OH271032   6.453   2.087   0.691  0.4309  0.4664  0.3902
16514TIP3    H171033   6.409   2.124   0.615 -1.2044 -0.9303  0.5896
16514TIP3    H271034   6.392   2.099   0.763  0.7206 -0.7651  0.8677
16515TIP3   OH271035   1.991   4.438   2.866 -0.5064 -0.1177  0.2400
16515TIP3    H171036   2.051   4.487   2.923 -0.8191 -2.0034  2.3026
16515TIP3    H271037   1.915   4.421   2.920 -0.3449 -3.0109 -0.3128
16516TIP3   OH271038   4.068   1.318   2.006 -0.0530 -0.4892 -0.2323
16516TIP3    H171039   4.064   1.263   2.084 -0.3736  1.5317  1.2814
16516TIP3    H271040   3.978   1.350   1.995  0.4329  1.1124  0.0738
16517TIP3   OH271041   6.061   2.661  12.849  0.1763  0.1367 -0.6560
16517TIP3    H171042   6.084   2.575  12.884 -3.6453 -0.4189  0.9764
16517TIP3    H271043   6.058   2.649  12.754  0.7327 -1.1885 -0.5238
16518TIP3   OH271044   4.734   3.615   5.825  0.5500  0.1638 -0.1695
16518TIP3    H171045   4.752   3.527   5.859  0.8975 -0.1097 -1.0293
16518TIP3    H271046   4.649   3.607   5.782 -0.6720  0.9037  1.9474
16519TIP3   OH271047   4.623   3.860   5.917 -0.2763  0.6494  0.2545
16519TIP3    H171048   4.592   3.832   6.003 -1.7115 -0.1683 -0.4885
16519TIP3    H271049   4.669   3.783   5.882 -0.8650  0.5223 -0.2449
16520TIP3   OH271050   3.921   4.558   1.437 -0.2774  0.0641 -0.1455
16520TIP3    H171051   3.831   4.541   1.467  0.1170 -2.2330 -0.1324
16520TIP3    H271052   3.920   4.535   1.344  0.5860 -1.2590  0.1504
16521TIP3   OH271053   4.981   6.414  11.439 -0.6335  0.0882 -0.3770
16521TIP3    H171054   4.894   6.420  11.399 -0.5024  0.2723 -0.6379
16521TIP3    H271055   5.034   6.478  11.391 -0.9653  1.7701  1.3682
16522TIP3   OH271056   3.562   4.532   3.759  0.3265 -1.0262 -0.1017
16522TIP3    H171057   3.595   4.622   3.765 -0.8060 -0.5722 -0.4791
16522TIP3    H271058   3.498   4.534   3.688  2.3036 -2.7926 -2.0865
16523TIP3   OH271059   3.925   3.228  14.417  0.0960  0.0684 -0.3286
16523TIP3    H171060   3.967   3.214  14.332 -1.8174 -1.0604 -1.1368
16523TIP3    H271061   3.992   3.274  14.469  1.3531  0.6784 -2.3703
16524TIP3   OH271062   1.570   6.255   1.247  0.4842  0.2170 -0.4773
16524TIP3    H171063   1.622   6.316   1.300 -0.1362  0.1537  0.2409
16524TIP3    H271064   1.631   6.219   1.184  1.4705 -0.3253  0.7385
16525TIP3   OH271065   4.617   0.785   4.783 -0.0130 -0.3211 -0.0714
16525TIP3    H171066   4.614   0.804   4.690  0.8622  0.0558 -0.0354
16525TIP3    H271067   4.708   0.759   4.799 -0.1499 -0.3720  0.6793
16526TIP3   OH271068   4.508   1.543   5.510 -0.2709 -0.7251  1.3448
16526TIP3    H171069   4.537   1.578   5.594 -1.9227 -1.8075  2.4138
16526TIP3    H271070   4.589   1.532   5.459  0.6963  0.4381  2.5763
16527TIP3   OH271071   3.645   0.018   4.884  0.0908  0.1070 -0.4811
16527TIP3    H171072   3.567  -0.028   4.853  0.2272  1.0432 -2.3457
16527TIP3    H271073   3.716  -0.045   4.870  0.3525  0.9573 -3.5038
16528TIP3   OH271074   3.723   4.072   6.689  0.0477  0.1533  0.0071
16528TIP3    H171075   3.707   4.039   6.601 -3.6904  0.7083  0.3107
16528TIP3    H271076   3.730   3.994   6.744  0.4493 -0.1706 -0.5037
16529TIP3   OH271077   6.565   6.108  15.665 -0.4706  0.3274  0.4019
16529TIP3    H171078   6.611   6.063  15.594  0.2720 -1.4739  1.9330
16529TIP3    H271079   6.494   6.155  15.621 -1.0536 -2.0398 -1.4169
16530TIP3   OH271080   1.412   6.794   4.262 -0.1023 -0.1159  0.6113
16530TIP3    H171081   1.425   6.699   4.267  0.6029 -0.3506 -2.9292
16530TIP3    H271082   1.497   6.832   4.282 -0.3116 -0.2110  1.7382
16531TIP3   OH271083   5.504   2.958   5.613  0.7205 -0.1206 -0.4584
16531TIP3    H171084   5.561   3.018   5.660  0.6682 -0.0450 -0.4909
16531TIP3    H271085   5.418   3.000   5.614  0.8283  0.1228 -1.0554
16532TIP3   OH271086   2.621   3.781   4.673  0.0715 -0.2022  0.6376
16532TIP3    H171087   2.531   3.799   4.699  0.6582  1.7252  1.4800
16532TIP3    H271088   2.666   3.757   4.754  0.6699  0.4103  0.4992
16533TIP3   OH271089   1.883   3.672   4.332  0.2103 -0.0052 -0.2152
16533TIP3    H171090   1.889   3.754   4.281 -0.8569 -0.2737 -0.8052
16533TIP3    H271091   1.969   3.633   4.324  0.7312  1.0409  0.0444
16534TIP3   OH271092   4.621   0.150  11.441  0.4281  0.0646 -0.4958
16534TIP3    H171093   4.710   0.171  11.413  0.3637 -1.3221 -1.8642
16534TIP3    H271094   4.608   0.060  11.412 -1.1635 -0.0063  0.3604
16535TIP3   OH271095   1.566   0.633  15.884  0.7728 -0.0779 -0.2208
16535TIP3    H171096   1.543   0.657  15.795  1.6318 -0.4907 -0.5619
16535TIP3    H271097   1.530   0.544  15.895  0.1293  0.2107  0.0607
16536TIP3   OH271098   2.682   5.186  16.480  0.6440 -0.0962 -0.1465
16536TIP3    H171099   2.757   5.126  16.478  1.3811  0.8138 -0.8319
16536TIP3    H271100   2.708   5.259  16.423 -1.0858 -0.1296 -1.0427
16537TIP3   OH271101   5.565   5.041  15.496 -0.9814 -0.2170 -0.0924
16537TIP3    H171102   5.565   5.128  15.535 -1.0640  0.3027 -1.2238
16537TIP3    H271103   5.579   5.056  15.402  1.3034 -1.5480 -0.0337
16538TIP3   OH271104   3.191   5.806  11.983 -0.5718  0.7457  0.2352
16538TIP3    H171105   3.143   5.886  12.003 -1.7044  0.1413  0.0062
16538TIP3    H271106   3.144   5.737  12.028  1.5803  0.4118  2.1660
16539TIP3   OH271107   5.305   3.609  17.047 -0.4030  0.3512 -0.2194
16539TIP3    H171108   5.348   3.526  17.028  0.2409  0.0693  2.1179
16539TIP3    H271109   5.358   3.674  17.001 -1.0610 -0.4952 -2.2837
16540TIP3   OH271110   1.144   2.429  12.605  0.7775 -0.3563  0.3475
16540TIP3    H171111   1.059   2.464  12.632  0.6044 -0.6574  0.1961
16540TIP3    H271112   1.125   2.341  12.574  0.8825  0.1350 -1.1909
16541TIP3   OH271113   2.245   2.142  14.166  0.1680 -0.4919  0.0073
16541TIP3    H171114   2.239   2.092  14.084  0.6867 -1.3722  0.4912
16541TIP3    H271115   2.339   2.148  14.183  0.1535  1.2612 -0.3936
16542TIP3   OH271116   1.547   4.430  13.827 -0.6290 -0.1421 -0.5860
16542TIP3    H171117   1.592   4.346  13.820 -0.1017  0.1676 -0.9140
16542TIP3    H271118   1.464   4.408  13.870  0.0245 -0.6427  0.4689
16543TIP3   OH271119   6.799   3.906   4.776  0.0329 -0.1906 -0.1254
16543TIP3    H171120   6.811   3.815   4.748  0.7361 -0.4161  0.8710
16543TIP3    H271121   6.885   3.932   4.809 -0.6881  0.1462  1.5558
16544TIP3   OH271122   2.974   0.314   2.430  0.9770  0.4068  0.2587
16544TIP3    H171123   2.987   0.409   2.423  1.3595  0.2628 -1.3243
16544TIP3    H271124   3.044   0.276   2.378  1.1439 -0.7853  1.3133
16545TIP3   OH271125   3.842   5.391  15.609  0.2723 -0.1656 -0.6915
16545TIP3    H171126   3.860   5.417  15.519  2.3096  1.2822  0.0579
16545TIP3    H271127   3.912   5.431  15.660 -0.8769 -0.8542  1.5653
16546TIP3   OH271128   3.735   2.138  13.035 -0.0114  0.2762 -0.0439
16546TIP3    H171129   3.746   2.217  12.983 -0.1977 -0.9072 -1.9904
16546TIP3    H271130   3.815   2.131  13.086  0.1769  1.4797 -0.1546
16547TIP3   OH271131   6.418   2.956   2.765  0.2060  0.4704 -0.6844
16547TIP3    H171132   6.438   2.894   2.835  1.0746 -0.1592 -1.4560
16547TIP3    H271133   6.392   3.036   2.810 -3.1095 -1.0361  0.3629
16548TIP3   OH271134   0.437   0.178  14.052  0.0519  0.1481 -0.3511
16548TIP3    H171135   0.387   0.208  14.127  0.3341  1.3154 -0.6121
16548TIP3    H271136   0.372   0.168  13.982 -0.4379 -2.2165  0.3420
16549TIP3   OH271137   4.486   1.468   0.085  0.0067  0.0922 -0.2643
16549TIP3    H171138   4.410   1.492   0.138 -0.0505  0.6379 -0.5889
16549TIP3    H271139   4.529   1.551   0.064  1.4997 -0.2947  1.0887
16550TIP3   OH271140   4.003   2.049  16.116  0.2247 -1.0091  0.0999
16550TIP3    H171141   3.995   2.109  16.041 -1.4912 -1.3365 -0.0241
16550TIP3    H271142   4.084   2.075  16.159 -0.9256  2.0935  0.6338
16551TIP3   OH271143   1.726   5.409  11.594 -0.2021  0.1236 -0.0301
16551TIP3    H171144   1.758   5.483  11.646  0.3924 -1.3620  1.8035
16551TIP3    H271145   1.804   5.363  11.566 -0.6070 -1.2779  1.0733
16552TIP3   OH271146   0.587   3.272  16.517 -0.1048 -0.1039 -0.1300
16552TIP3    H171147   0.617   3.339  16.578 -1.2825 -0.6789  1.1388
16552TIP3    H271148   0.627   3.191  16.548 -3.2807 -1.0284  2.0529
16553TIP3   OH271149   0.808   1.865   5.660  0.1721 -0.2785  0.3457
16553TIP3    H171150   0.891   1.910   5.674 -0.4448  0.4037  2.1221
16553TIP3    H271151   0.743   1.923   5.699 -1.0494 -1.1828 -0.2796
16554TIP3   OH271152   3.324   5.885  16.224  0.3106  0.3341 -0.2234
16554TIP3    H171153   3.339   5.933  16.143  1.3142  0.8882  0.2699
16554TIP3    H271154   3.401   5.904  16.278 -0.9120  1.0127  1.3698
16555TIP3   OH271155   0.458   2.188  16.426 -0.6161 -0.5509  0.0945
16555TIP3    H171156   0.550   2.214  16.431 -0.7210 -0.0031 -0.6497
16555TIP3    H271157   0.459   2.109  16.371 -0.5969 -0.4784 -0.0096
16556TIP3   OH271158   6.043   3.119  12.628  0.0232 -0.1002 -0.1575
16556TIP3    H171159   6.028   3.117  12.722  1.4790  1.8949  0.1685
16556TIP3    H271160   5.956   3.135  12.590 -0.1129  2.6425  1.1142
16557TIP3   OH271161   6.391   1.735   6.338 -0.4594  0.2003  0.4128
16557TIP3    H171162   6.440   1.769   6.263 -1.0910  1.9741  0.7735
16557TIP3    H271163   6.430   1.777   6.414 -1.5859  0.5522  0.8234
16558TIP3   OH271164   5.493   5.648  11.929 -0.0221 -0.2172 -0.5730
16558TIP3    H171165   5.437   5.685  11.861  0.0273 -0.4028 -0.7155
16558TIP3    H271166   5.582   5.674  11.904 -0.1517  1.2024  0.3610
16559TIP3   OH271167   3.089   5.229   2.721  0.0500 -0.3034  0.2463
16559TIP3    H171168   3.161   5.219   2.659  0.7134 -0.1276  0.9598
16559TIP3    H271169   3.010   5.219   2.669  0.5284  1.7508 -1.0172
16560TIP3   OH271170   6.035   4.321   2.306  0.2774 -0.3722 -0.1645
16560TIP3    H171171   6.096   4.395   2.302  2.4609 -2.0719 -0.0012
16560TIP3    H271172   5.969   4.348   2.371  2.3655  0.4939  1.7197
16561TIP3   OH271173   6.604   2.189   2.246 -0.4629  0.1920 -0.0201
16561TIP3    H171174   6.638   2.208   2.334 -1.7078  3.1122 -0.0837
16561TIP3    H271175   6.540   2.119   2.260 -0.0415  0.0287  1.2376
16562TIP3   OH271176   1.028   0.080  13.215  0.2721 -0.1687 -0.4638
16562TIP3    H171177   1.113   0.043  13.239  0.5097 -0.8955 -2.2643
16562TIP3    H271178   0.970   0.005  13.206  0.5155 -0.1302 -3.2143
16563TIP3   OH271179   0.561   3.189   4.071 -0.6573 -0.0085  0.3509
16563TIP3    H171180   0.553   3.266   4.127  3.0024  0.9761 -0.2405
16563TIP3    H271181   0.542   3.221   3.983  1.1810  0.4043  0.0583
16564TIP3   OH271182   3.755   3.899   1.577 -0.1441  0.6677  0.0805
16564TIP3    H171183   3.702   3.924   1.501 -0.2772  1.5202  0.4505
16564TIP3    H271184   3.834   3.952   1.569 -0.9305  2.1312  1.5113
16565TIP3   OH271185   2.228   5.688   2.888 -0.0595 -0.2321  0.1896
16565TIP3    H171186   2.209   5.637   2.810 -0.8184  0.0334  0.1992
16565TIP3    H271187   2.271   5.626   2.948 -1.2750 -0.9549  0.3315
16566TIP3   OH271188   5.132   2.873  15.266 -0.0865 -0.1962  0.1274
16566TIP3    H171189   5.217   2.892  15.227 -0.2026  0.4193  0.1691
16566TIP3    H271190   5.092   2.959  15.280 -1.7159 -0.5164 -2.1023
16567TIP3   OH271191   0.441   4.819  14.190 -0.1160  0.2915 -0.6387
16567TIP3    H171192   0.423   4.883  14.122  0.0182  0.1059 -0.8524
16567TIP3    H271193   0.367   4.758  14.187 -1.6913  1.9514  1.4203
16568TIP3   OH271194   0.340   1.165   4.875 -0.0866 -0.4683  0.4997
16568TIP3    H171195   0.397   1.111   4.930 -0.6682  0.5264  2.1539
16568TIP3    H271196   0.400   1.216   4.820  0.8902  2.0706  3.5973
16569TIP3   OH271197   3.322   0.640  15.152 -0.3997 -0.4714  1.0281
16569TIP3    H171198   3.344   0.554  15.187 -0.9870 -0.6382  1.0021
16569TIP3    H271199   3.231   0.632  15.123 -0.0654 -0.2192 -0.1514
16570TIP3   OH271200   6.759   4.911  11.699  0.2012 -0.5725  0.1801
16570TIP3    H171201   6.845   4.914  11.657 -0.3610  0.7908 -0.9460
16570TIP3    H271202   6.717   4.833  11.664  1.0820 -1.4356  0.9908
16571TIP3   OH271203   1.506   0.117   1.004  0.1961  0.0057 -0.0425
16571TIP3    H171204   1.561   0.128   1.082  2.2901 -0.5811 -1.3359
16571TIP3    H271205   1.496   0.206   0.969  0.1063  0.1513  0.3500
16572TIP3   OH271206   6.335   5.744  13.180 -0.2374  0.6291  0.3552
16572TIP3    H171207   6.319   5.811  13.246  1.8900  1.6366 -0.0572
16572TIP3    H271208   6.312   5.662  13.223  0.2369  1.3373  2.0394
16573TIP3   OH271209   2.489   1.164  11.380 -0.0223 -0.0121 -0.3099
16573TIP3    H171210   2.578   1.138  11.405 -1.1370 -2.1834  1.7545
16573TIP3    H271211   2.446   1.083  11.353 -0.7850  1.3322 -3.6755
16574TIP3   OH271212   0.939   2.459   1.398  0.0059 -0.0926 -0.0753
16574TIP3    H171213   1.023   2.456   1.444  1.0188 -0.4150 -1.8237
16574TIP3    H271214   0.912   2.368   1.392 -0.3888 -0.0033  0.3361
16575TIP3   OH271215   3.398   4.169   0.383 -0.3407  0.4404  0.4764
16575TIP3    H171216   3.420   4.076   0.371  2.1093  0.9106  0.9399
16575TIP3    H271217   3.437   4.213   0.307 -1.1947  1.1697  0.4410
16576TIP3   OH271218   6.441   3.325   2.707 -0.4333  0.4335  0.0489
16576TIP3    H171219   6.517   3.383   2.701 -0.2570  0.1084 -1.1433
16576TIP3    H271220   6.429   3.311   2.801  1.8826 -0.6830  0.2444
16577TIP3   OH271221   3.760   5.692   1.478  0.0526 -0.4235  0.0758
16577TIP3    H171222   3.756   5.776   1.524 -2.5766 -1.1168  1.3273
16577TIP3    H271223   3.703   5.703   1.402 -0.8642 -1.2386  0.6231
16578TIP3   OH271224   6.050   0.540  16.139 -0.3226 -0.0792  0.2648
16578TIP3    H171225   6.133   0.496  16.118 -0.6244 -0.6006  0.1328
16578TIP3    H271226   6.039   0.526  16.233 -0.4148 -0.2947  0.2251
16579TIP3   OH271227   0.806   3.451   1.465  0.5744  0.1603 -0.5293
16579TIP3    H171228   0.756   3.375   1.437 -0.5135  0.5743  0.2232
16579TIP3    H271229   0.842   3.488   1.385 -2.5566  1.4141 -1.5201
16580TIP3   OH271230   3.437   1.825  15.898 -0.0156  0.9200  0.3367
16580TIP3    H171231   3.441   1.731  15.884 -2.6356  0.1603  3.4375
16580TIP3    H271232   3.380   1.858  15.828 -0.5632 -0.1183  0.2825
16581TIP3   OH271233   3.576   6.182   6.565  0.2303  0.3737  0.2178
16581TIP3    H171234   3.650   6.126   6.590  0.1068  0.3903  0.6416
16581TIP3    H271235   3.602   6.221   6.482  1.0221  0.9526  0.7206
16582TIP3   OH271236   0.250   4.788  12.874 -0.3988  0.6895 -0.9027
16582TIP3    H171237   0.198   4.800  12.795 -0.0772  1.5543 -0.9888
16582TIP3    H271238   0.266   4.876  12.907 -0.2350  0.3625 -0.0610
16583TIP3   OH271239   1.321   0.499   1.546  0.0078 -0.0086  0.1149
16583TIP3    H171240   1.344   0.557   1.474  1.7473  0.3212  0.8898
16583TIP3    H271241   1.400   0.449   1.563 -0.8432 -1.1693  0.8149
16584TIP3   OH271242   1.683   3.391   1.501 -0.2730 -0.2383  0.1456
16584TIP3    H171243   1.676   3.447   1.423 -0.8225 -0.1821  0.2342
16584TIP3    H271244   1.593   3.368   1.522 -0.4282  1.8878  2.3299
16585TIP3   OH271245   1.473   2.234   4.533 -0.1701  0.4126 -0.3427
16585TIP3    H171246   1.501   2.200   4.448 -1.3811 -1.0260 -0.1913
16585TIP3    H271247   1.552   2.229   4.587 -0.2815 -2.3147 -0.3044
16586TIP3   OH271248   4.716   6.309  14.712  0.3621 -0.4791 -0.7108
16586TIP3    H171249   4.755   6.224  14.732 -1.1210 -0.4400  3.1852
16586TIP3    H271250   4.765   6.371  14.766 -0.8658  0.5567 -0.7417
16587TIP3   OH271251   5.806   5.541  15.571 -0.2423 -0.3333  0.0088
16587TIP3    H171252   5.741   5.500  15.514 -1.1928 -1.2360  1.6810
16587TIP3    H271253   5.823   5.476  15.639  3.2180 -0.5685 -0.8801
16588TIP3   OH271254   0.722   6.238  14.193  0.6479  0.1436  0.2683
16588TIP3    H171255   0.661   6.247  14.120  0.2873  0.4246  0.6002
16588TIP3    H271256   0.795   6.187  14.157  1.0604  1.3461 -0.6491
16589TIP3   OH271257   0.161   2.079   0.229  0.0686 -0.1198 -0.2138
16589TIP3    H171258   0.067   2.085   0.214  0.0611 -0.0100 -0.1271
16589TIP3    H271259   0.173   2.109   0.319 -0.0217 -1.8384  0.4110
16590TIP3   OH271260   4.744   2.604   0.056 -0.2775  0.6294  0.2210
16590TIP3    H171261   4.671   2.589   0.115 -0.3011 -0.3405 -0.0416
16590TIP3    H271262   4.817   2.628   0.114  0.5479 -3.1722  1.0734
16591TIP3   OH271263   1.538   6.831  15.068  0.7590 -0.0567 -0.2238
16591TIP3    H171264   1.511   6.807  14.980 -0.2358 -0.3115  0.1482
16591TIP3    H271265   1.630   6.859  15.058 -0.0277  2.2801 -1.7772
16592TIP3   OH271266   6.015   1.067  14.785 -0.5355 -0.1499  0.4305
16592TIP3    H171267   6.090   1.066  14.725  0.4711 -0.0908  1.6583
16592TIP3    H271268   6.031   0.995  14.846  0.0631  1.6278  2.4953
16593TIP3   OH271269   2.668   0.143   4.290 -0.2187  0.2463  0.7228
16593TIP3    H171270   2.616   0.137   4.370  0.9738 -0.6640  1.4714
16593TIP3    H271271   2.758   0.155   4.321  0.0558  1.6406 -0.5222
16594TIP3   OH271272   2.614   2.196   4.281 -0.8098  0.0026  0.4497
16594TIP3    H171273   2.594   2.204   4.374  0.9814  3.4354  0.7042
16594TIP3    H271274   2.530   2.209   4.237 -1.3814  0.1886  1.5658
16595TIP3   OH271275   6.497   6.199  13.820 -0.0729  0.1046 -0.2386
16595TIP3    H171276   6.468   6.193  13.729  0.0184 -0.2663 -0.2434
16595TIP3    H271277   6.591   6.182  13.817 -0.2502 -1.0425  0.0500
16596TIP3   OH271278   2.774   6.655  16.387  0.5028 -0.1376 -0.1989
16596TIP3    H171279   2.732   6.738  16.365  2.1461  1.1663  1.2848
16596TIP3    H271280   2.866   6.667  16.361  0.5336 -2.0186 -1.1635
16597TIP3   OH271281   0.133   5.820   4.312 -0.9372 -0.2217 -0.4583
16597TIP3    H171282   0.207   5.819   4.374 -1.0986  1.9425 -0.1248
16597TIP3    H271283   0.154   5.752   4.248  0.2348 -1.1598  0.8558
16598TIP3   OH271284   3.294   5.752   1.529  0.2457 -0.4677  0.0567
16598TIP3    H171285   3.370   5.787   1.483 -0.2330 -0.2304 -0.5788
16598TIP3    H271286   3.219   5.776   1.473 -0.3217 -0.4361  0.8159
16599TIP3   OH271287   6.222   0.791   1.418  0.0885  0.1605 -0.3131
16599TIP3    H171288   6.307   0.784   1.461  0.0089 -1.3230 -0.3287
16599TIP3    H271289   6.225   0.874   1.370  1.4571  0.2044 -0.1777
16600TIP3   OH271290   0.926   2.956  15.646  0.0263  0.3511 -0.2586
16600TIP3    H171291   1.008   2.987  15.685 -0.7897  1.3668  0.7347
16600TIP3    H271292   0.897   2.886  15.704 -0.7621  1.2969  0.5287
16601TIP3   OH271293   5.459   1.958   0.271 -0.1546 -0.0405  0.1190
16601TIP3    H171294   5.545   1.931   0.239 -1.6572 -1.8800 -2.8212
16601TIP3    H271295   5.420   1.879   0.307 -1.4781  0.1351 -0.8395
16602TIP3   OH271296   5.193   5.532  11.698 -0.0296  0.1348 -0.1784
16602TIP3    H171297   5.125   5.466  11.685 -0.5356  0.5586  0.2924
16602TIP3    H271298   5.273   5.491  11.665  0.1071 -1.5373  2.0256
16603TIP3   OH271299   1.291   3.848  16.888  0.3971 -0.5363  0.4229
16603TIP3    H171300   1.384   3.851  16.913  0.7678 -2.7802 -0.4840
16603TIP3    H271301   1.292   3.842  16.792 -0.6777 -0.9709  0.4252
16604TIP3   OH271302   4.403   4.369   1.967 -0.1684  0.5025 -0.3036
16604TIP3    H171303   4.372   4.448   2.010  0.9755  0.2604  1.0294
16604TIP3    H271304   4.426   4.397   1.879 -1.3558  1.2774 -0.3975
16605TIP3   OH271305   4.907   0.874  12.919 -0.2001  0.4599 -0.2040
16605TIP3    H171306   4.954   0.790  12.914 -0.5982  0.0105  2.1784
16605TIP3    H271307   4.835   0.865  12.857  2.1394  0.7632 -3.1939
16606TIP3   OH271308   1.229   1.244  16.276  0.0781  0.0624 -0.7983
16606TIP3    H171309   1.233   1.173  16.340 -0.7021  0.5006 -0.2552
16606TIP3    H271310   1.296   1.220  16.211  0.0720 -0.9852 -0.4499
16607TIP3   OH271311   0.736   2.271   3.269 -0.0983 -0.1535 -0.4478
16607TIP3    H171312   0.729   2.181   3.239 -0.2009 -0.2762 -0.0677
16607TIP3    H271313   0.735   2.324   3.189  0.4638 -0.5179 -0.7003
16608TIP3   OH271314   2.333   3.421  16.126 -0.0555  0.2784  0.6129
16608TIP3    H171315   2.320   3.475  16.204 -0.7281  2.0563 -0.6734
16608TIP3    H271316   2.398   3.469  16.075  0.0234 -0.6208 -0.1520
16609TIP3   OH271317   5.619   3.117   6.134 -0.3476  0.1785 -0.3172
16609TIP3    H171318   5.652   3.203   6.158  1.5083  0.7304 -4.0287
16609TIP3    H271319   5.660   3.057   6.197  0.0394  1.7794  1.0327
16610TIP3   OH271320   0.930   5.869  11.203  0.1505  0.2849 -0.7572
16610TIP3    H171321   0.839   5.895  11.219  0.6512  2.5435 -1.2369
16610TIP3    H271322   0.925   5.804  11.133 -1.0796  0.5315 -0.9124
16611TIP3   OH271323   4.804   2.401  16.557  0.0098  0.6633  0.5007
16611TIP3    H171324   4.749   2.392  16.635 -1.8920  0.1024 -0.8172
16611TIP3    H271325   4.852   2.319  16.551  0.1881  0.7246  1.1025
16612TIP3   OH271326   4.868   4.693   2.445  0.1349 -0.2587  0.3489
16612TIP3    H171327   4.836   4.780   2.423 -0.1127 -0.2559  0.7140
16612TIP3    H271328   4.957   4.708   2.477 -0.3792  0.0278  1.7032
16613TIP3   OH271329   2.315   0.814   1.534 -0.6973  0.4683 -0.4912
16613TIP3    H171330   2.261   0.876   1.583  0.2332 -0.1710  1.4837
16613TIP3    H271331   2.315   0.735   1.589  2.5660  0.5884 -0.1117
16614TIP3   OH271332   3.174   0.016  15.366 -0.0762 -0.9077  1.1298
16614TIP3    H171333   3.084   0.029  15.336 -0.0372  0.1410  1.4210
16614TIP3    H271334   3.165  -0.019  15.454 -0.1850 -2.7552  0.4278
16615TIP3   OH271335   2.157   5.742  13.187  0.1353  0.0988 -0.0399
16615TIP3    H171336   2.220   5.780  13.126 -0.0674  0.0769 -0.2621
16615TIP3    H271337   2.209   5.681  13.239 -0.0316 -1.2805 -1.4225
16616TIP3   OH271338   5.387   1.035  11.259 -0.1371 -0.2158  0.4335
16616TIP3    H171339   5.407   1.098  11.190  0.1166  0.6781  1.3017
16616TIP3    H271340   5.297   1.008  11.242 -0.2283  0.3344  0.0273
16617TIP3   OH271341   4.282   0.094  17.016  0.6176  0.7414 -0.2519
16617TIP3    H171342   4.230   0.147  17.077  0.6496  2.3040 -1.5241
16617TIP3    H271343   4.369   0.090  17.056  0.3258  0.6739  0.4017
16618TIP3   OH271344   3.811   3.284  12.278 -0.0945 -0.0799 -0.6831
16618TIP3    H171345   3.886   3.341  12.261 -0.1210  0.2256  0.2104
16618TIP3    H271346   3.742   3.344  12.307  0.1346 -0.6385  1.1127
16619TIP3   OH271347   1.879   0.928  16.964  0.6008 -0.0556 -0.5548
16619TIP3    H171348   1.796   0.936  16.917 -0.2403  2.3664  1.1316
16619TIP3    H271349   1.855   0.893  17.050  0.9186  2.6392  0.7175
16620TIP3   OH271350   3.629   2.521   1.854 -0.3432  0.3914  0.2276
16620TIP3    H171351   3.654   2.491   1.767 -0.3212 -0.5548  0.5554
16620TIP3    H271352   3.537   2.546   1.844 -0.0570  1.2817 -0.3092
16621TIP3   OH271353   2.961   0.060   1.607 -0.2126  0.3249 -0.0073
16621TIP3    H171354   2.985  -0.026   1.642 -1.0930 -0.3556 -1.0339
16621TIP3    H271355   3.040   0.090   1.562 -0.6853 -1.1634 -1.9433
16622TIP3   OH271356   1.178   3.039   0.615 -0.5069 -0.1868  0.0680
16622TIP3    H171357   1.219   2.977   0.555 -0.5387  0.5002 -0.6800
16622TIP3    H271358   1.125   2.985   0.673  0.6091 -0.9926  0.3727
16623TIP3   OH271359   5.532   0.773   4.810 -0.6034  0.9163 -0.1688
16623TIP3    H171360   5.456   0.777   4.752  0.1900  0.2652 -1.2986
16623TIP3    H271361   5.523   0.850   4.866 -0.8612  2.1782 -1.8704
16624TIP3   OH271362   0.111   3.694  10.994  0.3433 -0.9650  0.1814
16624TIP3    H171363   0.021   3.663  10.982  1.1544 -2.5563 -2.8390
16624TIP3    H271364   0.106   3.788  10.982 -0.9535 -1.0170  0.1785
16625TIP3   OH271365   0.469   2.838   5.594  0.0760  0.0123 -0.1711
16625TIP3    H171366   0.467   2.800   5.682 -0.4507 -1.8598 -0.9485
16625TIP3    H271367   0.561   2.863   5.581 -0.0013  1.1395  1.2136
16626TIP3   OH271368   0.630   5.735  12.555 -0.7847  0.2952  0.2505
16626TIP3    H171369   0.637   5.708  12.646 -1.1722  0.2339  0.2612
16626TIP3    H271370   0.667   5.661  12.506 -0.0467  0.5643  0.3811
16627TIP3   OH271371   4.870   1.367   2.767  0.2323 -0.0431 -1.1094
16627TIP3    H171372   4.833   1.401   2.849  0.5158 -0.0493 -0.9776
16627TIP3    H271373   4.804   1.387   2.701  0.7823  1.5697 -1.2026
16628TIP3   OH271374   5.794   6.749  15.819 -0.5146 -0.3377 -0.0903
16628TIP3    H171375   5.713   6.799  15.822  0.4781  1.3058  0.3220
16628TIP3    H271376   5.810   6.724  15.910  0.5024  1.1463  0.1613
16629TIP3   OH271377   5.097   2.584  12.959 -0.3333  0.2481 -0.2963
16629TIP3    H171378   5.181   2.626  12.939  0.1477 -0.0623  0.9745
16629TIP3    H271379   5.112   2.492  12.939 -0.6449  0.3167 -0.8597
16630TIP3   OH271380   2.464   6.311  17.078 -0.0126  0.3166 -0.1241
16630TIP3    H171381   2.528   6.245  17.051 -0.1613  0.7527 -1.6421
16630TIP3    H271382   2.515   6.390  17.093 -0.2174  0.8885 -2.1207
16631TIP3   OH271383   6.247   2.618   1.184 -0.1738 -0.5332 -0.4799
16631TIP3    H171384   6.181   2.678   1.218  0.1528  1.5823 -3.2580
16631TIP3    H271385   6.314   2.615   1.253 -1.0658  0.8356  0.4943
16632TIP3   OH271386   3.435   6.686   1.100  0.6655  0.1860 -0.3623
16632TIP3    H171387   3.371   6.729   1.043  1.2541  4.0286  1.5554
16632TIP3    H271388   3.498   6.647   1.039 -1.1372 -0.0001 -2.2619
16633TIP3   OH271389   1.435   1.614   1.124 -0.4267  0.1769  0.1630
16633TIP3    H171390   1.463   1.523   1.137 -0.5151  0.1808  0.3800
16633TIP3    H271391   1.515   1.659   1.097 -0.1107  0.2783  1.2084
16634TIP3   OH271392   6.809   2.595   0.888  0.0516  0.3576  0.4243
16634TIP3    H171393   6.738   2.551   0.933  0.4077 -0.4087  0.2587
16634TIP3    H271394   6.782   2.597   0.796 -0.3345  1.2388  0.5496
16635TIP3   OH271395   5.456   2.840  14.662 -0.9383  0.0092 -0.0298
16635TIP3    H171396   5.448   2.763  14.606 -0.5946 -0.3285  0.3798
16635TIP3    H271397   5.548   2.842  14.688 -0.5491  1.5295 -1.3984
16636TIP3   OH271398   1.636   4.733   1.251  0.5182 -0.0944  0.4259
16636TIP3    H171399   1.728   4.750   1.271  0.4313  0.8404  0.0776
16636TIP3    H271400   1.627   4.754   1.159  0.1273 -0.9955  0.2430
16637TIP3   OH271401   6.728   6.123   5.806 -0.0124 -0.3011  0.0615
16637TIP3    H171402   6.732   6.076   5.889  3.5063 -2.3890 -1.0948
16637TIP3    H271403   6.790   6.195   5.817  0.3755 -0.5122 -0.7026
16638TIP3   OH271404   1.411   4.228   3.833 -0.3153  0.3285  0.3189
16638TIP3    H171405   1.345   4.252   3.898 -1.5175  0.7186 -0.9897
16638TIP3    H271406   1.456   4.310   3.813 -1.2526  0.6177 -0.7150
16639TIP3   OH271407   2.240   0.775  15.900 -0.2819 -0.3723  1.0808
16639TIP3    H171408   2.300   0.760  15.827  0.0283  0.8073  1.0780
16639TIP3    H271409   2.245   0.869  15.916  0.6809 -0.7877  3.5178
16640TIP3   OH271410   3.056   6.468   0.046  0.5021  0.5872  0.3591
16640TIP3    H171411   2.967   6.502   0.039  0.8388  1.4648  0.1969
16640TIP3    H271412   3.058   6.394  -0.015  0.6108  2.1427 -1.6439
16641TIP3   OH271413   4.315   3.602   2.047  0.0679 -0.6438 -0.5100
16641TIP3    H171414   4.268   3.666   1.994  1.7388  1.4121  0.3189
16641TIP3    H271415   4.405   3.634   2.048  0.1224 -0.4160  3.6211
16642TIP3   OH271416   3.305   0.445  16.935 -0.0879 -0.0770  0.4417
16642TIP3    H171417   3.367   0.372  16.933  0.5104  0.4031 -2.0058
16642TIP3    H271418   3.234   0.418  16.877  0.3848  1.4498 -0.9118
16643TIP3   OH271419   6.695   0.066  13.268  0.2041  0.0217  0.1361
16643TIP3    H171420   6.606   0.082  13.299  0.7626  1.8391  0.9294
16643TIP3    H271421   6.689   0.070  13.173 -0.6569 -0.5487  0.1527
16644TIP3   OH271422   0.257   1.046  16.116 -0.3929 -0.0115  0.4512
16644TIP3    H171423   0.267   0.957  16.081  1.7596  0.7212 -1.0381
16644TIP3    H271424   0.223   1.034  16.204  2.5403 -2.5297  1.4119
16645TIP3   OH271425   3.527   1.933   1.702  0.5202 -0.1534  1.1147
16645TIP3    H171426   3.439   1.970   1.704  0.5038 -0.2375  2.4027
16645TIP3    H271427   3.515   1.844   1.669 -0.0328 -0.5616  2.3875
16646TIP3   OH271428   1.726   4.727  13.528 -0.6615 -0.1248 -0.5180
16646TIP3    H171429   1.711   4.749  13.436 -0.7139  0.0145 -0.4755
16646TIP3    H271430   1.803   4.669  13.526 -0.5351  0.0472 -0.6297
16647TIP3   OH271431   6.718   0.669   5.176  0.2327  0.1118 -0.9510
16647TIP3    H171432   6.732   0.632   5.263 -0.2285  0.5262 -0.6907
16647TIP3    H271433   6.667   0.603   5.129  0.3642 -0.0545 -0.8603
16648TIP3   OH271434   2.556   4.338   4.452  0.5984 -0.2093  0.0973
16648TIP3    H171435   2.648   4.338   4.478  0.8073  2.7253 -0.2861
16648TIP3    H271436   2.545   4.420   4.404 -2.6828  0.5517  1.9011
16649TIP3   OH271437   2.097   6.302  13.281  0.4772  0.1126  0.3243
16649TIP3    H171438   2.025   6.329  13.337 -2.9120 -0.0916 -3.5202
16649TIP3    H271439   2.147   6.382  13.265 -1.4303  1.2571 -0.1943
16650TIP3   OH271440   4.137   3.368   0.485 -0.5864  0.4668 -0.4017
16650TIP3    H171441   4.086   3.297   0.446  1.2315 -1.0996 -0.1427
16650TIP3    H271442   4.098   3.382   0.571 -1.4060  0.2689 -0.7400
16651TIP3   OH271443   3.933   1.335  15.821  0.2983  0.5092  0.4633
16651TIP3    H171444   3.871   1.380  15.763 -0.9518 -1.6231  0.0144
16651TIP3    H271445   3.943   1.248  15.781  0.6870 -0.4624  2.5682
16652TIP3   OH271446   1.179   2.876  14.126 -0.1411 -0.0248  0.0812
16652TIP3    H171447   1.121   2.801  14.142 -2.1629  1.6491  1.0225
16652TIP3    H271448   1.225   2.887  14.209  1.0865 -0.9192 -0.4459
16653TIP3   OH271449   1.554   3.727   1.685 -0.0473  0.5592 -0.2463
16653TIP3    H171450   1.580   3.772   1.604 -0.4834  0.0444 -0.6853
16653TIP3    H271451   1.637   3.711   1.731  0.3588 -0.3372 -1.2358
16654TIP3   OH271452   3.196   1.458   1.962  0.4768 -0.4290 -1.0906
16654TIP3    H171453   3.269   1.463   2.024  0.9480  1.7221 -1.7224
16654TIP3    H271454   3.179   1.364   1.952  0.4556 -0.8659  2.1418
16655TIP3   OH271455   0.826   4.694   4.418  0.5522 -0.0294 -0.1977
16655TIP3    H171456   0.889   4.765   4.402 -0.1440  0.6248 -0.1155
16655TIP3    H271457   0.804   4.702   4.511  0.8844 -0.7069 -0.0599
16656TIP3   OH271458   6.359   1.071  11.883  0.7931  0.1673 -0.1055
16656TIP3    H171459   6.334   0.991  11.929  0.5789 -0.0868 -0.6683
16656TIP3    H271460   6.294   1.135  11.910  2.1810  0.7917  2.0846
16657TIP3   OH271461   4.052   4.231  11.864 -0.3557  0.3787 -0.4504
16657TIP3    H171462   3.993   4.301  11.837 -1.5152 -0.7646 -0.9718
16657TIP3    H271463   3.994   4.159  11.889  0.7974 -1.2351 -2.1911
16658TIP3   OH271464   6.799   6.007   1.875 -0.2804  0.0242  0.1345
16658TIP3    H171465   6.775   6.009   1.967 -2.1445  4.0399 -0.1924
16658TIP3    H271466   6.869   6.073   1.867 -0.5850  0.2082 -1.3895
16659TIP3   OH271467   4.354   3.584  11.918  0.3126 -0.0767  0.2642
16659TIP3    H171468   4.291   3.607  11.986 -0.0040  0.8921 -0.3417
16659TIP3    H271469   4.395   3.667  11.894  0.0686 -0.3267 -1.0636
16660TIP3   OH271470   4.367   1.689  16.172 -0.3569 -0.0237  0.1481
16660TIP3    H171471   4.303   1.625  16.203  0.0113  0.0905  1.2057
16660TIP3    H271472   4.369   1.756  16.241  0.5967  0.1805 -0.0628
16661TIP3   OH271473   0.391   5.278   2.573 -0.3499  0.1486  0.1404
16661TIP3    H171474   0.312   5.287   2.519  0.6953  0.0666 -1.4655
16661TIP3    H271475   0.440   5.359   2.557  0.3290 -0.2084  0.3697
16662TIP3   OH271476   3.160   1.384  15.022  0.1054 -0.1235  0.5134
16662TIP3    H171477   3.190   1.365  15.111 -0.6432 -1.6429  0.4662
16662TIP3    H271478   3.112   1.306  14.995 -0.5862  0.7302 -0.8465
16663TIP3   OH271479   2.499   0.508   0.816 -0.2976  0.0455 -0.3627
16663TIP3    H171480   2.498   0.540   0.726 -0.9564 -1.5142 -0.9475
16663TIP3    H271481   2.411   0.474   0.831 -0.9750  2.4119  1.7384
16664TIP3   OH271482   4.296   1.136   6.618 -0.4886  0.2370 -0.1583
16664TIP3    H171483   4.343   1.171   6.693  1.6317  0.7146 -1.6249
16664TIP3    H271484   4.271   1.047   6.645  2.7687 -0.7094  0.1831
16665TIP3   OH271485   4.848   1.814  11.216  0.2751 -1.1532  0.4107
16665TIP3    H171486   4.900   1.863  11.152 -0.2587  0.3497  1.0796
16665TIP3    H271487   4.857   1.864  11.297 -3.7705  0.4310  0.1423
16666TIP3   OH271488   3.331   1.398   0.970 -0.2748 -0.5162 -0.0597
16666TIP3    H171489   3.391   1.468   0.996  0.2136 -0.2500 -1.7368
16666TIP3    H271490   3.251   1.445   0.944  0.0341 -0.5578 -1.1338
16667TIP3   OH271491   1.713   2.039   2.446 -0.0443 -0.1289  0.2682
16667TIP3    H171492   1.649   2.054   2.377  2.5516  3.0382 -1.7698
16667TIP3    H271493   1.755   1.957   2.423 -0.8956 -0.3875 -0.4215
16668TIP3   OH271494   0.772   4.655   1.295 -0.0023 -0.2399  0.3195
16668TIP3    H171495   0.802   4.661   1.204  1.7573 -0.6162  0.8266
16668TIP3    H271496   0.704   4.588   1.294 -0.6714  0.4295 -0.8586
16669TIP3   OH271497   5.799   5.238  14.492  0.4595 -0.3619  0.8912
16669TIP3    H171498   5.793   5.325  14.451 -1.4928 -1.3725 -1.1752
16669TIP3    H271499   5.757   5.250  14.578  0.0371  0.7016  0.5620
16670TIP3   OH271500   0.651   4.680  15.628 -0.2597 -0.4942  0.0480
16670TIP3    H171501   0.716   4.737  15.586 -0.8686 -1.3267 -2.1553
16670TIP3    H271502   0.637   4.609  15.565 -0.9138 -2.0939  1.8954
16671TIP3   OH271503   0.029   0.711   4.924 -0.6415  0.4344  0.6987
16671TIP3    H171504   0.042   0.805   4.915 -1.2402  0.3724 -1.2367
16671TIP3    H271505   0.041   0.694   5.018  1.3198  2.1315  0.8413
16672TIP3   OH271506   5.804   1.885   4.930 -0.0430  0.1362 -0.2659
16672TIP3    H171507   5.782   1.942   5.004  0.6446 -0.9032  0.7652
16672TIP3    H271508   5.817   1.945   4.857 -1.7632  1.1150  0.1751
16673TIP3   OH271509   5.646   1.835   6.474  0.8272 -0.4946  0.7992
16673TIP3    H171510   5.590   1.762   6.501  1.1862 -0.8612  0.5747
16673TIP3    H271511   5.714   1.839   6.541  0.3740  0.1363  1.2283
16674TIP3   OH271512   3.807   3.852  14.157 -0.5791  0.1238 -0.0177
16674TIP3    H171513   3.898   3.871  14.179 -0.7282  1.0976 -0.2043
16674TIP3    H271514   3.813   3.778  14.095  0.0422 -0.1511  0.3536
16675TIP3   OH271515   5.958   6.090  14.314  0.3097 -0.2734 -0.2239
16675TIP3    H171516   6.054   6.081  14.317  0.1960 -1.9404 -0.5078
16675TIP3    H271517   5.926   6.000  14.315 -1.2340  0.2358 -0.9723
16676TIP3   OH271518   0.042   3.738  13.952  0.2390 -0.8496 -0.2503
16676TIP3    H171519  -0.011   3.770  14.025 -1.0569 -2.8252 -0.2391
16676TIP3    H271520   0.098   3.812  13.929  0.3716 -0.0050  2.4195
16677TIP3   OH271521   3.921   0.327  13.389  0.5569 -0.1670  0.0767
16677TIP3    H171522   3.932   0.234  13.405 -1.8235 -0.3687  0.9559
16677TIP3    H271523   3.861   0.332  13.315  1.2401  0.6911 -0.4446
16678TIP3   OH271524   2.030   5.213  15.332 -0.1144  0.0511 -0.3010
16678TIP3    H171525   2.093   5.284  15.339  1.5467 -1.3355 -0.4571
16678TIP3    H271526   2.073   5.147  15.277 -1.7663 -0.8984 -0.5497
16679TIP3   OH271527   2.673   6.416  11.226  0.5608 -0.0530  0.2462
16679TIP3    H171528   2.674   6.365  11.307 -0.4955 -0.1012  0.2453
16679TIP3    H271529   2.592   6.467  11.231 -0.0683 -0.8475 -1.2493
16680TIP3   OH271530   1.785   3.591   2.904 -0.7605  0.0888 -0.0345
16680TIP3    H171531   1.871   3.555   2.925 -0.9630  0.3605  1.3250
16680TIP3    H271532   1.769   3.562   2.814  0.5584 -0.3166 -0.1646
16681TIP3   OH271533   6.182   5.714   5.320 -0.3426  0.3611 -0.5246
16681TIP3    H171534   6.206   5.718   5.412  0.0828 -1.7430 -0.4818
16681TIP3    H271535   6.087   5.708   5.320 -0.2820 -0.7704 -0.1397
16682TIP3   OH271536   3.343   6.524   3.273  0.2187 -0.3238 -0.2931
16682TIP3    H171537   3.271   6.482   3.320 -0.1569 -1.3738 -1.7514
16682TIP3    H271538   3.353   6.609   3.316 -3.6451  1.0266 -1.6248
16683TIP3   OH271539   4.036   4.337  13.517 -0.0737  0.0862 -0.4262
16683TIP3    H171540   4.068   4.350  13.428  1.2361 -0.5895 -0.0708
16683TIP3    H271541   3.948   4.376  13.517 -1.5544 -2.8319 -2.9375
16684TIP3   OH271542   1.940   0.134  12.964  0.0850  0.0785  0.5550
16684TIP3    H171543   1.864   0.183  12.996  0.8264  0.7939  1.2403
16684TIP3    H271544   1.979   0.190  12.897 -0.8361 -0.9464 -0.9085
16685TIP3   OH271545   3.954   5.762  12.572 -0.4090  0.3340 -0.0795
16685TIP3    H171546   3.934   5.785  12.662  0.8348 -0.9518  0.5734
16685TIP3    H271547   3.870   5.768  12.526 -1.3577 -0.3996  1.4771
16686TIP3   OH271548   2.983   6.140  15.979  0.1285  0.0684  0.1058
16686TIP3    H171549   2.946   6.191  15.908  0.2817  0.7284  0.4927
16686TIP3    H271550   2.910   6.124  16.039  0.2247  0.4361  0.3277
16687TIP3   OH271551   3.140   4.787  13.063 -0.0582  0.6225 -0.9031
16687TIP3    H171552   3.096   4.774  12.978  2.0773  1.9400 -2.2977
16687TIP3    H271553   3.121   4.878  13.086 -1.1827  0.0871  0.4412
16688TIP3   OH271554   0.280   6.363   4.767 -0.0679  0.7036  0.1223
16688TIP3    H171555   0.310   6.400   4.850 -0.1657 -2.2530  1.5887
16688TIP3    H271556   0.202   6.313   4.790  1.1361 -1.9965 -1.2576
16689TIP3   OH271557   4.519   0.468  15.225 -0.3487 -0.7878 -0.3550
16689TIP3    H171558   4.573   0.460  15.147  0.1478  0.4168 -0.1675
16689TIP3    H271559   4.463   0.544  15.208 -0.3860 -0.6409  0.3635
16690TIP3   OH271560   4.349   1.355   2.851 -0.0725 -0.1177 -0.0174
16690TIP3    H171561   4.295   1.433   2.861  1.1174  0.6501  0.6880
16690TIP3    H271562   4.314   1.312   2.773 -0.2761  1.5252 -0.8864
16691TIP3   OH271563   1.269   5.354   4.047  0.6791  0.0390 -0.4870
16691TIP3    H171564   1.177   5.330   4.036  1.0265 -0.8430 -1.6530
16691TIP3    H271565   1.283   5.425   3.984  0.6069  0.7631  0.2878
16692TIP3   OH271566   6.244   4.339   2.902  0.6857 -0.1417  0.0247
16692TIP3    H171567   6.182   4.411   2.889  0.3062 -0.4631  0.0322
16692TIP3    H271568   6.222   4.275   2.835  0.3348 -0.7101  0.6607
16693TIP3   OH271569   3.926   4.180  15.811 -0.0442  0.0221  0.2711
16693TIP3    H171570   3.899   4.100  15.857 -1.1198 -0.3233 -0.8876
16693TIP3    H271571   3.990   4.221  15.869 -0.5901 -0.9090  1.5832
16694TIP3   OH271572   2.504   6.432   3.449  0.2560  0.0029 -0.1606
16694TIP3    H171573   2.468   6.520   3.457 -1.8875 -0.7909 -0.3796
16694TIP3    H271574   2.566   6.437   3.377 -1.6199  0.8430 -1.8060
16695TIP3   OH271575   0.741   0.849  12.610 -0.6751  0.0722  0.4392
16695TIP3    H171576   0.700   0.930  12.643 -0.6515  0.5132 -0.5779
16695TIP3    H271577   0.833   0.872  12.597 -0.5974 -0.2253  0.4556
16696TIP3   OH271578   1.937   3.963   3.995 -0.5232 -0.0447 -0.1029
16696TIP3    H171579   1.863   3.943   4.052 -1.4680 -0.2403 -1.3496
16696TIP3    H271580   1.897   3.985   3.911  0.8963 -2.9184 -1.6542
16697TIP3   OH271581   5.427   1.868  16.515  0.0201  0.4275 -0.2199
16697TIP3    H171582   5.521   1.865  16.497 -0.3076 -0.7196 -2.0288
16697TIP3    H271583   5.421   1.903  16.604  2.2280 -0.7735  0.4950
16698TIP3   OH271584   1.707   4.524   0.417 -0.2888 -0.6157 -0.0219
16698TIP3    H171585   1.656   4.510   0.337 -0.4778  1.4323 -0.3113
16698TIP3    H271586   1.658   4.478   0.485 -0.4284 -1.9047 -0.9654
16699TIP3   OH271587   2.369   0.793   4.301 -0.2902 -0.0819 -0.4339
16699TIP3    H171588   2.347   0.778   4.393 -0.8209  1.1261 -0.3375
16699TIP3    H271589   2.426   0.870   4.302  0.5304 -0.6659 -1.0402
16700TIP3   OH271590   2.809   0.942  11.734 -0.2371 -0.4328  0.4175
16700TIP3    H171591   2.743   0.917  11.798 -0.8003 -1.0724 -0.4009
16700TIP3    H271592   2.866   0.865  11.726  0.0357 -0.2313  0.4151
16701TIP3   OH271593   4.581   2.025  14.183 -0.4239 -0.0488  0.8565
16701TIP3    H171594   4.640   1.963  14.141 -0.0671  0.4711  0.5769
16701TIP3    H271595   4.526   1.971  14.240 -0.0311 -0.6001  0.7230
16702TIP3   OH271596   1.843   3.495  16.201  0.0320 -0.3414  0.2062
16702TIP3    H171597   1.918   3.509  16.143 -0.1365 -1.9766 -0.4699
16702TIP3    H271598   1.843   3.571  16.259  2.4925 -0.4980  0.5288
16703TIP3   OH271599   3.851   1.136   3.899 -0.0936 -0.5677 -0.3287
16703TIP3    H171600   3.823   1.218   3.941  0.7548 -0.4114 -0.0413
16703TIP3    H271601   3.913   1.164   3.832 -3.3036 -0.5599 -3.5880
16704TIP3   OH271602   3.448   0.957   0.803  0.0290 -0.1469  0.0753
16704TIP3    H171603   3.389   0.984   0.873  0.3833 -0.4230  0.4895
16704TIP3    H271604   3.529   1.005   0.821 -0.0948  0.3034 -0.5427
16705TIP3   OH271605   1.485   4.434   5.961 -0.0232  0.3986  0.0859
16705TIP3    H171606   1.555   4.478   6.008  0.7762  0.4026 -1.0494
16705TIP3    H271607   1.487   4.474   5.873  1.3178 -2.4144 -1.2847
16706TIP3   OH271608   3.233   1.227   1.405 -0.1881  1.0657  0.1628
16706TIP3    H171609   3.186   1.248   1.325 -0.0731 -0.6422 -0.3946
16706TIP3    H271610   3.315   1.188   1.376 -0.1549  0.3995  1.0878
16707TIP3   OH271611   3.846   2.259  14.015 -0.2777 -0.3491 -1.3053
16707TIP3    H171612   3.820   2.348  14.038 -1.1455 -0.4896 -1.6938
16707TIP3    H271613   3.812   2.205  14.086  0.4600 -0.3600 -0.9433
16708TIP3   OH271614   0.766   3.659  13.385 -0.4139 -0.5998  0.3725
16708TIP3    H171615   0.741   3.625  13.471  1.5725 -1.4178  0.6983
16708TIP3    H271616   0.740   3.591  13.323 -1.6772 -0.0921  0.3258
16709TIP3   OH271617   0.961   2.941   4.296  0.3389 -0.5525  0.4211
16709TIP3    H171618   1.019   2.973   4.227 -1.3845  0.2666 -0.7238
16709TIP3    H271619   0.916   3.020   4.328 -0.6294 -1.2251  0.7798
16710TIP3   OH271620   4.006   0.380  11.160 -0.2665  0.2616 -0.1447
16710TIP3    H171621   4.097   0.388  11.188 -0.6132  0.6056  0.9239
16710TIP3    H271622   4.008   0.399  11.066  0.4980  2.2904  0.2332
16711TIP3   OH271623   4.904   3.962  10.310  0.6578  0.3357 -0.5700
16711TIP3    H171624   4.953   4.044  10.302  0.6316  0.2683 -1.6649
16711TIP3    H271625   4.818   3.989  10.342  0.8509  0.6656 -0.3259
16712TIP3   OH271626   0.788   2.046  13.810 -0.1035  0.3054  0.3217
16712TIP3    H171627   0.739   2.124  13.782 -0.9805 -1.0381 -2.2430
16712TIP3    H271628   0.874   2.079  13.836 -1.0123  2.2929  1.0032
16713TIP3   OH271629   6.240   6.005  16.699  0.1371 -0.3407 -0.2523
16713TIP3    H171630   6.296   5.935  16.733  2.3795  1.3228 -0.2627
16713TIP3    H271631   6.284   6.033  16.618  0.0640  1.9046  0.4222
16714TIP3   OH271632   6.402   4.831   5.005  0.5800  0.1395  0.7672
16714TIP3    H171633   6.419   4.911   4.955  0.2904 -0.4213 -0.2520
16714TIP3    H271634   6.489   4.800   5.029  0.7770 -0.0305 -0.1220
16715TIP3   OH271635   4.370   2.935  14.751  0.2634  0.6637  0.0277
16715TIP3    H171636   4.375   2.897  14.839 -0.3205  0.2431 -0.1152
16715TIP3    H271637   4.461   2.934  14.720  0.6181  1.6856  0.9735
16716TIP3   OH271638   6.148   0.559  15.034  0.4401  0.4832 -0.3569
16716TIP3    H171639   6.232   0.567  14.988  0.6518 -0.5670 -0.1706
16716TIP3    H271640   6.083   0.552  14.964  0.4838  1.3395 -0.5037
16717TIP3   OH271641   2.337   6.458  14.676  0.2387 -0.1584  0.4857
16717TIP3    H171642   2.430   6.442  14.660  0.1085 -0.0411 -0.4326
16717TIP3    H271643   2.335   6.532  14.736  0.7234  1.0454 -0.9371
16718TIP3   OH271644   5.686   5.840  13.926  0.3522 -0.0435 -0.1161
16718TIP3    H171645   5.608   5.878  13.886  0.6699 -1.4475 -2.2148
16718TIP3    H271646   5.688   5.750  13.894  2.3941 -0.3036  0.5821
16719TIP3   OH271647   3.916   1.576  13.897 -0.0535  0.6582 -0.3897
16719TIP3    H171648   3.888   1.579  13.988 -2.1261 -0.2904 -0.9348
16719TIP3    H271649   3.865   1.644  13.853 -0.5771 -0.2336 -1.1986
16720TIP3   OH271650   0.383   6.173   0.690 -0.1869  0.0261  0.2195
16720TIP3    H171651   0.291   6.183   0.664 -0.3781  0.7088  1.1076
16720TIP3    H271652   0.426   6.138   0.612 -1.2779 -0.7035 -0.0870
16721TIP3   OH271653   2.373   0.604   4.910  0.3189 -0.0864 -0.3423
16721TIP3    H171654   2.451   0.589   4.857 -0.2007  0.8329 -1.4107
16721TIP3    H271655   2.308   0.543   4.875 -0.3068  1.1533 -1.4273
16722TIP3   OH271656   5.917   3.275  13.810 -0.1945 -0.1798 -0.8794
16722TIP3    H171657   5.858   3.204  13.834 -1.3234  0.6025 -1.2098
16722TIP3    H271658   5.957   3.246  13.728 -0.9101 -0.3082 -1.1975
16723TIP3   OH271659   1.371   3.949   1.741 -0.2228  0.1673  0.5429
16723TIP3    H171660   1.405   3.951   1.830 -1.6194  0.1648  1.1098
16723TIP3    H271661   1.426   3.886   1.695  1.7763  1.6102  0.8370
16724TIP3   OH271662   5.179   2.272  15.018 -0.1654 -0.1684  0.5690
16724TIP3    H171663   5.138   2.316  15.093  1.2573  1.7014  0.3208
16724TIP3    H271664   5.231   2.202  15.057 -1.4068 -0.8492  1.0839
16725TIP3   OH271665   4.190   2.644   3.051  0.7795  0.2282  0.0050
16725TIP3    H171666   4.103   2.663   3.085  0.2312 -0.3771 -0.9991
16725TIP3    H271667   4.175   2.580   2.981  1.9567  0.6346 -0.6538
16726TIP3   OH271668   0.665   0.301  13.943  0.1951  0.4078  0.0437
16726TIP3    H171669   0.593   0.282  14.004  0.8024  1.2843  1.0819
16726TIP3    H271670   0.740   0.255  13.980  0.7234  1.4817  0.3497
16727TIP3   OH271671   0.998   0.811  11.038 -0.3512 -0.2254 -0.1963
16727TIP3    H171672   0.965   0.733  10.994 -0.5837 -0.9871  1.2406
16727TIP3    H271673   0.937   0.824  11.111 -1.3700  2.3597 -1.3711
16728TIP3   OH271674   1.068   2.937   5.557 -0.0336 -0.3324 -0.3104
16728TIP3    H171675   1.066   2.865   5.494  1.3761 -0.7909  0.1449
16728TIP3    H271676   1.155   2.932   5.597  0.2619  1.8807 -0.5673
16729TIP3   OH271677   1.364   0.979   4.465 -0.2352  0.4494  0.1172
16729TIP3    H171678   1.341   0.989   4.557 -1.6757  1.3955 -0.3137
16729TIP3    H271679   1.373   0.884   4.453 -0.8747  0.2595  1.0288
16730TIP3   OH271680   2.596   3.065   4.147  0.0838 -0.1680 -0.2951
16730TIP3    H171681   2.567   2.985   4.189 -2.1917 -1.0842 -3.1961
16730TIP3    H271682   2.691   3.061   4.149  0.0675 -1.1381  2.6637
16731TIP3   OH271683   1.060   6.842  12.549  0.2410  0.1409  0.3046
16731TIP3    H171684   1.116   6.776  12.589  1.1048  0.3625 -0.5082
16731TIP3    H271685   1.015   6.796  12.479 -0.3463  0.0474  0.7358
16732TIP3   OH271686   1.844   2.870  16.635  0.0649  0.2406 -0.0159
16732TIP3    H171687   1.887   2.857  16.720 -1.1465 -1.4037  0.4078
16732TIP3    H271688   1.766   2.922  16.656 -0.3410 -0.3346 -0.0558
16733TIP3   OH271689   0.356   6.209   5.733 -0.0177  0.6565  0.0716
16733TIP3    H171690   0.286   6.162   5.779  0.9527 -0.2538  0.6511
16733TIP3    H271691   0.376   6.155   5.657  0.5796  0.5038  0.3301
16734TIP3   OH271692   4.618   4.089  10.900  0.4550 -0.0213  0.1120
16734TIP3    H171693   4.704   4.128  10.883  0.2585  0.7137  0.7777
16734TIP3    H271694   4.631   3.995  10.884  1.2071  0.1651 -0.4336
16735TIP3   OH271695   2.544   4.878   5.872 -0.4152 -0.1490  0.0171
16735TIP3    H171696   2.471   4.935   5.895 -0.8316 -0.9781  0.7959
16735TIP3    H271697   2.576   4.912   5.788 -1.3670  0.5314 -0.0772
16736TIP3   OH271698   0.163   1.883  14.567 -0.0191  0.0722 -0.1076
16736TIP3    H171699   0.077   1.902  14.527  0.3173  0.9552 -0.4267
16736TIP3    H271700   0.170   1.945  14.639  0.3794  0.0456 -0.1235
16737TIP3   OH271701   0.420   1.541   5.028 -0.1261 -0.1805 -0.4281
16737TIP3    H171702   0.335   1.517   4.991 -1.0577 -0.7434  1.8495
16737TIP3    H271703   0.401   1.617   5.084  0.3416 -1.5597  1.7567
16738TIP3   OH271704   6.219   5.354  11.235 -0.6591 -0.5546  0.1848
16738TIP3    H171705   6.134   5.396  11.221 -0.4400 -0.1958 -0.0841
16738TIP3    H271706   6.223   5.284  11.169  0.6520  1.5427 -2.1491
16739TIP3   OH271707   1.428   0.521  11.727  0.5244 -0.5119 -0.1402
16739TIP3    H171708   1.404   0.580  11.656 -0.4484 -0.7818 -0.0510
16739TIP3    H271709   1.506   0.475  11.695  1.6463  1.2144  0.0330
16740TIP3   OH271710   0.209   1.101   5.443  0.0970  0.2437 -0.8919
16740TIP3    H171711   0.183   1.178   5.391  3.8815  2.1822 -0.3131
16740TIP3    H271712   0.264   1.050   5.383  1.7792  0.7543  0.1585
16741TIP3   OH271713   3.164   0.923  11.726 -0.3447  0.1016  0.3728
16741TIP3    H171714   3.214   1.003  11.709  0.9878 -1.0706 -1.5221
16741TIP3    H271715   3.075   0.954  11.746 -0.2972  2.0183 -1.9659
16742TIP3   OH271716   3.400   3.288   1.387 -0.3384  0.5258 -0.1793
16742TIP3    H171717   3.316   3.263   1.426  0.3088  0.0606  0.9738
16742TIP3    H271718   3.395   3.383   1.379 -1.1162  0.4682 -0.4709
16743TIP3   OH271719   0.896   5.033  14.193 -0.0885  0.3081 -0.5793
16743TIP3    H171720   0.963   5.096  14.165 -0.4968  0.3524 -1.4949
16743TIP3    H271721   0.910   5.024  14.288  1.0867  0.4572 -0.7160
16744TIP3   OH271722   1.371   5.611   1.044  0.5840  0.2658  0.6399
16744TIP3    H171723   1.283   5.586   1.015  0.7029  0.6126 -0.0290
16744TIP3    H271724   1.374   5.706   1.032  0.2277  0.6196  2.8971
16745TIP3   OH271725   5.099   5.166  16.248  0.1964 -0.4810 -0.0286
16745TIP3    H171726   5.046   5.098  16.207 -0.1573 -0.3107  0.1449
16745TIP3    H271727   5.038   5.213  16.305  0.3461  0.2268 -0.4452
16746TIP3   OH271728   6.295   6.179   1.651 -0.0617  0.3416 -0.3040
16746TIP3    H171729   6.232   6.166   1.722 -1.1993 -0.0650 -1.3555
16746TIP3    H271730   6.245   6.163   1.571  1.4710 -0.3313 -1.1685
16747TIP3   OH271731   0.130   1.872  12.568 -0.1453  0.6053 -0.2892
16747TIP3    H171732   0.103   1.865  12.660  0.9157  0.1570  0.0044
16747TIP3    H271733   0.221   1.903  12.572  1.0205 -2.3831 -1.0457
16748TIP3   OH271734   5.853   1.313  14.231 -0.0542  0.3037 -0.0911
16748TIP3    H171735   5.849   1.217  14.236  0.9171  0.1730 -1.2914
16748TIP3    H271736   5.767   1.339  14.198  0.1989 -0.3063 -1.2937
16749TIP3   OH271737   0.554   5.171   4.473  0.0899 -0.3531  0.2980
16749TIP3    H171738   0.597   5.177   4.388  0.4123  0.2318  0.4951
16749TIP3    H271739   0.461   5.181   4.454  0.0347 -1.5215 -0.1192
16750TIP3   OH271740   0.661   4.218  13.488  0.4023  0.6493 -0.1591
16750TIP3    H171741   0.745   4.261  13.499 -0.1757  1.7861 -0.0643
16750TIP3    H271742   0.596   4.288  13.499 -0.6186 -0.4586  1.2242
16751TIP3   OH271743   1.339   4.142  14.438  0.3518  0.6836 -0.4792
16751TIP3    H171744   1.337   4.200  14.362 -0.6671  1.1877 -0.0790
16751TIP3    H271745   1.286   4.187  14.504  2.8017  1.2559  1.2673
16752TIP3   OH271746   0.596   5.014  16.969  0.1247 -0.7340 -0.3743
16752TIP3    H171747   0.671   5.001  17.028  0.5432  1.7838 -0.2683
16752TIP3    H271748   0.593   4.934  16.917  3.4369 -0.5942 -0.9615
16753TIP3   OH271749   6.018   0.517  16.654  0.3401 -0.0314 -1.2172
16753TIP3    H171750   5.971   0.588  16.610  1.1937  1.1915 -0.2321
16753TIP3    H271751   6.110   0.534  16.632  0.7344  0.3128  0.5875
16754TIP3   OH271752   5.888   0.102   0.397  0.3554 -0.3612  0.2349
16754TIP3    H171753   5.918   0.015   0.427  1.4266  0.0190  0.3166
16754TIP3    H271754   5.876   0.092   0.303  1.7280 -0.2754  0.0294
16755TIP3   OH271755   5.090   3.917   3.903 -0.3612  0.4162  0.2064
16755TIP3    H171756   5.061   4.004   3.878 -0.7057  0.3510  0.3776
16755TIP3    H271757   5.186   3.924   3.905 -0.4214  1.2076  1.6505
16756TIP3   OH271758   5.176   4.028  12.495  0.0700  0.0039  0.1718
16756TIP3    H171759   5.268   4.007  12.511 -0.0540 -1.1517 -0.5568
16756TIP3    H271760   5.153   3.979  12.417 -1.5935 -0.9168  1.1786
16757TIP3   OH271761   2.465   5.523  15.944 -0.4610 -0.5935  0.7069
16757TIP3    H171762   2.375   5.489  15.949 -0.3437 -0.8097  1.3613
16757TIP3    H271763   2.486   5.548  16.034 -0.2535  0.4710  0.3752
16758TIP3   OH271764   3.065   2.485  12.908 -0.2615  0.3317 -0.2319
16758TIP3    H171765   3.136   2.546  12.927 -0.6031  1.2520 -1.7656
16758TIP3    H271766   3.109   2.405  12.879  0.1596  0.1666  0.8044
16759TIP3   OH271767   4.267   3.210  17.053  0.0510  0.1046  0.0426
16759TIP3    H171768   4.340   3.273  17.051  0.1161  0.0317  0.1120
16759TIP3    H271769   4.306   3.128  17.023 -0.0201  0.0829  0.0103
16760TIP3   OH271770   3.196   6.507  16.804 -0.3397 -0.0880  0.4345
16760TIP3    H171771   3.113   6.534  16.764  0.2954  0.3048 -0.6462
16760TIP3    H271772   3.243   6.461  16.735  1.6691  2.3901  0.0141
16761TIP3   OH271773   2.930   5.866   6.346  0.2537  0.4891  0.1328
16761TIP3    H171774   2.946   5.774   6.368 -0.6182 -0.0398 -1.3124
16761TIP3    H271775   2.972   5.915   6.417  0.9463 -1.0071  0.8069
16762TIP3   OH271776   5.894   2.448   5.610 -0.0743 -0.4441 -0.2407
16762TIP3    H171777   5.887   2.449   5.515 -0.9439 -0.8091 -0.1956
16762TIP3    H271778   5.840   2.374   5.637 -0.2746 -0.0181  0.5627
16763TIP3   OH271779   5.752   4.527   5.782 -0.2142 -0.2523 -0.0761
16763TIP3    H171780   5.745   4.448   5.729  2.3393 -1.8240  1.7034
16763TIP3    H271781   5.837   4.563   5.760  0.0420  0.1572  1.4575
16764TIP3   OH271782   1.093   0.148   4.094 -0.2324 -0.0643 -0.1859
16764TIP3    H171783   0.998   0.155   4.083 -0.1111 -0.6691 -1.9156
16764TIP3    H271784   1.116   0.064   4.055  1.2118  0.8260 -1.3457
16765TIP3   OH271785   0.135   6.298  15.248  0.0286  0.3044 -0.2622
16765TIP3    H171786   0.191   6.362  15.295  1.3597  0.1389 -1.5559
16765TIP3    H271787   0.177   6.288  15.163 -0.5865 -1.7476 -0.3692
16766TIP3   OH271788   5.966   4.375  14.848  0.3755  0.1786 -0.3074
16766TIP3    H171789   5.953   4.466  14.821  2.0018 -0.3163 -3.1716
16766TIP3    H271790   6.016   4.336  14.777 -1.5626 -3.4068  0.0762
16767TIP3   OH271791   3.246   3.195  16.061 -0.2357  0.5366 -0.1752
16767TIP3    H171792   3.179   3.260  16.039 -0.9254  0.3280  1.1988
16767TIP3    H271793   3.215   3.155  16.142  1.2292 -0.0439  0.1331
16768TIP3   OH271794   4.541   5.913  14.641 -0.1080 -0.1240 -0.7878
16768TIP3    H171795   4.488   5.993  14.647 -1.0956 -0.7370 -1.1000
16768TIP3    H271796   4.627   5.939  14.674 -1.2519  0.2912  2.2093
16769TIP3   OH271797   3.522   0.922  11.772 -0.0552 -0.1138  0.3325
16769TIP3    H171798   3.452   0.987  11.776 -0.0975 -0.1660  0.4440
16769TIP3    H271799   3.477   0.839  11.756  0.0212 -0.0754 -0.0934
16770TIP3   OH271800   5.935   3.501   5.244 -0.0236  0.3084 -0.3604
16770TIP3    H171801   5.877   3.573   5.267  1.7325  1.7729 -0.2209
16770TIP3    H271802   5.912   3.479   5.154 -0.6806  0.9599 -0.3584
16771TIP3   OH271803   5.329   2.907   4.901  0.0937  0.0659  0.0136
16771TIP3    H171804   5.305   2.991   4.939 -0.4373 -0.3169  0.5432
16771TIP3    H271805   5.251   2.881   4.851  0.1313 -0.2624  0.1249
16772TIP3   OH271806   0.305   1.064  11.084  0.9701 -0.3523 -0.0190
16772TIP3    H171807   0.389   1.087  11.124  1.9712 -0.3524 -2.0093
16772TIP3    H271808   0.328   1.014  11.006 -0.8798 -0.1157 -0.7673
16773TIP3   OH271809   5.817   6.815   5.480  0.0983 -0.3973  0.6496
16773TIP3    H171810   5.780   6.884   5.424  0.9109  0.0758  0.6774
16773TIP3    H271811   5.864   6.863   5.549 -0.0890 -0.9821  1.1845
16774TIP3   OH271812   0.605   1.561   6.247  0.6434 -0.7235 -0.3120
16774TIP3    H171813   0.668   1.619   6.290  1.5776 -1.2762 -0.8922
16774TIP3    H271814   0.608   1.480   6.298  0.2948 -0.7084 -0.2637
16775TIP3   OH271815   5.195   0.817   3.304  0.4835  0.3879  0.4081
16775TIP3    H171816   5.211   0.869   3.383 -0.7431 -0.8527  1.5244
16775TIP3    H271817   5.104   0.835   3.281  0.8118  0.6986 -0.7254
16776TIP3   OH271818   0.717   6.163  15.187 -0.8076  0.6176 -0.2623
16776TIP3    H171819   0.735   6.102  15.259  0.7330  1.4617  0.1056
16776TIP3    H271820   0.714   6.249  15.229 -0.5587  1.0478 -1.1062
16777TIP3   OH271821   4.512   1.997  12.984  0.3285 -0.3513 -0.2052
16777TIP3    H171822   4.576   1.930  13.008 -1.2992 -1.7295  0.5457
16777TIP3    H271823   4.478   1.969  12.899 -0.4529 -0.5688  0.1697
16778TIP3   OH271824   0.442   2.022   2.304  1.0006  0.1144  0.5407
16778TIP3    H171825   0.447   1.983   2.391  0.6070  0.6933  0.8272
16778TIP3    H271826   0.427   2.115   2.320  1.0035  0.2374 -0.1443
16779TIP3   OH271827   0.146   4.814   2.000 -0.4264  0.2258  0.7803
16779TIP3    H171828   0.099   4.876   1.944  0.0449 -0.3989 -0.3364
16779TIP3    H271829   0.090   4.805   2.077 -0.2053  2.5383  1.3071
16780TIP3   OH271830   4.886   5.815  12.207 -0.1527 -0.6731  0.3449
16780TIP3    H171831   4.853   5.773  12.128 -0.1381  1.5835 -0.9409
16780TIP3    H271832   4.812   5.863  12.242  0.6732  1.1116 -0.2640
16781TIP3   OH271833   3.984   2.409   1.508  0.2390  0.0273  0.1328
16781TIP3    H171834   3.975   2.465   1.430  0.0445  0.3407  0.3799
16781TIP3    H271835   4.043   2.339   1.480 -0.7388 -0.5037 -0.6591
16782TIP3   OH271836   5.899   2.345  13.232  0.7848  0.6077 -0.0165
16782TIP3    H171837   5.914   2.257  13.268  0.4047  0.4359 -0.2727
16782TIP3    H271838   5.943   2.343  13.147 -0.3795  0.2083 -0.6280
16783TIP3   OH271839   1.251   2.761   4.896  0.2767 -0.3337 -0.4262
16783TIP3    H171840   1.189   2.814   4.946  1.2794 -0.1712  0.7039
16783TIP3    H271841   1.270   2.687   4.953 -0.1445 -1.2799 -1.4712
16784TIP3   OH271842   6.339   6.700   3.277  1.0936  0.0485  0.2433
16784TIP3    H171843   6.261   6.732   3.322  0.8714  0.4057 -0.3855
16784TIP3    H271844   6.340   6.748   3.194  2.3251  0.5150  0.5081
16785TIP3   OH271845   1.520   2.311   1.979  0.0387 -0.6349  0.3014
16785TIP3    H171846   1.540   2.394   2.023  0.9303 -1.6010  1.8213
16785TIP3    H271847   1.606   2.273   1.960 -0.3198 -0.2368 -2.4167
16786TIP3   OH271848   5.055   1.335   5.533  0.6971  0.3541  0.0103
16786TIP3    H171849   5.052   1.264   5.469 -0.2897  0.2187  0.1891
16786TIP3    H271850   4.992   1.399   5.499  1.0737  0.8309  0.2112
16787TIP3   OH271851   6.733   3.974  13.674  0.2970 -0.1928 -0.0589
16787TIP3    H171852   6.655   3.922  13.654  0.6785 -1.1149  0.7840
16787TIP3    H271853   6.735   4.040  13.604 -0.3204 -1.1574 -1.0388
16788TIP3   OH271854   0.294   3.529  17.018  0.3700 -0.0059 -0.6002
16788TIP3    H171855   0.381   3.493  16.999  0.7032  0.3879  0.1447
16788TIP3    H271856   0.310   3.596  17.085 -0.0447  2.5746 -2.9276
16789TIP3   OH271857   1.901   1.238   6.202 -0.3000  0.2608 -0.1904
16789TIP3    H171858   1.936   1.149   6.207 -2.3957 -0.6191 -0.1106
16789TIP3    H271859   1.979   1.294   6.200  1.0758 -1.5217  0.3199
16790TIP3   OH271860   4.945   3.009  12.954 -0.4678 -0.0210 -0.3487
16790TIP3    H171861   4.983   2.926  12.926 -0.3285  0.7623 -2.7164
16790TIP3    H271862   4.854   3.005  12.923 -0.4268  0.7552 -0.5744
16791TIP3   OH271863   0.002   6.263   4.463  0.5411  0.8483  0.1493
16791TIP3    H171864  -0.062   6.305   4.519 -0.5535 -0.2522 -0.2449
16791TIP3    H271865   0.086   6.275   4.508  0.2145  3.0035  0.2714
16792TIP3   OH271866   2.009   0.953  11.111 -0.3120 -0.5231  0.0322
16792TIP3    H171867   1.968   0.985  11.030 -0.9192 -1.6327 -0.1209
16792TIP3    H271868   2.072   0.887  11.082  0.8132  0.3714  0.3547
16793TIP3   OH271869   1.314   4.719  14.333 -0.3549  0.1553 -0.1258
16793TIP3    H171870   1.335   4.729  14.425 -0.2017  0.4091 -0.1874
16793TIP3    H271871   1.265   4.798  14.310 -0.9636 -0.2051 -0.1017
16794TIP3   OH271872   2.189   6.049   1.909 -0.5300 -0.5777 -0.2325
16794TIP3    H171873   2.205   5.954   1.910  0.7477 -0.3764  1.2251
16794TIP3    H271874   2.215   6.076   1.821 -0.3332 -1.4820 -0.4661
16795TIP3   OH271875   6.650   1.837   3.599 -0.1007 -0.0945  0.1073
16795TIP3    H171876   6.734   1.882   3.585 -0.5187  0.4518 -0.7254
16795TIP3    H271877   6.646   1.823   3.694  1.6854 -1.6404  0.0050
16796TIP3   OH271878   5.234   5.197   5.093 -0.6106 -0.5913 -0.0936
16796TIP3    H171879   5.271   5.181   5.006 -1.1054 -1.0664 -0.2251
16796TIP3    H271880   5.261   5.121   5.145 -1.7317 -1.1539 -0.3075
16797TIP3   OH271881   1.932   6.692  14.263 -0.8262 -0.1337  0.5260
16797TIP3    H171882   1.866   6.649  14.317  0.0821 -1.3108  0.7406
16797TIP3    H271883   1.988   6.738  14.326 -0.2951 -0.7628  0.5186
16798TIP3   OH271884   5.713   1.233   2.032  0.1390  0.1501  0.7273
16798TIP3    H171885   5.728   1.249   2.125  0.3729  0.8859  0.5706
16798TIP3    H271886   5.618   1.219   2.025  0.3929 -2.5366  1.4308
16799TIP3   OH271887   5.637   0.716   0.248  0.6845  0.0480  0.1250
16799TIP3    H171888   5.569   0.742   0.310  0.3577 -1.6818  0.5321
16799TIP3    H271889   5.628   0.778   0.176  1.1282  2.1683  1.7888
16800TIP3   OH271890   0.451   0.098  14.872  0.0954  0.3352 -0.2077
16800TIP3    H171891   0.359   0.092  14.846  0.6376 -1.4700 -2.0497
16800TIP3    H271892   0.456   0.051  14.955 -0.4258 -1.1474 -0.9664
16801TIP3   OH271893   5.374   3.140  14.260  0.0812 -0.1613  0.5245
16801TIP3    H171894   5.458   3.148  14.305  0.6265 -0.8452 -0.3570
16801TIP3    H271895   5.314   3.109  14.328  0.5622  0.1913  1.1253
16802TIP3   OH271896   1.211   2.693  15.748  0.1148  0.4474  0.1499
16802TIP3    H171897   1.116   2.701  15.749  0.0870  0.4001 -0.9035
16802TIP3    H271898   1.237   2.705  15.839 -0.8497  1.0428  0.3632
16803TIP3   OH271899   2.749   1.127  16.205  0.2148 -0.2974  0.1997
16803TIP3    H171900   2.694   1.089  16.273  1.2928 -0.0397  1.2606
16803TIP3    H271901   2.817   1.062  16.189 -0.0735 -0.3912 -0.7144
16804TIP3   OH271902   6.342   3.456   3.680  0.2547  0.4689  0.3768
16804TIP3    H171903   6.320   3.418   3.595  1.3166 -1.3182  0.8468
16804TIP3    H271904   6.307   3.395   3.744  0.1628  1.3830  1.2175
16805TIP3   OH271905   0.917   6.484   1.786 -0.5170  0.2260 -0.8597
16805TIP3    H171906   0.837   6.449   1.825 -0.3176 -0.7818 -1.3349
16805TIP3    H271907   0.984   6.473   1.854 -1.1595  2.9972  0.3662
16806TIP3   OH271908   1.482   5.575   0.695  0.6085 -0.4256  0.6483
16806TIP3    H171909   1.470   5.537   0.782 -0.2789 -1.0240  0.2846
16806TIP3    H271910   1.426   5.522   0.638  1.8599 -0.6147 -0.4437
16807TIP3   OH271911   2.859   3.823  11.693  0.0390 -0.3898  0.2873
16807TIP3    H171912   2.895   3.775  11.619  0.6905  0.8546 -0.2227
16807TIP3    H271913   2.769   3.843  11.667  0.2365 -0.0390 -0.1191
16808TIP3   OH271914   2.635   6.289   0.226  0.1753 -0.2146 -0.3341
16808TIP3    H171915   2.575   6.305   0.152 -2.2755  1.8286  1.9010
16808TIP3    H271916   2.650   6.376   0.264 -1.1717 -1.4121  3.3379
16809TIP3   OH271917   1.318   0.157   0.613  0.2169  0.2209  0.0140
16809TIP3    H171918   1.395   0.212   0.616  0.6295 -0.3817  1.4268
16809TIP3    H271919   1.347   0.077   0.570  0.5823 -0.2611  1.1184
16810TIP3   OH271920   2.191   6.091  10.515  0.6278  0.5102  0.5841
16810TIP3    H171921   2.099   6.105  10.534  0.5165  1.0262 -0.2736
16810TIP3    H271922   2.215   6.165  10.459  0.7419 -1.2654 -1.8472
16811TIP3   OH271923   1.347   3.041   3.077  0.1984 -0.3696  0.1827
16811TIP3    H171924   1.294   3.120   3.087  0.8555  0.2071 -0.7315
16811TIP3    H271925   1.375   3.019   3.166  1.3963  1.4165  0.2915
16812TIP3   OH271926   1.003   4.214  14.204 -0.0094 -0.5876 -0.1354
16812TIP3    H171927   1.038   4.193  14.117 -0.4473  2.0747 -1.0337
16812TIP3    H271928   0.976   4.305  14.198 -0.5990 -0.4870  2.6612
16813TIP3   OH271929   4.134   6.830   5.327  0.6427 -0.3676 -0.4603
16813TIP3    H171930   4.129   6.858   5.419  0.0907  0.6160 -0.7757
16813TIP3    H271931   4.053   6.862   5.288  1.2271 -0.0959 -1.4792
16814TIP3   OH271932   3.789   3.777   5.843  0.2656 -0.6858  0.5220
16814TIP3    H171933   3.867   3.790   5.896  0.1115 -0.3033  0.6577
16814TIP3    H271934   3.801   3.836   5.769  0.1953 -0.7731  0.4405
16815TIP3   OH271935   2.344   3.661  16.319 -0.7203 -0.5004 -0.3375
16815TIP3    H171936   2.311   3.591  16.376  1.3673  1.6494  3.9785
16815TIP3    H271937   2.318   3.742  16.362  0.4681  1.3662 -2.8729
16816TIP3   OH271938   1.737   0.830  11.457  0.3978  0.0980  0.7870
16816TIP3    H171939   1.672   0.887  11.498 -1.4004  0.5324 -2.3878
16816TIP3    H271940   1.817   0.846  11.506 -0.6193  3.5323  1.5803
16817TIP3   OH271941   4.878   3.609  11.765 -0.2496  0.2855 -0.1642
16817TIP3    H171942   4.818   3.673  11.802 -0.2348  0.1649  0.0747
16817TIP3    H271943   4.873   3.534  11.825  0.4490  0.4354  0.1047
16818TIP3   OH271944   6.700   1.847   3.899  0.3416 -0.3614 -0.0607
16818TIP3    H171945   6.779   1.794   3.902  1.4893  1.0166 -2.4601
16818TIP3    H271946   6.729   1.936   3.921 -0.7677 -0.0255  0.1430
16819TIP3   OH271947   5.193   3.342  14.175 -0.2537 -0.3951  0.4363
16819TIP3    H171948   5.279   3.301  14.177  0.2939  0.7499  1.6668
16819TIP3    H271949   5.141   3.293  14.239  0.1582  0.2796  1.3076
16820TIP3   OH271950   0.185   2.857   2.557 -0.3497  0.3236 -0.0370
16820TIP3    H171951   0.096   2.888   2.539 -0.3879  1.8052  2.2906
16820TIP3    H271952   0.241   2.929   2.530 -0.1027  0.6444  1.2831
16821TIP3   OH271953   1.472   4.030   0.254 -0.7087 -0.3947  0.2359
16821TIP3    H171954   1.440   3.949   0.294 -0.0664 -1.5562 -1.5259
16821TIP3    H271955   1.404   4.054   0.191 -1.6402  1.3505  1.7845
16822TIP3   OH271956   5.731   1.793  15.613 -0.0630 -0.2234  0.5164
16822TIP3    H171957   5.812   1.770  15.658 -0.1279 -1.9034 -0.1700
16822TIP3    H271958   5.669   1.812  15.683  0.8703  0.9759  1.0476
16823TIP3   OH271959   0.585   6.451   5.296  0.4162 -0.4180 -0.0935
16823TIP3    H171960   0.574   6.529   5.242  0.2130 -1.2700 -1.3343
16823TIP3    H271961   0.502   6.441   5.342 -0.2468 -0.9182 -1.3469
16824TIP3   OH271962   1.992   1.196   2.246  0.2842 -0.3760  0.0469
16824TIP3    H171963   1.933   1.123   2.258 -2.1856  1.4751 -0.0454
16824TIP3    H271964   1.981   1.222   2.155 -1.8916  2.3814  0.9539
16825TIP3   OH271965   5.981   5.362   5.547 -0.0033 -0.2769 -0.0106
16825TIP3    H171966   5.899   5.345   5.594 -0.6337  1.0592 -0.5723
16825TIP3    H271967   5.955   5.417   5.473  1.3880  0.0434 -0.2872
16826TIP3   OH271968   2.736   0.366  11.043  0.1228  0.0178 -0.0238
16826TIP3    H171969   2.824   0.331  11.031  0.0779 -0.4612  0.9405
16826TIP3    H271970   2.742   0.456  11.010  0.7216 -0.3047 -0.8268
16827TIP3   OH271971   5.193   1.221   6.054 -0.3304 -0.2170 -0.0271
16827TIP3    H171972   5.268   1.168   6.082  0.7610  0.9989 -0.5130
16827TIP3    H271973   5.124   1.201   6.118  0.8432 -0.3873  1.2331
16828TIP3   OH271974   1.870   1.246  13.653 -0.0586 -0.3921 -0.5355
16828TIP3    H171975   1.875   1.175  13.588  0.3130  0.5078 -1.5259
16828TIP3    H271976   1.805   1.216  13.716 -0.1983 -1.4406 -1.1484
16829TIP3   OH271977   3.461   1.625  12.888 -0.0554  0.1978 -0.2600
16829TIP3    H171978   3.508   1.707  12.874 -1.0710  1.3458  2.2969
16829TIP3    H271979   3.522   1.557  12.860  1.8774  1.7269  0.0154
16830TIP3   OH271980   0.193   4.482   4.821  0.0527  0.3034 -0.5400
16830TIP3    H171981   0.226   4.479   4.731 -1.9201  0.6572 -1.3348
16830TIP3    H271982   0.148   4.567   4.827  0.4462  0.4343  0.9041
16831TIP3   OH271983   5.330   4.845   4.782 -0.1380 -0.0548 -0.0315
16831TIP3    H171984   5.251   4.792   4.779 -1.1931  1.3923  0.9147
16831TIP3    H271985   5.300   4.933   4.804  1.7856  0.3757  1.1966
16832TIP3   OH271986   6.409   4.144  12.117  0.1812 -0.1298 -0.2596
16832TIP3    H171987   6.348   4.192  12.173  0.9527 -0.0058  0.4929
16832TIP3    H271988   6.479   4.116  12.176 -0.4661 -2.6136 -0.5598
16833TIP3   OH271989   5.866   4.231   2.947 -0.3879 -0.5690 -0.2007
16833TIP3    H171990   5.936   4.167   2.932 -0.4225 -0.9036  0.9231
16833TIP3    H271991   5.804   4.216   2.876  0.8860  0.0406 -1.4773
16834TIP3   OH271992   0.007   4.732   3.474  0.3418  0.9215  0.1378
16834TIP3    H171993  -0.043   4.668   3.524  0.3876 -0.5426 -1.5993
16834TIP3    H271994  -0.007   4.708   3.383  0.3523  3.4204 -0.6071
16835TIP3   OH271995   2.621   2.011  13.380 -0.6124  0.0174 -0.5429
16835TIP3    H171996   2.646   1.964  13.459  1.3101  1.8785  0.0396
16835TIP3    H271997   2.566   1.949  13.332 -2.7008 -0.8761  2.6355
16836TIP3   OH271998   2.856   6.815   5.931  0.1126 -0.1789  0.0871
16836TIP3    H171999   2.819   6.773   6.009 -2.7258 -1.8200 -1.9731
16836TIP3    H272000   2.785   6.871   5.899  0.8574 -0.2796 -1.8141
16837TIP3   OH272001   2.826   2.332  11.662  0.1899  0.5213 -0.2365
16837TIP3    H172002   2.822   2.248  11.615  0.1910 -1.0506  2.3781
16837TIP3    H272003   2.754   2.383  11.625 -1.6326 -1.7296 -0.0174
16838TIP3   OH272004   6.798   1.096   2.769 -0.3514 -0.0455  0.0174
16838TIP3    H172005   6.874   1.126   2.719  0.1074 -0.4262  0.4780
16838TIP3    H272006   6.754   1.034   2.712  0.0701 -0.3399  0.0089
16839TIP3   OH272007   3.913   1.320  12.843  0.4002  0.0955 -0.2976
16839TIP3    H172008   3.954   1.385  12.786  0.7695  0.2242  0.1077
16839TIP3    H272009   3.928   1.236  12.799  0.5667  0.2095 -0.4591
16840TIP3   OH272010   1.641   4.836  11.045 -0.1127  0.0065  0.2135
16840TIP3    H172011   1.648   4.820  10.951  2.3401 -0.9190  0.4607
16840TIP3    H272012   1.672   4.926  11.057  0.4438 -0.1750  0.1903
16841TIP3   OH272013   1.827   4.893  16.680  0.5081  0.9387  0.8290
16841TIP3    H172014   1.770   4.967  16.657  0.8136  1.4144  1.5712
16841TIP3    H272015   1.811   4.829  16.611 -0.0839  1.5232  0.4043
16842TIP3   OH272016   2.360   2.420   5.590 -0.2748 -0.0225  0.4898
16842TIP3    H172017   2.380   2.337   5.633 -2.3574 -0.7551  0.1545
16842TIP3    H272018   2.406   2.416   5.507  0.4246 -0.4048  0.8891
16843TIP3   OH272019   1.419   3.178  12.008 -0.1520 -0.0919 -0.1519
16843TIP3    H172020   1.486   3.124  11.966  2.1211  1.3447  1.4036
16843TIP3    H272021   1.385   3.233  11.937  0.0263 -1.1107 -1.0515
16844TIP3   OH272022   4.219   3.367   5.756 -0.2094  0.3240  0.8568
16844TIP3    H172023   4.155   3.414   5.703  0.1926 -1.1863 -1.0641
16844TIP3    H272024   4.172   3.347   5.837 -1.0449  2.1429  0.8713
16845TIP3   OH272025   1.394   3.491   0.396 -0.1665  0.0212 -0.2027
16845TIP3    H172026   1.412   3.542   0.475  0.1896 -0.8773  0.3135
16845TIP3    H272027   1.474   3.499   0.343  0.7703 -1.7343  0.8567
16846TIP3   OH272028   2.864   5.852   3.878 -0.2735 -0.2353  0.4778
16846TIP3    H172029   2.873   5.933   3.828 -0.9104  0.2842  1.1865
16846TIP3    H272030   2.950   5.811   3.872  0.0473  0.4787  0.0844
16847TIP3   OH272031   4.996   0.030  15.523  0.1642 -0.0815  0.2818
16847TIP3    H172032   4.986   0.042  15.617 -0.8735 -1.5777  0.3967
16847TIP3    H272033   4.906   0.017  15.491  0.5399  0.0477 -0.8600
16848TIP3   OH272034   5.379   4.662  13.609 -0.2522  0.6149 -0.0718
16848TIP3    H172035   5.361   4.653  13.516 -1.1901  0.9910  0.0619
16848TIP3    H272036   5.454   4.721  13.614  0.6798 -0.4816 -0.6213
16849TIP3   OH272037   4.672   1.754  13.371  0.1581  0.1761  0.2449
16849TIP3    H172038   4.748   1.812  13.374  0.0017  0.4236 -0.3986
16849TIP3    H272039   4.673   1.717  13.283  0.4376 -1.0611  0.7494
16850TIP3   OH272040   5.650   1.610   1.651 -0.3466  0.1852 -0.3043
16850TIP3    H172041   5.642   1.531   1.598 -1.1349  0.1935 -0.2131
16850TIP3    H272042   5.561   1.626   1.684  0.2343 -0.1956  1.5670
16851TIP3   OH272043   6.373   1.913  11.252 -0.1171  0.0880  0.6598
16851TIP3    H172044   6.291   1.960  11.266  0.0605  0.4570  0.4579
16851TIP3    H272045   6.346   1.826  11.223 -0.4428  0.0997  0.9203
16852TIP3   OH272046   3.841   6.000  17.069 -0.0234  0.2050 -0.2940
16852TIP3    H172047   3.777   5.942  17.110 -0.3686  0.6077 -0.2473
16852TIP3    H272048   3.836   5.980  16.975  0.2294 -0.1933 -0.2267
16853TIP3   OH272049   0.303   3.056  14.693 -0.0756  0.9152 -0.5966
16853TIP3    H172050   0.316   3.055  14.598  1.7383  1.2766 -0.3993
16853TIP3    H272051   0.385   3.094  14.728 -1.0934  1.7248  1.0489
16854TIP3   OH272052   2.721   4.709   1.465  0.0688 -0.6548  1.1712
16854TIP3    H172053   2.715   4.804   1.473 -0.0703 -0.1610 -2.6034
16854TIP3    H272054   2.633   4.677   1.485  0.1429 -0.0438  2.5762
16855TIP3   OH272055   2.762   2.569  13.195 -0.0939 -0.1413  0.0605
16855TIP3    H172056   2.779   2.484  13.155 -1.1786 -0.6761  0.6767
16855TIP3    H272057   2.672   2.589  13.172 -0.2861  0.1923  1.0379
16856TIP3   OH272058   3.458   4.648  15.259 -1.0478 -0.5604  0.7884
16856TIP3    H172059   3.493   4.737  15.264  2.0032 -1.5510 -0.5940
16856TIP3    H272060   3.480   4.609  15.344  0.6490 -0.9368  0.2083
16857TIP3   OH272061   0.162   0.534   4.347 -0.0801  0.3963  0.0643
16857TIP3    H172062   0.121   0.447   4.353 -2.3402  1.4133  0.0913
16857TIP3    H272063   0.180   0.545   4.254  0.6391 -0.2549  0.1107
16858TIP3   OH272064   0.129   2.057  16.715  0.4063 -0.6125  0.1835
16858TIP3    H172065   0.222   2.076  16.702  0.5759 -2.1476 -1.0960
16858TIP3    H272066   0.123   2.023  16.805  1.1934 -1.1193  0.0497
16859TIP3   OH272067   0.462   4.753   3.713  0.3247 -0.3289 -0.1162
16859TIP3    H172068   0.503   4.694   3.777  1.3244 -0.3089 -0.7215
16859TIP3    H272069   0.379   4.778   3.754  0.3126 -1.4101  0.5638
16860TIP3   OH272070   1.086   1.586  15.422 -0.3051  0.4514  0.3322
16860TIP3    H172071   1.166   1.541  15.450 -1.4823 -3.0034 -1.2026
16860TIP3    H272072   1.040   1.605  15.504  0.7723 -0.2544  1.1367
16861TIP3   OH272073   4.301   2.398   1.606 -0.5722 -0.2958  0.5664
16861TIP3    H172074   4.322   2.389   1.699 -1.9129 -0.2328  0.8989
16861TIP3    H272075   4.306   2.308   1.572  1.0273 -0.1746  0.4264
16862TIP3   OH272076   1.078   1.160  13.216 -0.5107 -0.9036  0.4701
16862TIP3    H172077   1.112   1.079  13.256 -0.6337 -0.3625  1.7093
16862TIP3    H272078   1.026   1.201  13.285 -0.5951  0.1603 -0.2049
16863TIP3   OH272079   0.163   0.047  11.229  0.1588 -0.1812  0.2325
16863TIP3    H172080   0.175  -0.022  11.164  0.4830  0.6997 -0.6582
16863TIP3    H272081   0.246   0.093  11.231  0.5398 -0.8625  2.1000
16864TIP3   OH272082   1.614   3.753   6.499  0.6032  0.5115  0.5536
16864TIP3    H172083   1.525   3.786   6.489  1.0341  2.6381  2.8206
16864TIP3    H272084   1.653   3.762   6.412 -1.4851 -1.0559 -0.6597
16865TIP3   OH272085   4.418   0.696  11.425 -0.1328 -0.1905 -0.3201
16865TIP3    H172086   4.480   0.767  11.441 -1.4702  0.9151  0.1651
16865TIP3    H272087   4.473   0.619  11.410  1.3447  0.7461  0.0576
16866TIP3   OH272088   0.966   1.382   4.415 -0.2409  0.2367 -0.4798
16866TIP3    H172089   0.885   1.372   4.365 -0.5419 -0.8687  0.1941
16866TIP3    H272090   1.020   1.307   4.389 -0.4643 -0.4507  0.9340
16867TIP3   OH272091   1.734   1.490   2.665  0.0439 -0.5705  0.1096
16867TIP3    H172092   1.712   1.400   2.688 -2.4698 -0.2573 -0.7580
16867TIP3    H272093   1.710   1.499   2.573 -0.6452  1.2031  0.4075
16868TIP3   OH272094   0.435   5.129   3.689 -0.5643 -0.0725  0.1080
16868TIP3    H172095   0.477   5.137   3.604 -1.8265 -2.3240 -0.8240
16868TIP3    H272096   0.505   5.102   3.748 -0.1708 -1.2205 -0.8505
16869TIP3   OH272097   3.793   3.774   0.437 -0.5346 -0.3048  0.4340
16869TIP3    H172098   3.753   3.725   0.509 -2.7649  0.6911 -0.0475
16869TIP3    H272099   3.884   3.786   0.464 -1.4372  0.5970  3.4286
16870TIP3   OH272100   4.391   1.864  16.382 -1.1468 -0.1391 -0.3777
16870TIP3    H172101   4.456   1.934  16.373 -1.7509  0.3953 -0.6980
16870TIP3    H272102   4.308   1.910  16.389 -1.4747 -0.8073  0.2695
16871TIP3   OH272103   5.810   4.177   4.474 -0.1069  0.5494  0.4930
16871TIP3    H172104   5.731   4.133   4.442 -0.7980  1.3532  1.0047
16871TIP3    H272105   5.875   4.108   4.483 -0.7299 -0.1190 -0.0269
16872TIP3   OH272106   0.446   5.219  15.498 -0.1795 -0.2209 -0.0449
16872TIP3    H172107   0.355   5.238  15.475 -0.0983  1.9382  1.1263
16872TIP3    H272108   0.440   5.158  15.572 -0.5122 -3.3144 -2.4430
16873TIP3   OH272109   5.959   0.484  16.376  0.4243 -0.8034  0.2158
16873TIP3    H172110   5.988   0.397  16.402 -1.1831 -1.9880 -1.6993
16873TIP3    H272111   5.885   0.504  16.433  0.6906 -0.7438  0.5440
16874TIP3   OH272112   1.129   4.346  11.538 -0.1904 -0.3223 -0.0143
16874TIP3    H172113   1.063   4.366  11.605  0.1107  1.8941 -0.3258
16874TIP3    H272114   1.081   4.345  11.456  0.0612  0.8890 -0.1934
16875TIP3   OH272115   1.318   5.903   6.062  0.4099  0.3425  0.4358
16875TIP3    H172116   1.386   5.961   6.029  1.9579 -1.1691  0.7888
16875TIP3    H272117   1.278   5.950   6.134  1.2960  1.1517  0.4121
16876TIP3   OH272118   5.424   3.955   4.589  0.3307 -0.2372 -0.6176
16876TIP3    H172119   5.452   3.878   4.638 -1.1422  0.6870  1.8368
16876TIP3    H272120   5.331   3.938   4.571  0.3967  0.2731 -1.4854
16877TIP3   OH272121   5.752   1.818   3.367 -0.7556  0.3035  0.0124
16877TIP3    H172122   5.789   1.764   3.297  4.4659  0.9200  1.8350
16877TIP3    H272123   5.714   1.893   3.322 -0.6877 -0.9256 -2.2373
16878TIP3   OH272124   2.017   6.117   3.137 -0.0852 -0.8248 -0.0497
16878TIP3    H172125   2.047   6.083   3.222 -0.4667 -0.8476  0.0786
16878TIP3    H272126   2.057   6.058   3.073 -2.0800 -2.6392  0.2281
16879TIP3   OH272127   0.351   6.413   2.128  0.4162 -0.2225  0.2594
16879TIP3    H172128   0.395   6.339   2.086 -0.3182 -1.9668  2.3183
16879TIP3    H272129   0.376   6.406   2.220 -0.5829  1.4476  0.6936
16880TIP3   OH272130   0.438   3.695   0.047  0.5251  0.4223  0.0482
16880TIP3    H172131   0.420   3.787   0.065  1.4181  0.6427 -0.1660
16880TIP3    H272132   0.502   3.696  -0.024 -1.2137 -0.4033 -1.6107
16881TIP3   OH272133   2.412   5.680   2.408 -0.7599  0.2061 -0.6901
16881TIP3    H172134   2.319   5.674   2.428 -0.5064 -1.2391  0.1427
16881TIP3    H272135   2.415   5.729   2.325 -2.0951  2.4437  0.4767
16882TIP3   OH272136   1.429   3.093  13.162 -0.1328 -0.0309  0.1264
16882TIP3    H172137   1.520   3.064  13.170 -0.2139 -0.8162 -1.5047
16882TIP3    H272138   1.427   3.148  13.084 -1.1243 -0.3076 -0.0603
16883TIP3   OH272139   2.781   0.892   1.944 -0.1042 -0.1322  0.1571
16883TIP3    H172140   2.834   0.814   1.960 -0.4216 -0.6064 -0.9811
16883TIP3    H272141   2.791   0.909   1.850 -1.1922  0.3422  0.1093
16884TIP3   OH272142   4.100   0.554   4.605  0.3292 -0.3002 -0.0215
16884TIP3    H172143   4.152   0.479   4.575  1.6590  0.3776  0.5337
16884TIP3    H272144   4.164   0.623   4.621 -0.8807  1.0096 -0.6125
16885TIP3   OH272145   5.188   4.091  11.865  0.8197  0.0314 -0.2222
16885TIP3    H172146   5.241   4.102  11.943 -0.2246 -0.9756  0.6709
16885TIP3    H272147   5.144   4.176  11.853 -0.0955 -0.2141  1.1379
16886TIP3   OH272148   1.178   6.661  12.036 -0.0930  0.3592  0.1931
16886TIP3    H172149   1.181   6.755  12.021  0.4088  0.0086 -2.2487
16886TIP3    H272150   1.150   6.624  11.953 -0.1703 -1.6808  1.0664
16887TIP3   OH272151   4.195   4.144  13.091  0.5759 -0.1058  0.1536
16887TIP3    H172152   4.196   4.162  12.997  0.3935 -1.0392 -0.0325
16887TIP3    H272153   4.209   4.050  13.098  0.3628 -0.0800  1.0568
16888TIP3   OH272154   0.764   1.306   4.261  0.0158 -0.1305  0.9079
16888TIP3    H172155   0.677   1.286   4.297  1.0909 -1.1436  3.0560
16888TIP3    H272156   0.782   1.232   4.203 -0.4148 -0.0592  0.6717
16889TIP3   OH272157   4.352   2.847   0.062 -0.5144  0.5352  0.3543
16889TIP3    H172158   4.415   2.919   0.063 -0.6142  0.6817 -1.0205
16889TIP3    H272159   4.404   2.769   0.079  0.0394  0.6654 -0.6669
16890TIP3   OH272160   1.414   1.692  16.801  0.0074  0.0613 -0.3153
16890TIP3    H172161   1.467   1.613  16.795 -0.4607 -0.4816  1.7270
16890TIP3    H272162   1.438   1.731  16.886 -1.5727  0.7114 -0.1269
16891TIP3   OH272163   5.637   5.259   3.902  0.2255 -0.1689 -0.9215
16891TIP3    H172164   5.637   5.303   3.818  0.5602 -1.1757 -1.4695
16891TIP3    H272165   5.581   5.312   3.958 -0.2733  0.3234 -1.8815
16892TIP3   OH272166   5.332   2.731   1.520  0.1876  0.2508 -0.4676
16892TIP3    H172167   5.340   2.648   1.474  1.7821  0.5469 -0.8025
16892TIP3    H272168   5.376   2.794   1.464 -1.5245  1.4700 -0.5043
16893TIP3   OH272169   5.880   4.906   2.563 -0.0771 -0.2022 -0.0106
16893TIP3    H172170   5.854   4.902   2.470 -0.7979 -0.7100  0.1967
16893TIP3    H272171   5.836   4.984   2.596 -1.1073 -0.8592  0.2507
16894TIP3   OH272172   1.991   1.396   1.276  0.6103  0.1950 -0.3132
16894TIP3    H172173   2.004   1.359   1.189  2.7048 -0.9693  0.4395
16894TIP3    H272174   1.976   1.490   1.260  0.4180 -0.0887 -1.9305
16895TIP3   OH272175   6.034   4.764  17.041 -0.2079  0.3508  0.0685
16895TIP3    H172176   6.029   4.798  16.951 -1.2363  1.4692  0.5229
16895TIP3    H272177   6.037   4.669  17.030  1.7995  0.4883 -1.2118
16896TIP3   OH272178   4.823   0.068   6.048  0.3358 -0.2801  0.1044
16896TIP3    H172179   4.848   0.160   6.038  0.3300 -0.3815 -0.8949
16896TIP3    H272180   4.796   0.061   6.140  1.8923  0.3188  0.6442
16897TIP3   OH272181   2.476   4.535   4.981  0.0357  0.0712  0.2234
16897TIP3    H172182   2.558   4.559   5.023  0.5878  0.2645 -0.9256
16897TIP3    H272183   2.502   4.482   4.905 -1.0092 -1.6276  0.9851
16898TIP3   OH272184   3.246   4.446  12.882 -0.0087  0.2698 -0.2282
16898TIP3    H172185   3.195   4.375  12.842  0.4926 -1.4536  1.9777
16898TIP3    H272186   3.311   4.469  12.816 -0.4572 -1.0517 -1.1691
16899TIP3   OH272187   1.214   6.343   2.902 -0.4246  0.1070 -0.1921
16899TIP3    H172188   1.269   6.300   2.837  0.2735  1.2480 -0.3687
16899TIP3    H272189   1.229   6.436   2.889  0.1477  0.3697  1.9514
16900TIP3   OH272190   6.496   5.193  15.199 -0.2797  0.3098 -0.5173
16900TIP3    H172191   6.474   5.228  15.285 -0.0401 -1.1760  0.1756
16900TIP3    H272192   6.424   5.133  15.179  0.5462 -0.7020 -0.5371
16901TIP3   OH272193   6.431   3.581  15.041  0.7292  0.3406  0.1401
16901TIP3    H172194   6.438   3.656  14.982  1.6432  1.2639  1.3889
16901TIP3    H272195   6.493   3.517  15.006  0.0035  0.1690 -0.8795
16902TIP3   OH272196   2.330   6.259   1.998  0.0023 -0.3856  0.3528
16902TIP3    H172197   2.271   6.286   2.068  0.3409  0.8279  0.1906
16902TIP3    H272198   2.283   6.190   1.952 -1.0376  0.1413  0.5963
16903TIP3   OH272199   3.406   0.690   3.388  0.1106  0.8864  0.0855
16903TIP3    H172200   3.394   0.716   3.296  1.1970 -0.5314 -0.4953
16903TIP3    H272201   3.429   0.772   3.432 -0.2968  1.5775 -0.9216
16904TIP3   OH272202   1.294   5.663  13.851  0.2172  0.1449 -0.1142
16904TIP3    H172203   1.208   5.704  13.860  0.2561  0.6129 -1.6510
16904TIP3    H272204   1.302   5.607  13.929 -1.4409  0.1370  0.0838
16905TIP3   OH272205   1.943   6.525  10.499  0.2984 -0.1193 -0.1010
16905TIP3    H172206   1.960   6.463  10.571 -1.8217  1.9299  2.3989
16905TIP3    H272207   1.853   6.508  10.474  0.4567  0.3943 -1.0445
16906TIP3   OH272208   4.794   4.288  13.908  0.5790  0.4693  0.3910
16906TIP3    H172209   4.742   4.364  13.882 -1.1940 -0.2931  1.5309
16906TIP3    H272210   4.737   4.213  13.889  2.0564 -0.5594 -0.1703
16907TIP3   OH272211   6.284   0.538   1.982 -0.2076 -0.1502  0.4523
16907TIP3    H172212   6.189   0.540   1.971 -0.2596 -1.0421  0.6107
16907TIP3    H272213   6.306   0.445   1.979  0.7547  0.0835 -0.3499
16908TIP3   OH272214   1.229   5.342  11.541  0.0458  0.1385 -0.2806
16908TIP3    H172215   1.191   5.430  11.540  0.6611  0.4148 -1.7388
16908TIP3    H272216   1.196   5.301  11.461  0.3153 -0.7271  0.0395
16909TIP3   OH272217   3.954   0.850   1.150 -0.3601  0.0320 -0.2381
16909TIP3    H172218   4.009   0.911   1.198  0.6249 -1.6597  0.9084
16909TIP3    H272219   3.886   0.824   1.213 -0.8143  0.0195 -0.7309
16910TIP3   OH272220   4.974   4.480   3.525 -0.3010 -0.1525 -0.1431
16910TIP3    H172221   4.927   4.561   3.543  0.6917  0.5098 -0.4674
16910TIP3    H272222   4.983   4.478   3.430 -0.6272 -0.8276 -0.1653
16911TIP3   OH272223   2.389   4.937  15.259  0.3488 -0.5928  0.2583
16911TIP3    H172224   2.411   4.918  15.168  0.2457  0.4304  0.0075
16911TIP3    H272225   2.299   4.969  15.256  0.4138 -0.3589  0.6875
16912TIP3   OH272226   5.539   0.356   4.890  0.6521  0.5517 -0.2276
16912TIP3    H172227   5.445   0.375   4.885  0.8252  1.2148 -1.3172
16912TIP3    H272228   5.546   0.265   4.861  0.4494  0.8838 -1.3897
16913TIP3   OH272229   2.180   6.083  12.888  0.0507 -0.3955 -0.4146
16913TIP3    H172230   2.101   6.092  12.835 -0.4205 -0.2972  0.2805
16913TIP3    H272231   2.237   6.153  12.857  0.0511 -0.7391 -1.2220
16914TIP3   OH272232   0.501   3.825  11.934 -0.4923 -0.1056  0.2606
16914TIP3    H172233   0.421   3.873  11.914 -0.3314  0.0459 -0.0360
16914TIP3    H272234   0.492   3.744  11.884 -0.8371 -0.4577  0.8891
16915TIP3   OH272235   6.351   5.687   6.332  0.1212  0.8806 -0.4273
16915TIP3    H172236   6.325   5.597   6.310  0.3741  1.0078 -1.2733
16915TIP3    H272237   6.441   5.694   6.303 -0.5194  2.0323 -2.2785
16916TIP3   OH272238   4.703   2.924   5.742 -0.5201  0.1720 -1.0245
16916TIP3    H172239   4.705   2.985   5.815 -0.5755 -0.6215 -0.3492
16916TIP3    H272240   4.763   2.963   5.677  1.0327 -0.0591  0.1998
16917TIP3   OH272241   5.147   6.329   5.283 -0.3500 -0.4433  0.2023
16917TIP3    H172242   5.086   6.391   5.243  1.5221  0.3228 -1.6174
16917TIP3    H272243   5.153   6.257   5.220  0.1987 -0.7767  0.6228
16918TIP3   OH272244   5.497   5.820   3.040  0.1888  0.2541  0.4701
16918TIP3    H172245   5.432   5.775   2.985  1.4814 -1.0064 -0.0770
16918TIP3    H272246   5.461   5.909   3.050 -1.0388 -0.0501 -0.8055
16919TIP3   OH272247   3.829   0.213   1.603  0.2060  1.1497 -0.2820
16919TIP3    H172248   3.911   0.241   1.561  0.4824  0.6564 -0.0753
16919TIP3    H272249   3.852   0.199   1.695  0.5453 -1.5075 -0.6821
16920TIP3   OH272250   3.319   4.169   3.116  0.0526 -0.1188  0.0457
16920TIP3    H172251   3.259   4.185   3.043  0.1507  0.9475  0.1855
16920TIP3    H272252   3.376   4.099   3.086 -1.1542 -1.0538 -0.1557
16921TIP3   OH272253   6.767   2.934   1.681 -0.2395 -0.6710 -0.2053
16921TIP3    H172254   6.809   2.962   1.762  1.3080 -1.3041 -0.7602
16921TIP3    H272255   6.676   2.961   1.691  0.6139  2.4367  0.2820
16922TIP3   OH272256   0.250   3.642   1.584 -0.5323  0.4485 -0.6236
16922TIP3    H172257   0.162   3.643   1.545 -1.0645 -0.2785  0.5077
16922TIP3    H272258   0.272   3.549   1.591 -0.5268  0.5363  0.9052
16923TIP3   OH272259   3.004   4.878   4.336  0.3207 -0.1321  0.0726
16923TIP3    H172260   3.037   4.920   4.258  1.1342 -2.4187 -0.9048
16923TIP3    H272261   3.024   4.938   4.407 -1.2749  2.4499 -1.4991
16924TIP3   OH272262   3.204   3.542   2.113 -0.8201  0.4772 -0.3514
16924TIP3    H172263   3.179   3.450   2.125  0.7805 -0.1204 -1.2882
16924TIP3    H272264   3.292   3.548   2.151 -0.7281  1.5157 -0.6955
16925TIP3   OH272265   3.282   4.455   0.424 -0.4107  0.2823 -0.3810
16925TIP3    H172266   3.317   4.369   0.403 -0.0783  0.0336  1.0341
16925TIP3    H272267   3.357   4.514   0.415 -0.2963  0.1947 -0.0248
16926TIP3   OH272268   6.047   5.303   0.639  0.5490 -0.1750  0.3789
16926TIP3    H172269   5.982   5.362   0.675  0.0170  0.5384 -1.5895
16926TIP3    H272270   6.130   5.333   0.676 -0.0719 -0.3470  1.9953
16927TIP3   OH272271   2.899   4.993  12.953  0.1805 -0.4352  0.1620
16927TIP3    H172272   2.835   4.956  13.013 -1.5497  2.0584  0.0177
16927TIP3    H272273   2.974   5.016  13.008 -0.8411  0.5859  1.1789
16928TIP3   OH272274   2.935   4.048  14.755  0.8781 -0.1805  0.1651
16928TIP3    H172275   2.979   3.969  14.723  0.8731  0.1672 -0.7052
16928TIP3    H272276   2.850   4.017  14.786  0.2161 -0.2866 -1.6781
16929TIP3   OH272277   2.963   1.707   0.127  0.0648  0.1535  0.7227
16929TIP3    H172278   2.942   1.786   0.077 -0.0250  0.8925  1.8882
16929TIP3    H272279   2.889   1.697   0.187  0.6583 -0.1106  1.4179
16930TIP3   OH272280   2.037   4.766  12.324 -0.1031 -0.3492  0.0694
16930TIP3    H172281   2.125   4.747  12.358  0.6658  0.5952 -1.2985
16930TIP3    H272282   1.979   4.708  12.374  1.4230 -1.8109  0.2488
16931TIP3   OH272283   6.155   1.777   4.725 -0.6502 -0.0196 -0.1549
16931TIP3    H172284   6.194   1.850   4.775 -2.3802  1.1979 -0.4964
16931TIP3    H272285   6.205   1.775   4.644  1.0720 -0.9026  0.8698
16932TIP3   OH272286   1.052   6.061   5.060 -0.3991  0.0196 -0.1296
16932TIP3    H172287   1.124   5.998   5.065 -0.2404  0.1684 -0.5590
16932TIP3    H272288   1.094   6.144   5.039 -0.6594  0.1731 -0.0366
16933TIP3   OH272289   2.400   3.571  10.887 -0.0453  0.3632 -0.4558
16933TIP3    H172290   2.332   3.638  10.881  0.2019  0.5898 -0.7740
16933TIP3    H272291   2.477   3.611  10.846  0.5282  0.4276  0.6417
16934TIP3   OH272292   6.474   5.437   5.291 -0.1960 -0.2439  0.2860
16934TIP3    H172293   6.402   5.426   5.352 -0.4423  1.6653  0.3831
16934TIP3    H272294   6.540   5.487   5.339  1.9315 -3.1962  0.7223
16935TIP3   OH272295   4.461   3.592  14.653  0.1382  0.1351 -0.5420
16935TIP3    H172296   4.495   3.511  14.614  0.9719 -0.2261  0.8575
16935TIP3    H272297   4.535   3.654  14.648  0.7483 -0.3251  1.5567
16936TIP3   OH272298   3.295   2.469   1.720 -0.1905  0.2394  0.0501
16936TIP3    H172299   3.358   2.527   1.678  1.1682 -2.4723 -2.0100
16936TIP3    H272300   3.217   2.475   1.665  0.8041 -1.5665 -1.7381
16937TIP3   OH272301   6.209   2.909  11.187  0.0921  0.7656  0.2595
16937TIP3    H172302   6.172   2.869  11.109  2.5465 -1.1458 -0.0480
16937TIP3    H272303   6.228   2.999  11.162 -2.1542  1.1556 -0.2366
16938TIP3   OH272304   0.730   2.353  15.970 -0.6034 -0.0927 -0.4270
16938TIP3    H172305   0.741   2.426  16.031 -0.5183  0.6020 -1.2485
16938TIP3    H272306   0.667   2.295  16.012 -0.3733  0.2552  0.4194
16939TIP3   OH272307   5.681   1.067   4.739 -0.3133  0.2413  0.2174
16939TIP3    H172308   5.595   1.081   4.781 -1.5213 -2.8412 -0.9508
16939TIP3    H272309   5.726   1.007   4.798  0.1754  0.1684 -0.2322
16940TIP3   OH272310   1.179   5.738  12.451  0.4870  0.1585 -0.3924
16940TIP3    H172311   1.099   5.718  12.402  0.9836 -1.1796 -0.7026
16940TIP3    H272312   1.238   5.777  12.386 -0.1220  1.7643 -0.0160
16941TIP3   OH272313   6.164   0.046  15.496 -0.2867 -0.1263 -0.4388
16941TIP3    H172314   6.149   0.124  15.443 -1.6905 -0.4362 -0.5380
16941TIP3    H272315   6.078   0.021  15.528  0.2464 -1.1802  0.2561
16942TIP3   OH272316   6.145   0.587   0.490 -0.2804  0.6259  0.1711
16942TIP3    H172317   6.054   0.608   0.512 -0.1013  0.1839  1.4134
16942TIP3    H272318   6.138   0.509   0.435 -0.6620  0.5593  0.3053
16943TIP3   OH272319   5.260   3.097   3.669 -0.1416  0.2260 -0.2637
16943TIP3    H172320   5.229   3.052   3.748  1.2173 -1.5281 -0.6633
16943TIP3    H272321   5.189   3.087   3.606  0.4568 -2.3151 -0.6491
16944TIP3   OH272322   5.053   6.294  11.080  0.1953  0.2312 -0.4361
16944TIP3    H172323   5.043   6.199  11.070 -0.5867  0.3681 -1.1491
16944TIP3    H272324   4.968   6.329  11.052  0.1590  1.0941  0.7041
16945TIP3   OH272325   0.616   1.584  13.657  0.1223 -0.1052  0.0717
16945TIP3    H172326   0.541   1.614  13.708  0.2286  0.8822 -0.3260
16945TIP3    H272327   0.683   1.650  13.672 -0.6468  1.6478 -3.2662
16946TIP3   OH272328   1.178   6.268   4.702 -0.1900 -0.0786  0.4882
16946TIP3    H172329   1.261   6.311   4.684  0.7913 -1.9976  0.1874
16946TIP3    H272330   1.168   6.272   4.797 -0.4052  1.2577  0.4240
16947TIP3   OH272331   4.317   5.085   2.848 -0.3001  0.0928  0.3951
16947TIP3    H172332   4.258   5.136   2.904 -1.9292 -0.6690 -0.5380
16947TIP3    H272333   4.333   5.005   2.898  0.0896  0.3764  0.7277
16948TIP3   OH272334   5.091   3.182  11.995  0.5244 -0.4198 -0.4109
16948TIP3    H172335   5.165   3.128  12.022  0.7734  0.0611 -0.1100
16948TIP3    H272336   5.077   3.242  12.068 -1.5977 -1.9357  0.5253
16949TIP3   OH272337   2.050   6.110   3.559 -0.2026  0.1743  0.8077
16949TIP3    H172338   1.988   6.182   3.568  0.5882  0.9983 -0.1289
16949TIP3    H272339   2.119   6.130   3.622 -0.5268 -0.3695  1.3452
16950TIP3   OH272340   6.517   2.626  11.244  0.0911 -0.9471 -0.3283
16950TIP3    H172341   6.545   2.692  11.308 -1.1507 -0.4933 -0.2313
16950TIP3    H272342   6.429   2.601  11.272  1.2017 -4.0967  0.7956
16951TIP3   OH272343   2.296   2.526   4.424  0.0320 -0.2492 -0.1075
16951TIP3    H172344   2.339   2.441   4.438 -0.4780 -0.5417 -0.2887
16951TIP3    H272345   2.203   2.509   4.443  0.2184  0.7763  1.9661
16952TIP3   OH272346   0.747   6.663  14.274  0.4061  0.3884  0.0303
16952TIP3    H172347   0.775   6.643  14.185  2.0876  2.2876  0.0749
16952TIP3    H272348   0.669   6.717  14.262 -0.0440 -0.3004 -0.2357
16953TIP3   OH272349   1.071   2.385  16.668  0.2581 -0.1071 -0.2572
16953TIP3    H172350   1.154   2.346  16.639  0.2089 -0.1389 -0.3551
16953TIP3    H272351   1.058   2.459  16.609  2.5244  2.7567  2.5010
16954TIP3   OH272352   1.599   5.437  12.109 -0.3870  0.3535  0.5024
16954TIP3    H172353   1.524   5.389  12.073  0.0234 -0.9329  1.3077
16954TIP3    H272354   1.672   5.412  12.052 -0.2754  0.4470  0.6049
16955TIP3   OH272355   1.508   2.481  12.737 -0.0123 -0.0428 -0.3947
16955TIP3    H172356   1.594   2.504  12.701 -0.6871  1.0858 -1.3183
16955TIP3    H272357   1.454   2.558  12.723 -0.7111 -0.0344  1.8323
16956TIP3   OH272358   6.146   5.211  17.137 -0.5700  0.4717 -0.0216
16956TIP3    H172359   6.135   5.304  17.156 -1.6209  0.5111 -0.7266
16956TIP3    H272360   6.205   5.179  17.205 -0.1804  1.6556  0.2197
16957TIP3   OH272361   3.252   2.417  11.731 -0.2472 -0.1951  0.8966
16957TIP3    H172362   3.329   2.363  11.749 -0.8321 -1.3259  0.1264
16957TIP3    H272363   3.201   2.365  11.669 -1.1578  0.9702  0.6493
16958TIP3   OH272364   0.119   4.769   4.353 -0.2297  0.2806 -0.1305
16958TIP3    H172365   0.037   4.798   4.313  0.0215  2.0703  0.5171
16958TIP3    H272366   0.187   4.811   4.300  0.2213 -0.0931  0.1454
16959TIP3   OH272367   2.309   4.650   1.220 -0.0763 -1.0057  0.3529
16959TIP3    H172368   2.273   4.601   1.145 -0.6220  0.1332 -0.1686
16959TIP3    H272369   2.397   4.674   1.192 -0.4377 -0.1966 -0.1351
16960TIP3   OH272370   6.608   6.171  11.670  0.3964 -0.0525  0.2058
16960TIP3    H172371   6.622   6.087  11.627  1.0579 -0.0134  0.3362
16960TIP3    H272372   6.513   6.182  11.670  0.3359 -0.4790 -0.4280
16961TIP3   OH272373   0.202   1.204  12.724 -0.0539  0.5487 -0.6016
16961TIP3    H172374   0.120   1.251  12.707 -0.9677 -0.2828  1.2499
16961TIP3    H272375   0.185   1.153  12.803  3.1618  2.5818  1.6960
16962TIP3   OH272376   0.196   5.570   1.528 -0.6662 -0.2569  0.1162
16962TIP3    H172377   0.196   5.630   1.453  0.3501  0.7199  0.8571
16962TIP3    H272378   0.109   5.580   1.566 -1.1686 -0.7153 -0.8845
16963TIP3   OH272379   3.846   5.342  14.518  1.1222  0.2469  0.4696
16963TIP3    H172380   3.899   5.411  14.478  0.1383  0.7097 -0.0791
16963TIP3    H272381   3.756   5.367  14.499  0.7531 -1.4343 -0.1679
16964TIP3   OH272382   6.351   4.340  11.114 -0.1006 -0.5482 -0.2110
16964TIP3    H172383   6.328   4.378  11.029 -0.2796 -1.5686 -0.6240
16964TIP3    H272384   6.339   4.413  11.176  2.5450  0.9832 -1.3522
16965TIP3   OH272385   4.989   2.613  16.051  0.6580  0.2429 -0.1985
16965TIP3    H172386   4.998   2.681  16.119  2.3537  0.5244 -0.6437
16965TIP3    H272387   5.069   2.561  16.060 -0.5454 -1.6144  0.0210
16966TIP3   OH272388   6.214   5.028  15.828  0.4464 -0.3660 -0.7193
16966TIP3    H172389   6.188   5.114  15.862 -2.1921 -1.7378  1.0263
16966TIP3    H272390   6.250   4.983  15.904  1.3541 -1.0247 -1.5153
16967TIP3   OH272391   1.506   5.753  15.459  0.1261 -0.1528  0.0636
16967TIP3    H172392   1.492   5.716  15.546 -1.8988  0.4633  0.0338
16967TIP3    H272393   1.434   5.720  15.406  0.3384  0.8838 -0.9136
16968TIP3   OH272394   3.421   2.670  12.079 -0.0844 -0.2351 -0.1197
16968TIP3    H172395   3.417   2.761  12.108 -1.0976 -0.6756  1.2220
16968TIP3    H272396   3.430   2.619  12.159  0.6899 -1.3196 -0.8670
16969TIP3   OH272397   5.852   6.171  16.703 -0.3243 -0.2880  0.0348
16969TIP3    H172398   5.842   6.246  16.644  1.9695  0.8108  0.9082
16969TIP3    H272399   5.767   6.127  16.701 -1.0978  1.1489 -2.0972
16970TIP3   OH272400   2.502   1.485  15.620  0.1472 -0.4266  0.3241
16970TIP3    H172401   2.523   1.578  15.614  2.6227 -1.0015 -1.6336
16970TIP3    H272402   2.581   1.445  15.656 -0.6003 -1.8707  0.4110
16971TIP3   OH272403   5.475   4.434  10.921 -0.0406 -0.1491 -0.1385
16971TIP3    H172404   5.432   4.350  10.938 -0.1155 -0.0589  0.1329
16971TIP3    H272405   5.543   4.439  10.989 -0.2790  0.1793  0.0735
16972TIP3   OH272406   2.307   1.602   0.932 -0.3088 -0.1091  0.1017
16972TIP3    H172407   2.353   1.662   0.991  2.4554 -0.3194 -1.6463
16972TIP3    H272408   2.248   1.659   0.882 -0.1109  0.6173  0.6770
16973TIP3   OH272409   2.901   5.179   5.503  0.1264  0.4098  0.2024
16973TIP3    H172410   2.888   5.226   5.420 -0.6501 -0.1167  0.0163
16973TIP3    H272411   2.963   5.109   5.481  1.2946  1.3318  0.4829
16974TIP3   OH272412   2.698   6.151   0.789 -0.4985  0.0393  0.1106
16974TIP3    H172413   2.695   6.165   0.884 -0.9639  0.0614  0.0953
16974TIP3    H272414   2.608   6.127   0.766 -0.7250  1.4276 -0.5467
16975TIP3   OH272415   1.462   4.833   1.572 -0.4593  0.2749  0.1766
16975TIP3    H172416   1.388   4.880   1.534 -0.0759 -0.0878 -1.0912
16975TIP3    H272417   1.463   4.859   1.664  0.0233  3.1311 -0.5461
16976TIP3   OH272418   2.028   4.979  12.163  0.5601  0.5655  0.4078
16976TIP3    H172419   1.945   4.978  12.115  1.4109 -0.9192 -1.1802
16976TIP3    H272420   2.018   4.910  12.229 -0.1485  1.7458  1.5831
16977TIP3   OH272421   1.318   4.208  16.435 -0.1743  0.7478 -0.3694
16977TIP3    H172422   1.237   4.220  16.386  0.3921  2.0894 -1.0253
16977TIP3    H272423   1.320   4.281  16.497  0.5212  0.7220 -0.3560
16978TIP3   OH272424   2.137   6.327  11.097 -0.2037 -0.1734 -0.1715
16978TIP3    H172425   2.095   6.411  11.116  0.1547 -0.1460  0.5461
16978TIP3    H272426   2.193   6.344  11.022  0.0785  0.3077  0.1402
16979TIP3   OH272427   2.244   5.634  13.807  0.1935  0.6510 -0.3113
16979TIP3    H172428   2.285   5.551  13.783 -2.2648 -0.4807 -0.9032
16979TIP3    H272429   2.153   5.625  13.780 -0.2490  3.4440 -0.0785
16980TIP3   OH272430   6.731   2.073  13.548 -0.1316  0.0571  0.2467
16980TIP3    H172431   6.792   2.009  13.510  0.8940  0.6667  0.8201
16980TIP3    H272432   6.651   2.023  13.563 -0.4101 -0.3487 -2.1707
16981TIP3   OH272433   2.282   0.670   0.392 -0.0739  0.3327 -0.3159
16981TIP3    H172434   2.295   0.618   0.313  1.5089  0.4218 -0.1535
16981TIP3    H272435   2.215   0.734   0.369  0.4188  0.3991 -1.6049
16982TIP3   OH272436   2.501   4.800   5.119 -0.0070  0.4897  0.7847
16982TIP3    H172437   2.569   4.736   5.098  0.3899  0.3638  2.3224
16982TIP3    H272438   2.498   4.858   5.043  1.2940  0.0610  0.3778
16983TIP3   OH272439   6.736   2.720  16.758  0.0700  0.0029 -0.1965
16983TIP3    H172440   6.664   2.667  16.725  0.2361 -1.1093  1.1012
16983TIP3    H272441   6.719   2.728  16.852  1.0478  0.6706 -0.0545
16984TIP3   OH272442   3.176   1.258  12.743  0.5182  0.1238  0.5206
16984TIP3    H172443   3.153   1.236  12.653  0.2633 -0.1897  0.6626
16984TIP3    H272444   3.271   1.270  12.741  0.6194 -0.6611  0.3711
16985TIP3   OH272445   5.455   4.493  13.350 -0.6940 -1.4575  0.0144
16985TIP3    H172446   5.437   4.413  13.398  0.1217 -1.6304  0.0551
16985TIP3    H272447   5.461   4.466  13.258 -1.1633 -1.3130 -0.0627
16986TIP3   OH272448   0.219   0.286  14.959 -0.0239 -0.0410  0.4924
16986TIP3    H172449   0.203   0.269  15.052  0.9391  0.2269  0.7220
16986TIP3    H272450   0.185   0.374  14.945 -2.3446 -0.9246 -0.0048
16987TIP3   OH272451   6.494   1.761  14.823 -0.2534  0.1235 -0.1206
16987TIP3    H172452   6.533   1.774  14.909 -1.4229  0.6981  0.3294
16987TIP3    H272453   6.512   1.843  14.776 -1.6642  0.7647  0.3993
16988TIP3   OH272454   5.008   4.749  14.375  0.0887 -0.8337 -0.0283
16988TIP3    H172455   5.062   4.791  14.309 -0.2775 -0.4805 -0.1062
16988TIP3    H272456   5.007   4.810  14.448 -0.5333 -0.6543 -0.1821
16989TIP3   OH272457   5.589   2.878   1.096  0.2710  0.4146 -0.4546
16989TIP3    H172458   5.586   2.784   1.116  2.4052  0.1538 -1.0672
16989TIP3    H272459   5.584   2.921   1.181  2.9034 -0.4477  0.2353
16990TIP3   OH272460   2.418   2.306   2.905 -0.0717  0.8298  0.6152
16990TIP3    H172461   2.395   2.243   2.837 -0.7490 -1.1101  2.5253
16990TIP3    H272462   2.345   2.367   2.906 -2.0212 -1.3819  2.1083
16991TIP3   OH272463   2.929   2.783   3.170  0.1907 -0.3245 -0.2558
16991TIP3    H172464   2.931   2.688   3.176 -0.6146 -0.3939 -0.8186
16991TIP3    H272465   2.836   2.806   3.180  0.3514  0.3856 -0.2978
16992TIP3   OH272466   6.723   1.474   5.504 -0.1801 -0.1091  0.0093
16992TIP3    H172467   6.724   1.408   5.434 -0.2591 -0.0919 -0.0087
16992TIP3    H272468   6.641   1.457   5.551  0.6107 -1.1203  1.0628
16993TIP3   OH272469   6.208   2.338  12.300  0.2360 -0.1019 -0.2142
16993TIP3    H172470   6.228   2.383  12.218  2.3156 -1.6565 -0.6382
16993TIP3    H272471   6.293   2.326  12.342 -0.5327 -1.3708  1.0568
16994TIP3   OH272472   0.114   4.523  16.634  0.5460 -0.5322  0.0303
16994TIP3    H172473   0.080   4.574  16.708 -3.1358 -2.3714 -0.1486
16994TIP3    H272474   0.099   4.578  16.557  0.8365 -0.1104  0.2750
16995TIP3   OH272475   4.600   0.662   2.956  1.1449 -0.0487  0.2532
16995TIP3    H172476   4.689   0.659   2.923  1.2649 -1.9094  0.6249
16995TIP3    H272477   4.592   0.584   3.011 -1.0141 -0.5260 -0.6249
16996TIP3   OH272478   4.754   1.153  14.995 -0.2373  0.3141 -0.8772
16996TIP3    H172479   4.705   1.232  15.017  0.0242  0.6612 -1.5410
16996TIP3    H272480   4.763   1.155  14.900  0.7144  0.0482 -0.8039
16997TIP3   OH272481   6.234   0.497   1.583 -0.5494  0.2977  0.2372
16997TIP3    H172482   6.307   0.555   1.560 -0.0917  0.3849  1.7728
16997TIP3    H272483   6.156   0.545   1.558 -0.1094 -0.2524 -2.4573
16998TIP3   OH272484   1.954   4.321  11.331 -0.2118  1.0895 -0.3249
16998TIP3    H172485   2.008   4.313  11.410  0.0906  0.0841 -0.6156
16998TIP3    H272486   2.000   4.269  11.265 -1.5160  0.2335 -0.5907
16999TIP3   OH272487   3.986   3.456  14.867 -0.1027  0.0516 -0.0125
16999TIP3    H172488   3.909   3.413  14.904 -1.2800  0.8132 -1.4619
16999TIP3    H272489   4.050   3.457  14.938 -1.2228 -1.1144  1.0533
17000TIP3   OH272490   3.936   3.032   6.053 -0.6616  0.2962 -0.1942
17000TIP3    H172491   3.855   3.001   6.094 -0.3409 -0.5133 -0.1718
17000TIP3    H272492   3.989   2.954   6.041  0.3142  0.8702  0.2040
17001TIP3   OH272493   3.016   6.265   0.560 -0.4676  0.3039  0.3927
17001TIP3    H172494   3.016   6.279   0.465 -0.6484 -2.2969 -0.0661
17001TIP3    H272495   3.091   6.316   0.592 -0.8459  1.8252 -0.9929
17002TIP3   OH272496   3.953   0.579  12.764  0.0845  0.1598 -0.1832
17002TIP3    H172497   3.948   0.674  12.760 -2.4838  0.0758 -0.4901
17002TIP3    H272498   3.880   0.548  12.710  0.0852 -1.9400  0.8922
17003TIP3   OH272499   3.836   3.433  13.126  0.4816 -0.0627  0.3198
17003TIP3    H172500   3.761   3.417  13.183 -0.0585  0.8257 -0.1040
17003TIP3    H272501   3.798   3.438  13.038  0.5715  2.9427  0.3351
17004TIP3   OH272502   6.495   4.158  10.947 -0.2377  0.2444 -0.2674
17004TIP3    H172503   6.465   4.241  10.983  0.0867  0.4818 -0.5403
17004TIP3    H272504   6.416   4.106  10.934 -0.3606  0.1137  0.8855
17005TIP3   OH272505   5.483   4.412   5.094  0.0506 -0.1399  0.0586
17005TIP3    H172506   5.448   4.482   5.038  0.1422  1.3746  1.8028
17005TIP3    H272507   5.529   4.354   5.033  1.3105  2.1528 -1.3404
17006TIP3   OH272508   3.800   0.495   4.520  0.2547  0.0028 -0.2282
17006TIP3    H172509   3.805   0.437   4.444  0.8509 -0.3319  0.0635
17006TIP3    H272510   3.889   0.528   4.531  0.5363 -1.1569  1.2510
17007TIP3   OH272511   3.112   5.753  14.135  0.5114  0.6262  0.1246
17007TIP3    H172512   3.096   5.801  14.217  2.6953  0.7224  0.5793
17007TIP3    H272513   3.139   5.665  14.164  2.4003  0.9877 -0.3727
17008TIP3   OH272514   0.358   6.052   2.565  0.3609 -0.0565  0.1490
17008TIP3    H172515   0.436   5.996   2.567  0.4817  0.1160  0.3043
17008TIP3    H272516   0.328   6.054   2.656  0.7396  0.6571  0.2720
17009TIP3   OH272517   1.113   5.265   3.475 -0.0057 -0.4368  0.1043
17009TIP3    H172518   1.065   5.345   3.496  0.1228 -0.0774 -0.8739
17009TIP3    H272519   1.154   5.284   3.390 -0.3738 -1.7284 -0.3806
17010TIP3   OH272520   2.873   3.300  15.751  0.3380  0.6376  0.5672
17010TIP3    H172521   2.783   3.269  15.757  0.4703 -0.0268 -0.5486
17010TIP3    H272522   2.908   3.258  15.673  2.0910 -0.2902  1.7809
17011TIP3   OH272523   6.726   4.275  15.666 -0.1804 -0.0214 -0.1074
17011TIP3    H172524   6.655   4.283  15.603  0.0117  0.9690 -0.2235
17011TIP3    H272525   6.803   4.252  15.613 -0.2425 -0.2661 -0.0917
17012TIP3   OH272526   5.747   6.369   5.545 -0.2837  0.1582  0.0053
17012TIP3    H172527   5.803   6.441   5.516 -0.8853  0.8669  0.5611
17012TIP3    H272528   5.668   6.377   5.491 -0.0245 -0.5960 -0.5038
17013TIP3   OH272529   1.563   3.507  16.634  0.0724 -0.4383  0.5152
17013TIP3    H172530   1.583   3.415  16.616  0.1054  0.2668 -4.8875
17013TIP3    H272531   1.496   3.529  16.569  2.1213  3.9416 -0.4672
17014TIP3   OH272532   1.753   4.486   1.158  0.6407  0.3716  0.2308
17014TIP3    H172533   1.666   4.521   1.141  0.3676  0.1450  1.1050
17014TIP3    H272534   1.741   4.391   1.163  1.2292  0.1894 -1.2616
17015TIP3   OH272535   0.597   3.083   0.638  0.0896  0.9007  0.2887
17015TIP3    H172536   0.647   3.015   0.683 -1.9231 -2.0631 -1.6100
17015TIP3    H272537   0.516   3.091   0.688  0.0101  1.3993  0.0899
17016TIP3   OH272538   5.967   3.399   3.311 -0.2297  0.8255  0.4782
17016TIP3    H172539   5.889   3.436   3.271 -0.5947  0.3824  0.7711
17016TIP3    H272540   5.972   3.440   3.397 -0.1597  0.8181  0.4782
17017TIP3   OH272541   4.139   3.536   4.197 -0.1403  0.7638 -0.4463
17017TIP3    H172542   4.216   3.538   4.140 -0.5255  0.3198 -0.9830
17017TIP3    H272543   4.067   3.510   4.140 -0.6544  0.9562  0.1027
17018TIP3   OH272544   6.267   3.536   2.934 -0.0999  0.2605 -0.5984
17018TIP3    H172545   6.335   3.595   2.968  0.4088  0.7579 -2.3587
17018TIP3    H272546   6.217   3.510   3.011 -0.1525  2.7476  0.2833
17019TIP3   OH272547   0.233   3.599   2.371 -0.2099  0.5908  0.6080
17019TIP3    H172548   0.184   3.536   2.424  0.7292  0.7068  1.6492
17019TIP3    H272549   0.173   3.624   2.301 -0.3477 -2.0964 -0.3603
17020TIP3   OH272550   1.477   0.969  14.884  0.7263 -1.0307  0.7558
17020TIP3    H172551   1.538   0.932  14.820  0.2504 -1.2824  0.4428
17020TIP3    H272552   1.411   1.014  14.830  1.6466  0.8852  1.1168
17021TIP3   OH272553   4.950   4.097  15.211 -0.4253 -0.6175  0.7635
17021TIP3    H172554   4.963   4.093  15.117  0.8347  0.1363  0.8767
17021TIP3    H272555   4.927   4.007  15.236 -0.9621 -0.7809 -0.2689
17022TIP3   OH272556   3.252   0.429   1.057  0.3936  0.2592  0.0630
17022TIP3    H172557   3.157   0.441   1.060  0.0514 -1.0898 -2.1315
17022TIP3    H272558   3.268   0.347   1.104  0.1622 -0.5598 -1.2309
17023TIP3   OH272559   4.386   6.494   1.219 -0.1098 -0.0322  0.1340
17023TIP3    H172560   4.390   6.441   1.139 -0.4146 -0.4164  0.3703
17023TIP3    H272561   4.477   6.514   1.239 -0.0180 -0.1331 -0.1792
17024TIP3   OH272562   5.687   2.053  13.287  0.3569 -0.2257 -0.1979
17024TIP3    H172563   5.719   2.042  13.198  2.6083  0.2527  0.4875
17024TIP3    H272564   5.675   1.964  13.320  0.2335 -0.4086 -0.7456
17025TIP3   OH272565   5.384   1.500  11.143  0.1132  0.0861  1.0602
17025TIP3    H172566   5.453   1.440  11.115 -0.5466  0.8619 -2.6867
17025TIP3    H272567   5.432   1.573  11.183  1.3120 -0.4688  0.6986
17026TIP3   OH272568   6.223   5.501   0.789 -0.0791  0.0295 -0.3708
17026TIP3    H172569   6.189   5.572   0.734  0.1004  1.6688  1.4936
17026TIP3    H272570   6.294   5.462   0.738 -0.9078  0.4670 -1.8994
17027TIP3   OH272571   1.867   5.442   1.097 -0.0452 -0.0437  0.5302
17027TIP3    H172572   1.778   5.423   1.070 -0.5145 -0.9782  2.5240
17027TIP3    H272573   1.918   5.441   1.016 -1.5667 -1.1160 -0.4642
17028TIP3   OH272574   6.368   1.230  10.592  0.1207 -0.1326  0.2239
17028TIP3    H172575   6.449   1.188  10.619  0.9024  2.0150  1.4798
17028TIP3    H272576   6.335   1.272  10.671 -0.8754  1.1267 -0.7994
17029TIP3   OH272577   6.826   1.644  14.297  0.4020  0.6862 -0.4199
17029TIP3    H172578   6.763   1.707  14.332 -1.4287 -1.1521 -0.1535
17029TIP3    H272579   6.838   1.580  14.367  0.1522 -0.6262 -1.5074
17030TIP3   OH272580   2.921   0.175  15.329  0.1784  0.5827 -0.3752
17030TIP3    H172581   2.861   0.225  15.384  0.0896 -0.4910  0.5311
17030TIP3    H272582   2.883   0.088  15.324  0.1862  0.6413 -2.1732
17031TIP3   OH272583   6.212   0.234   3.356  0.4235 -0.5063  0.0962
17031TIP3    H172584   6.294   0.269   3.322  0.0293 -0.1283 -0.4822
17031TIP3    H272585   6.167   0.310   3.393  2.0985 -1.2657  4.2869
17032TIP3   OH272586   6.148   2.511   0.891  0.2247 -0.1267 -0.2825
17032TIP3    H172587   6.079   2.570   0.861  0.2507 -0.5884 -1.2863
17032TIP3    H272588   6.132   2.501   0.985 -0.2972  0.7793 -0.2651
17033TIP3   OH272589   1.409   0.572   4.877 -0.1612 -1.0049  0.4459
17033TIP3    H172590   1.457   0.649   4.907 -1.0941  0.1009 -0.7753
17033TIP3    H272591   1.327   0.573   4.927 -0.3481 -0.9577  0.1457
17034TIP3   OH272592   1.073   1.631   3.397  0.1385  0.2270  1.0601
17034TIP3    H172593   1.077   1.679   3.314 -0.0230  0.1868  1.0277
17034TIP3    H272594   1.162   1.632   3.430  0.0518  0.9314  1.2799
17035TIP3   OH272595   3.530   5.394   4.201  0.9164 -0.4183 -0.0494
17035TIP3    H172596   3.540   5.311   4.246 -0.5534 -1.5951 -1.7500
17035TIP3    H272597   3.537   5.460   4.270  0.6522 -2.0250  1.5714
17036TIP3   OH272598   3.043   4.047   1.464  0.3379 -0.1055 -0.2627
17036TIP3    H172599   3.102   3.975   1.483  1.6539  0.9836 -0.1180
17036TIP3    H272600   3.058   4.066   1.371  0.9615  0.8332  0.0279
17037TIP3   OH272601   5.324   5.363  14.055  0.7534 -0.4584  0.5007
17037TIP3    H172602   5.400   5.414  14.028  0.2536  0.2199  0.3304
17037TIP3    H272603   5.255   5.428  14.068  0.3758 -0.9898  1.2849
17038TIP3   OH272604   1.015   5.987   0.392  0.3040  0.7329  0.6824
17038TIP3    H172605   1.034   5.894   0.380  1.0608  0.9632 -0.0017
17038TIP3    H272606   1.002   5.997   0.486  0.9303  0.0635  0.8440
17039TIP3   OH272607   6.530   3.565  16.840  0.4328  0.7593 -0.0119
17039TIP3    H172608   6.526   3.594  16.750 -0.2749 -1.0155 -0.5999
17039TIP3    H272609   6.546   3.645  16.891 -1.1815  2.0954 -1.4982
17040TIP3   OH272610   0.449   1.510  15.417  0.0704  0.7291 -0.1587
17040TIP3    H172611   0.543   1.526  15.426 -0.1328  1.2226  1.5657
17040TIP3    H272612   0.409   1.570  15.480 -1.3723  0.1889 -0.5251
17041TIP3   OH272613   3.381   6.397   3.029  0.1477 -0.7978 -0.3031
17041TIP3    H172614   3.402   6.427   3.117 -0.6515 -1.7494  0.2279
17041TIP3    H272615   3.420   6.463   2.971 -2.6250  2.0524  0.8034
17042TIP3   OH272616   3.592   4.827   1.492  0.1138 -0.6175 -0.4488
17042TIP3    H172617   3.591   4.733   1.510  1.6022 -0.6941 -0.6145
17042TIP3    H272618   3.624   4.834   1.402  0.8791  0.0780 -0.1340
17043TIP3   OH272619   0.134   1.956   4.924  0.2048 -0.8305 -0.2352
17043TIP3    H172620   0.042   1.973   4.942  0.3294  0.8881 -1.0539
17043TIP3    H272621   0.157   2.016   4.853  1.4962 -2.4813 -1.3272
17044TIP3   OH272622   5.751   3.660  12.626  0.2886  0.0808 -0.2240
17044TIP3    H172623   5.667   3.693  12.595  0.6131  1.5295  0.3827
17044TIP3    H272624   5.761   3.575  12.583 -0.7884  0.5661 -1.4743
17045TIP3   OH272625   0.585   0.094  11.538  0.4250 -0.6371 -0.0008
17045TIP3    H172626   0.514   0.107  11.476  0.4923  1.1219  0.2332
17045TIP3    H272627   0.628   0.013  11.510 -1.0692 -1.2102 -0.7133
17046TIP3   OH272628   2.626   4.326  12.722  0.0669  0.2899  0.1537
17046TIP3    H172629   2.644   4.310  12.815  1.2369  0.1534 -0.0885
17046TIP3    H272630   2.712   4.333  12.681 -0.4333  0.1013 -0.9695
17047TIP3   OH272631   5.353   5.195  16.107 -0.8647 -0.0660 -0.3282
17047TIP3    H172632   5.407   5.116  16.108 -0.5718 -0.0093 -3.0198
17047TIP3    H272633   5.271   5.169  16.149 -0.3339 -1.4421 -0.0929
17048TIP3   OH272634   4.288   5.580   6.722  0.2197 -0.0966  0.4215
17048TIP3    H172635   4.372   5.625   6.731 -0.1051  0.1554  3.0052
17048TIP3    H272636   4.227   5.650   6.697  0.8463 -0.4238 -2.2540
17049TIP3   OH272637   4.242   5.542  15.360 -0.4263 -0.4097  0.0091
17049TIP3    H172638   4.319   5.534  15.303 -0.0370  2.3665  0.0221
17049TIP3    H272639   4.177   5.484  15.320  0.2546  0.4334 -2.5495
17050TIP3   OH272640   6.260   4.703   0.242  0.8790 -0.1211 -0.0689
17050TIP3    H172641   6.304   4.622   0.216 -0.3849 -0.3728 -1.6756
17050TIP3    H272642   6.167   4.679   0.246  0.6145  0.9526  0.7126
17051TIP3   OH272643   3.215   5.436   5.905  0.5304 -0.8918  0.5645
17051TIP3    H172644   3.162   5.358   5.922 -0.5055  0.0471  1.8294
17051TIP3    H272645   3.152   5.504   5.885  1.0684  0.5294  3.1556
17052TIP3   OH272646   6.050   4.817   4.858  0.3801 -0.8776  0.3170
17052TIP3    H172647   6.117   4.767   4.810 -0.7298 -1.6284 -0.5187
17052TIP3    H272648   6.003   4.864   4.789 -0.5135 -1.0645  0.7904
17053TIP3   OH272649   2.681   1.901  13.646  0.2703 -0.3209 -0.3224
17053TIP3    H172650   2.628   1.852  13.708  1.1908 -1.8642 -0.7084
17053TIP3    H272651   2.771   1.894  13.679  0.7734 -1.1339 -1.7545
17054TIP3   OH272652   0.361   4.206   4.650  0.5194  0.9605 -0.3846
17054TIP3    H172653   0.277   4.190   4.606  0.9518 -0.9486 -0.6062
17054TIP3    H272654   0.338   4.217   4.742  0.0535  0.0768 -0.3886
17055TIP3   OH272655   5.193   6.641  11.347  0.0193  0.2470  0.0801
17055TIP3    H172656   5.231   6.692  11.419  1.1196 -0.2244 -0.1452
17055TIP3    H272657   5.257   6.572  11.331  1.1055  1.7622 -3.0308
17056TIP3   OH272658   5.644   3.830  11.624 -0.0859  0.2045 -0.5852
17056TIP3    H172659   5.646   3.760  11.689  0.1504  1.5035  0.8657
17056TIP3    H272660   5.721   3.815  11.570 -1.2890 -1.9933 -1.8336
17057TIP3   OH272661   4.303   2.334  14.046 -0.0910 -0.1482 -0.4530
17057TIP3    H172662   4.359   2.307  14.118  0.1380  2.7193  0.5704
17057TIP3    H272663   4.271   2.252  14.009  1.3532 -1.7760  1.6396
17058TIP3   OH272664   0.384   0.303  16.024 -0.4243  0.1413  0.1287
17058TIP3    H172665   0.474   0.302  16.055  0.6239 -0.5604 -2.6398
17058TIP3    H272666   0.359   0.210  16.021  0.5492 -0.1576 -3.4848
17059TIP3   OH272667   1.175   3.940  14.278  0.1420 -0.6490 -0.1319
17059TIP3    H172668   1.128   4.017  14.308  0.1248 -1.4898  2.1675
17059TIP3    H272669   1.267   3.959  14.296  0.2118 -0.8972 -0.2214
17060TIP3   OH272670   3.002   0.402   1.221  0.5420 -0.1075  0.0963
17060TIP3    H172671   2.964   0.489   1.205  0.1147 -0.5125 -1.1601
17060TIP3    H272672   2.936   0.341   1.189  1.4723 -0.8681 -0.4058
17061TIP3   OH272673   2.283   2.669  16.742  0.6977  0.3014 -0.0729
17061TIP3    H172674   2.263   2.577  16.728  0.1230  0.1512  1.4606
17061TIP3    H272675   2.301   2.676  16.836  1.0412  1.6928 -0.2098
17062TIP3   OH272676   3.085   1.338   1.164 -0.1835  0.1009  0.4160
17062TIP3    H172677   3.002   1.291   1.157 -0.1849  0.2539 -0.9222
17062TIP3    H272678   3.104   1.365   1.074  0.4080  1.6411  0.9786
17063TIP3   OH272679   1.845   3.338   1.735  0.2553 -0.3341 -0.6163
17063TIP3    H172680   1.796   3.356   1.815  2.6424 -0.5395  1.0235
17063TIP3    H272681   1.785   3.359   1.664 -0.7594  3.6790  1.1505
17064TIP3   OH272682   3.029   5.655  12.157 -0.2368  0.1924 -0.3505
17064TIP3    H172683   3.104   5.597  12.167 -1.1731 -1.2715 -1.3411
17064TIP3    H272684   2.964   5.620  12.219  0.1133  1.9194  1.0836
17065TIP3   OH272685   4.200   4.498   1.461  0.0180  0.0496 -0.3178
17065TIP3    H172686   4.196   4.408   1.493  0.7016  0.1142 -0.0249
17065TIP3    H272687   4.109   4.523   1.447 -0.1310 -0.9698 -1.2309
17066TIP3   OH272688   5.709   0.504  16.482 -0.6303  0.1421  0.2687
17066TIP3    H172689   5.649   0.492  16.408 -0.7177  0.6693  0.2495
17066TIP3    H272690   5.652   0.509  16.558 -0.5708  0.0360  0.3199
17067TIP3   OH272691   2.635   0.097   0.376  0.7239 -0.1056 -0.1891
17067TIP3    H172692   2.683   0.179   0.378  1.3482 -0.4615 -0.3004
17067TIP3    H272693   2.668   0.051   0.298 -1.2075  0.4724 -1.4449
17068TIP3   OH272694   6.665   4.765   4.439 -0.1098 -0.5613  0.1039
17068TIP3    H172695   6.677   4.813   4.521 -3.2417 -0.3878  0.5700
17068TIP3    H272696   6.621   4.827   4.381  1.2137 -0.9954 -1.4388
17069TIP3   OH272697   3.413   4.812  11.796  0.1663  0.3074 -0.3392
17069TIP3    H172698   3.401   4.728  11.841 -0.1633 -0.0064 -0.9967
17069TIP3    H272699   3.420   4.876  11.867 -0.7472 -0.1208  0.1525
17070TIP3   OH272700   3.951   6.090  12.276  0.0124  0.0465 -0.2983
17070TIP3    H172701   3.955   6.000  12.310 -0.6510  0.5956  1.3474
17070TIP3    H272702   4.042   6.117  12.268  0.2258 -0.8273 -1.0103
17071TIP3   OH272703   1.896   0.397   4.313  0.1650 -0.1612  0.0508
17071TIP3    H172704   1.951   0.319   4.304 -1.8106 -1.3881 -3.5542
17071TIP3    H272705   1.814   0.364   4.349 -0.8041  0.0747 -1.8107
17072TIP3   OH272706   6.120   2.004   0.279 -0.1845  0.1122  0.0130
17072TIP3    H172707   6.163   2.066   0.220  0.4128  0.7840  1.1202
17072TIP3    H272708   6.030   2.035   0.287 -0.0673  0.4454  0.0240
17073TIP3   OH272709   3.987   1.466   5.570 -0.0964 -0.0047 -0.1864
17073TIP3    H172710   3.898   1.498   5.552 -1.0204 -1.7767  0.9497
17073TIP3    H272711   4.036   1.485   5.490 -1.9243 -0.4441 -1.4864
17074TIP3   OH272712   3.441   1.672  13.453  0.1186 -0.2427 -0.1370
17074TIP3    H172713   3.440   1.609  13.380  0.1866 -1.1775  0.6483
17074TIP3    H272714   3.485   1.626  13.524 -0.5313  0.4146  0.7101
17075TIP3   OH272715   0.748   6.707   5.275 -0.6494 -0.0163 -0.3507
17075TIP3    H172716   0.803   6.639   5.315  3.0210  1.1757 -2.8587
17075TIP3    H272717   0.763   6.785   5.329  0.9733  0.5294 -1.5146
17076TIP3   OH272718   0.127   3.661  16.713  0.7513  0.2977  0.1482
17076TIP3    H172719   0.090   3.747  16.692  2.3760  0.5482 -1.9987
17076TIP3    H272720   0.107   3.649  16.806 -1.3642  2.0334 -0.0003
17077TIP3   OH272721   6.801   0.788  13.160 -0.5668 -0.4568  0.1544
17077TIP3    H172722   6.892   0.798  13.189 -0.6438 -1.2535  0.7310
17077TIP3    H272723   6.781   0.869  13.114  0.8960 -0.8364 -1.2480
17078TIP3   OH272724   1.830   1.227   5.942 -0.6554  0.5886 -0.0168
17078TIP3    H172725   1.840   1.254   6.033 -1.4170  1.3819 -0.1561
17078TIP3    H272726   1.798   1.137   5.947  0.9247  0.0078  0.4660
17079TIP3   OH272727   0.666   2.732   2.048  0.3649 -0.6160  0.1589
17079TIP3    H172728   0.657   2.798   1.979 -2.6365  1.3339  2.1826
17079TIP3    H272729   0.761   2.725   2.062  0.8649  2.1550 -1.1829
17080TIP3   OH272730   1.843   0.217   1.982 -0.6003 -0.0842  0.2027
17080TIP3    H172731   1.753   0.192   2.002 -0.8443  1.7415  1.7008
17080TIP3    H272732   1.851   0.203   1.887 -1.8531 -1.9690  0.3248
17081TIP3   OH272733   3.276   6.676  16.310  0.1846 -0.1889  0.0571
17081TIP3    H172734   3.330   6.675  16.230 -0.2375 -1.6857 -0.2465
17081TIP3    H272735   3.340   6.672  16.381  0.6726  3.0274 -0.0509
17082TIP3   OH272736   5.268   4.624  14.036  0.3068  0.1724 -0.0744
17082TIP3    H172737   5.245   4.623  14.129 -0.6011 -1.3018 -0.2818
17082TIP3    H272738   5.198   4.574  13.994 -0.0277  1.9521 -1.7477
17083TIP3   OH272739   5.186   5.910   2.299  0.7530  0.2146  0.3342
17083TIP3    H172740   5.160   5.818   2.291  0.8660  0.1670  0.5145
17083TIP3    H272741   5.159   5.935   2.388  0.6171  0.3893  0.2446
17084TIP3   OH272742   3.859   5.831   1.942  0.2551 -0.2330 -0.3035
17084TIP3    H172743   3.853   5.918   1.981 -0.4367 -0.0510 -0.8114
17084TIP3    H272744   3.904   5.844   1.859  2.2983 -0.7113  0.6655
17085TIP3   OH272745   4.386   5.325  14.565  0.0845  1.0139 -0.6785
17085TIP3    H172746   4.383   5.359  14.654  0.3056 -0.0260 -0.2637
17085TIP3    H272747   4.295   5.309  14.542 -0.0182  1.8409 -0.8651
17086TIP3   OH272748   6.316   0.859   6.050  0.3029 -0.0345  0.3230
17086TIP3    H172749   6.246   0.917   6.081 -0.2938  0.1049 -1.1768
17086TIP3    H272750   6.385   0.867   6.116 -0.6756  0.6324  1.3071
17087TIP3   OH272751   3.170   6.394   5.043  0.0965  0.0971  0.2388
17087TIP3    H172752   3.104   6.464   5.042 -0.2493 -0.2307 -0.0317
17087TIP3    H272753   3.119   6.313   5.036  0.5062 -0.1750  0.3915
17088TIP3   OH272754   1.110   6.033  12.217 -0.0399  0.0763  0.2542
17088TIP3    H172755   1.197   5.991  12.214  0.8936  1.9636 -0.7763
17088TIP3    H272756   1.108   6.089  12.140 -3.2109 -1.7587 -1.2072
17089TIP3   OH272757   4.617   0.220  16.657  0.0621  0.6560 -0.2047
17089TIP3    H172758   4.539   0.256  16.616  0.4962  0.1477 -1.5283
17089TIP3    H272759   4.622   0.130  16.626  1.5948  0.9087 -0.8240
17090TIP3   OH272760   1.134   5.283  13.536 -0.4775  0.4266 -0.5178
17090TIP3    H172761   1.221   5.322  13.531  0.7192 -1.9601  0.1509
17090TIP3    H272762   1.106   5.299  13.627  0.4277 -0.9978  0.0450
17091TIP3   OH272763   0.679   0.082   1.272  0.2383  0.0036 -0.0587
17091TIP3    H172764   0.602   0.121   1.231  0.4385  0.0951 -0.3535
17091TIP3    H272765   0.649  -0.004   1.302  0.1791 -0.2247 -0.7358
17092TIP3   OH272766   2.804   3.673  13.154 -0.4380  0.3366  0.2723
17092TIP3    H172767   2.837   3.761  13.141 -0.0079  0.2701  0.8665
17092TIP3    H272768   2.723   3.684  13.204 -0.8301  0.4397 -0.3716
17093TIP3   OH272769   5.150   0.910  16.701 -0.3095 -0.1874 -0.6835
17093TIP3    H172770   5.058   0.915  16.724 -0.2273  0.4629 -0.4643
17093TIP3    H272771   5.197   0.935  16.780  0.1491 -2.6369 -0.1247
17094TIP3   OH272772   0.938   6.620  13.667  0.0669 -0.4186  0.1258
17094TIP3    H172773   0.966   6.565  13.594  0.3695 -1.4842  1.0336
17094TIP3    H272774   0.895   6.695  13.625 -1.8759 -2.1306 -1.1148
17095TIP3   OH272775   6.110   6.277  16.790  0.5002  0.4328  0.0578
17095TIP3    H172776   6.086   6.317  16.873  0.7718  1.4752 -0.3437
17095TIP3    H272777   6.034   6.225  16.765  0.0557  0.8581  0.5090
17096TIP3   OH272778   0.552   2.136  16.919  0.2059  0.2025  0.3456
17096TIP3    H172779   0.495   2.173  16.987  0.1548  2.2544 -0.7308
17096TIP3    H272780   0.492   2.108  16.850  0.3991  2.0192 -0.6245
17097TIP3   OH272781   3.965   3.993   1.383  0.4582  0.0473  0.0532
17097TIP3    H172782   4.028   3.922   1.370  1.0008  0.6864 -0.9419
17097TIP3    H272783   3.968   4.043   1.301 -1.4078  0.0520 -0.0482
17098TIP3   OH272784   2.151   4.880   2.613  0.3348  0.0899 -0.1163
17098TIP3    H172785   2.207   4.815   2.570  0.0139  0.8239 -1.7115
17098TIP3    H272786   2.090   4.908   2.544 -0.9496  0.4889  1.1410
17099TIP3   OH272787   0.785   2.911   6.169  0.4172 -0.3853 -0.4785
17099TIP3    H172788   0.761   2.844   6.234  0.8295 -0.7814 -0.7277
17099TIP3    H272789   0.715   2.909   6.105 -0.0124  0.0330 -0.0333
17100TIP3   OH272790   4.009   5.544  13.897  0.3149 -0.1100 -0.3877
17100TIP3    H172791   3.980   5.624  13.853 -0.5976  0.2167  0.7837
17100TIP3    H272792   3.937   5.482  13.886  1.4258 -1.2016 -2.2149
17101TIP3   OH272793   6.553   1.694  10.413  0.4220  0.4790  0.0975
17101TIP3    H172794   6.512   1.611  10.439 -0.0800  0.9249  0.7602
17101TIP3    H272795   6.492   1.761  10.442  0.8832  1.0895 -0.3293
17102TIP3   OH272796   4.178   3.825   3.132  0.1846 -0.3538  0.1285
17102TIP3    H172797   4.170   3.920   3.133 -0.5306 -0.3849 -0.9732
17102TIP3    H272798   4.264   3.808   3.092  0.0328 -0.1779 -0.2730
17103TIP3   OH272799   4.072   2.070  12.143  0.4288  0.3165  0.3329
17103TIP3    H172800   4.032   2.055  12.229 -2.2390  1.9377 -0.4785
17103TIP3    H272801   4.114   2.156  12.150  1.5970 -0.2518  0.4418
17104TIP3   OH272802   6.212   4.941  12.955 -0.1749 -0.4323  0.1556
17104TIP3    H172803   6.177   5.029  12.942  2.4017  0.7555  0.6656
17104TIP3    H272804   6.198   4.923  13.048  0.8690  0.2000  0.4438
17105TIP3   OH272805   2.165   4.386   3.443 -0.1008  0.0305  0.2091
17105TIP3    H172806   2.172   4.329   3.366  2.7004  0.1652  0.2646
17105TIP3    H272807   2.242   4.443   3.437  1.0400 -0.9094  3.8356
17106TIP3   OH272808   4.998   3.128  13.879 -0.3530 -0.3380 -0.6910
17106TIP3    H172809   5.017   3.124  13.785 -0.1875 -1.9924 -0.6129
17106TIP3    H272810   5.061   3.069  13.920  0.5049  1.4319  0.6523
17107TIP3   OH272811   2.994   3.881  13.116 -0.3637  0.0664 -0.6325
17107TIP3    H172812   3.031   3.917  13.035 -0.4911 -1.3204 -1.3473
17107TIP3    H272813   3.046   3.802  13.133 -1.2367 -0.4259 -0.1473
17108TIP3   OH272814   5.709   2.972   5.010  0.3678 -0.5737  0.0240
17108TIP3    H172815   5.795   2.989   5.046 -0.6121  1.7155  1.5073
17108TIP3    H272816   5.667   2.914   5.073  0.1898 -0.1933  0.2555
17109TIP3   OH272817   6.456   0.106   1.110  0.1358 -0.4934 -0.4684
17109TIP3    H172818   6.495   0.069   1.031  0.6141 -2.0074  0.4500
17109TIP3    H272819   6.448   0.032   1.170 -0.6977  0.5273  0.7255
17110TIP3   OH272820   4.282   4.805  11.411  0.4250 -0.4384 -0.1309
17110TIP3    H172821   4.259   4.732  11.468 -0.4797 -0.3135 -0.3237
17110TIP3    H272822   4.252   4.778  11.324 -0.4797  0.4042 -0.0983
17111TIP3   OH272823   4.441   6.624   4.810  0.1374 -0.4812 -0.2806
17111TIP3    H172824   4.462   6.531   4.801  2.4423 -0.0947  0.5782
17111TIP3    H272825   4.451   6.642   4.903 -2.3716  0.2318 -0.0623
17112TIP3   OH272826   1.827   6.843  15.657  0.1029 -0.8089 -0.1544
17112TIP3    H172827   1.828   6.772  15.593  0.1598 -0.8125 -0.1497
17112TIP3    H272828   1.829   6.923  15.604  3.1295 -0.7712 -0.1558
17113TIP3   OH272829   5.024   2.717  15.766  0.2735  0.5006  0.4252
17113TIP3    H172830   5.012   2.695  15.859  1.0544  1.2206  0.7141
17113TIP3    H272831   5.063   2.638  15.728 -1.2532 -0.2758  0.4026
17114TIP3   OH272832   0.257   5.667   4.128  0.2216 -0.0554  0.4488
17114TIP3    H172833   0.330   5.606   4.138  0.3085  0.2708  2.0650
17114TIP3    H272834   0.267   5.702   4.039  1.4947 -0.6797  0.3205
17115TIP3   OH272835   1.284   2.839   1.442  0.1047  0.4621  0.0475
17115TIP3    H172836   1.365   2.822   1.490 -0.9326  0.5307  1.9575
17115TIP3    H272837   1.247   2.916   1.486  0.5713  2.5515 -2.9319
17116TIP3   OH272838   5.570   0.537   6.067  0.5904  0.1524 -0.0563
17116TIP3    H172839   5.602   0.494   6.146  0.7641  0.1444 -0.1296
17116TIP3    H272840   5.649   0.573   6.026  0.5030  0.1481 -0.2293
17117TIP3   OH272841   0.998   6.207   1.650 -0.3459  0.3596 -0.8133
17117TIP3    H172842   0.937   6.160   1.707 -1.0063  1.1992 -0.8092
17117TIP3    H272843   1.033   6.277   1.705 -0.5291  0.8043 -1.2558
17118TIP3   OH272844   5.470   0.680  13.766  0.1213 -0.6183 -0.0882
17118TIP3    H172845   5.542   0.687  13.829 -1.1119  0.5579  1.2500
17118TIP3    H272846   5.440   0.590  13.774  1.0379 -0.9495 -0.2210
17119TIP3   OH272847   5.483   2.471   2.561  0.6336  0.3202  0.0332
17119TIP3    H172848   5.450   2.390   2.599 -0.3166  0.6095 -0.1340
17119TIP3    H272849   5.558   2.444   2.508 -0.5691 -0.6911 -1.2466
17120TIP3   OH272850   0.995   6.661  11.432 -0.6235 -0.6870  0.5074
17120TIP3    H172851   0.906   6.685  11.407 -0.5561 -0.5069  0.4389
17120TIP3    H272852   1.049   6.688  11.358 -0.3231  0.6188  1.1798
17121TIP3   OH272853   5.142   1.744   2.585  0.8222 -0.5217  0.2024
17121TIP3    H172854   5.170   1.672   2.641  0.5247 -2.4583 -1.9689
17121TIP3    H272855   5.050   1.758   2.609  0.2205 -2.4196 -0.7850
17122TIP3   OH272856   4.692   2.364   3.049  0.7429 -0.0007  0.3281
17122TIP3    H172857   4.609   2.398   3.017  0.9156  0.4005  0.3031
17122TIP3    H272858   4.704   2.403   3.135  1.2056  0.4493  0.0689
17123TIP3   OH272859   6.835   4.102  16.315  0.1495 -0.1908 -0.6675
17123TIP3    H172860   6.813   4.138  16.401  1.4069  0.2591 -0.5025
17123TIP3    H272861   6.869   4.014  16.334  0.1687 -0.1973 -0.7314
17124TIP3   OH272862   5.126   2.954  15.650 -0.1186 -0.2594 -0.5639
17124TIP3    H172863   5.132   2.876  15.705  2.4856 -1.3894 -2.2259
17124TIP3    H272864   5.032   2.969  15.640 -0.7427 -3.2059 -0.1571
17125TIP3   OH272865   4.702   2.001   1.374  0.1550  0.4149 -0.4529
17125TIP3    H172866   4.774   1.939   1.385  0.2403  0.5882 -0.0102
17125TIP3    H272867   4.723   2.048   1.294  1.6447  1.9079  0.7351
17126TIP3   OH272868   1.667   6.840   2.905  0.0114  0.0706 -0.1871
17126TIP3    H172869   1.638   6.900   2.837 -2.1173  2.5985  2.6450
17126TIP3    H272870   1.763   6.843   2.901  0.0395 -1.3723 -4.0790
17127TIP3   OH272871   0.596   4.371   3.560 -0.0691 -0.5766 -0.0518
17127TIP3    H172872   0.653   4.295   3.569  0.6680 -0.1089 -0.5841
17127TIP3    H272873   0.612   4.402   3.470 -1.8288 -0.9563 -0.5356
17128TIP3   OH272874   6.071   5.213   2.590  0.7343 -0.3368 -0.3973
17128TIP3    H172875   6.111   5.216   2.677  0.9632  0.3633 -0.5210
17128TIP3    H272876   5.985   5.253   2.603  1.4336  1.4035 -0.8246
17129TIP3   OH272877   0.772   4.195  15.614  0.0022  0.3682  0.9397
17129TIP3    H172878   0.811   4.142  15.683 -0.4967 -0.8261  0.3412
17129TIP3    H272879   0.755   4.280  15.656  1.4159  0.2943  1.7359
17130TIP3   OH272880   4.518   2.122   6.014 -0.1673 -0.1262  0.0235
17130TIP3    H172881   4.492   2.212   5.995  0.5612  0.0688 -0.0460
17130TIP3    H272882   4.597   2.130   6.068  0.9851 -0.7315 -1.5144
17131TIP3   OH272883   6.078   2.805  12.500  0.2496  0.7500  0.3286
17131TIP3    H172884   6.102   2.730  12.554  1.5554  0.8887 -0.0268
17131TIP3    H272885   6.060   2.875  12.563  1.6065  0.8672  0.6034
17132TIP3   OH272886   3.587   0.610   0.017  0.2324 -0.0054 -0.9648
17132TIP3    H172887   3.491   0.602   0.020  0.0795  1.1389 -2.0648
17132TIP3    H272888   3.603   0.705   0.016  1.3773 -0.1868 -0.8905
17133TIP3   OH272889   2.295   2.984   4.186  0.0080 -0.4729 -0.6688
17133TIP3    H172890   2.221   2.967   4.244 -0.6229  0.3825 -1.2092
17133TIP3    H272891   2.365   3.014   4.244  0.2412 -2.1392 -0.0431
17134TIP3   OH272892   1.964   4.195  10.447 -0.6355  0.0285  0.4017
17134TIP3    H172893   1.922   4.257  10.507 -0.2025  0.8410 -0.1033
17134TIP3    H272894   1.956   4.110  10.490  0.1795  0.6670  1.9139
17135TIP3   OH272895   3.847   3.966   0.255 -0.6528 -0.0105  0.3766
17135TIP3    H172896   3.907   4.022   0.304 -0.0493 -1.6319  1.6009
17135TIP3    H272897   3.817   3.901   0.320 -2.0383 -0.5371 -0.7447
17136TIP3   OH272898   1.105   4.583   3.931  0.1716  0.4501 -0.3385
17136TIP3    H172899   1.125   4.670   3.895  0.7123 -0.1826 -1.6579
17136TIP3    H272900   1.186   4.554   3.972  0.4416  0.0101 -1.1483
17137TIP3   OH272901   5.478   1.971  11.618  0.0237  0.0049  0.2293
17137TIP3    H172902   5.470   1.926  11.534 -1.2418  0.6002  0.0147
17137TIP3    H272903   5.572   1.989  11.627  0.3122 -1.0839 -0.5040
17138TIP3   OH272904   3.411   2.076   0.576 -0.4429  0.1047  0.1262
17138TIP3    H172905   3.341   2.137   0.598  0.0619  0.7553 -0.0132
17138TIP3    H272906   3.367   2.005   0.529 -0.9064  0.9101 -0.7063
17139TIP3   OH272907   1.774   5.859   2.078 -0.1206 -0.3549 -0.3712
17139TIP3    H172908   1.783   5.764   2.082  1.3600 -0.2226 -0.1093
17139TIP3    H272909   1.703   5.879   2.139  1.0050 -1.1356  1.2817
17140TIP3   OH272910   0.794   4.743  13.875  0.5782 -0.7001  0.4161
17140TIP3    H172911   0.879   4.733  13.832  0.3713 -0.2083 -0.1062
17140TIP3    H272912   0.812   4.797  13.952  0.7579 -0.6764  0.3577
17141TIP3   OH272913   1.771   2.347   4.886  0.2033 -0.1008  0.1681
17141TIP3    H172914   1.732   2.314   4.967  0.3892 -0.6316  0.0462
17141TIP3    H272915   1.763   2.273   4.824 -3.8863  1.5661 -1.6988
17142TIP3   OH272916   3.735   4.428   5.315  0.0486  0.1606  0.2541
17142TIP3    H172917   3.764   4.337   5.318  1.0478  0.2026 -3.1732
17142TIP3    H272918   3.661   4.427   5.254 -1.7025  1.3564  2.2229
17143TIP3   OH272919   4.715   6.630  13.271 -0.4811  0.0515  0.7193
17143TIP3    H172920   4.767   6.572  13.325  0.7306  0.7888  0.3829
17143TIP3    H272921   4.638   6.651  13.324 -1.2877 -2.3044  0.6135
17144TIP3   OH272922   2.346   3.500  14.663  0.5190 -0.0204  0.3313
17144TIP3    H172923   2.391   3.521  14.582 -0.8774 -0.0343 -0.4790
17144TIP3    H272924   2.415   3.500  14.730  2.4582 -3.7253 -1.3496
17145TIP3   OH272925   2.526   5.167   6.336 -0.3240  0.1718 -0.3905
17145TIP3    H172926   2.546   5.220   6.259  0.6763 -0.2731 -0.4546
17145TIP3    H272927   2.608   5.122   6.357 -1.0450 -1.0868 -0.1300
17146TIP3   OH272928   0.979   4.043  16.627 -0.9715 -0.1017  0.2121
17146TIP3    H172929   0.977   4.099  16.549  0.7049 -1.3291 -0.8009
17146TIP3    H272930   1.038   4.087  16.687  0.8027 -0.9467 -0.8115
17147TIP3   OH272931   2.355   6.605  11.381  0.0061 -0.2627  0.2211
17147TIP3    H172932   2.326   6.665  11.450 -1.7512 -0.6993 -0.0954
17147TIP3    H272933   2.376   6.662  11.307  1.2818  0.1570  0.8723
17148TIP3   OH272934   5.674   1.388  15.437  0.0195 -0.0086 -0.1811
17148TIP3    H172935   5.716   1.405  15.521 -1.0476 -0.0490  0.3857
17148TIP3    H272936   5.606   1.455  15.431 -0.5179 -0.5787 -0.5757
17149TIP3   OH272937   2.941   2.488   3.607  0.1366  0.3882 -0.0623
17149TIP3    H172938   2.952   2.445   3.692 -1.1458  1.0774  0.4749
17149TIP3    H272939   3.015   2.549   3.602 -0.0523  0.6969  0.7886
17150TIP3   OH272940   3.220   2.775   6.513 -0.7204  0.2799 -0.4511
17150TIP3    H172941   3.147   2.836   6.505 -0.1795  0.8187 -1.4891
17150TIP3    H272942   3.249   2.783   6.604 -1.6050  0.4527 -0.1809
17151TIP3   OH272943   3.896   3.018   1.232  0.0524  0.6240 -0.0815
17151TIP3    H172944   3.954   3.092   1.215 -0.6530  0.6260 -3.1321
17151TIP3    H272945   3.912   2.958   1.159 -0.7848 -1.3502  1.2626
17152TIP3   OH272946   3.349   5.231  15.653  0.1846  0.8840  0.4062
17152TIP3    H172947   3.268   5.182  15.637  0.9207 -0.7448  1.4615
17152TIP3    H272948   3.324   5.322  15.637 -1.5471  0.3206 -0.4389
17153TIP3   OH272949   6.049   2.892  16.734 -0.8079 -0.2305  0.5848
17153TIP3    H172950   6.049   2.843  16.652 -1.0613 -1.7184  1.4319
17153TIP3    H272951   6.020   2.980  16.710 -3.0055 -1.1920 -0.6254
17154TIP3   OH272952   5.439   2.869   4.286  0.3603  0.1528 -0.6333
17154TIP3    H172953   5.447   2.807   4.214 -2.4944  1.2816 -2.0583
17154TIP3    H272954   5.348   2.863   4.313  1.0870  0.5701  2.2135
17155TIP3   OH272955   3.734   4.028  16.937  0.6693 -0.3335 -0.1385
17155TIP3    H172956   3.676   4.002  17.008 -0.1958 -0.3862 -0.8457
17155TIP3    H272957   3.766   4.115  16.962 -0.8814  0.3549 -0.4051
17156TIP3   OH272958   4.402   5.710   0.511 -0.2883 -0.0837  0.2863
17156TIP3    H172959   4.350   5.768   0.454  0.4372 -0.5799 -0.9270
17156TIP3    H272960   4.465   5.768   0.553  2.0099 -0.1727 -2.7088
17157TIP3   OH272961   6.792   6.823   4.436 -0.0735  0.1219  0.0583
17157TIP3    H172962   6.788   6.737   4.477 -0.1111  1.1630  2.3948
17157TIP3    H272963   6.884   6.847   4.439 -0.5010  1.8765  3.4489
17158TIP3   OH272964   1.847   6.300  10.665  0.8503 -0.2172  0.0039
17158TIP3    H172965   1.771   6.247  10.687  0.4021  0.7550  0.9055
17158TIP3    H272966   1.913   6.274  10.730  0.9366 -0.3344 -0.1317
17159TIP3   OH272967   2.514   0.028  12.702 -0.3586 -0.1247  0.3448
17159TIP3    H172968   2.449  -0.035  12.670 -0.0577 -0.7532  0.9472
17159TIP3    H272969   2.462   0.098  12.740 -0.7066  0.2625 -0.8046
17160TIP3   OH272970   2.054   5.321  14.702 -0.1143 -0.8846  0.2388
17160TIP3    H172971   2.092   5.349  14.619 -0.7168 -1.3826 -0.2137
17160TIP3    H272972   1.978   5.268  14.677  0.9194 -2.8327  1.0505
17161TIP3   OH272973   0.647   2.319   4.503 -0.2665  0.2224  0.3053
17161TIP3    H172974   0.736   2.306   4.537 -0.2789  2.0819  1.1983
17161TIP3    H272975   0.660   2.369   4.423 -0.4710 -0.3913 -0.1180
17162TIP3   OH272976   1.045   1.523  11.327  0.2604 -0.1814  0.8495
17162TIP3    H172977   0.951   1.522  11.344  0.0512  0.5153 -0.2058
17162TIP3    H272978   1.085   1.540  11.412 -0.4987 -1.6034  1.5262
17163TIP3   OH272979   2.837   3.887  11.980 -0.1055  0.1178  0.1328
17163TIP3    H172980   2.886   3.850  11.906  0.0510  2.1121 -0.8336
17163TIP3    H272981   2.746   3.863  11.963  0.3561 -3.7047  1.9942
17164TIP3   OH272982   5.861   6.722  13.042  0.0907 -0.0240 -0.0176
17164TIP3    H172983   5.932   6.676  12.997 -0.6946 -0.7466 -0.5475
17164TIP3    H272984   5.782   6.693  12.996 -0.5759  0.4674  0.8150
17165TIP3   OH272985   6.697   5.889  14.825 -0.5174  0.0409  0.3759
17165TIP3    H172986   6.638   5.861  14.895  0.5258 -1.0114  0.8741
17165TIP3    H272987   6.730   5.974  14.853 -1.8767  0.7297  0.0088
17166TIP3   OH272988   3.066   6.398   3.833  0.1910  0.9439 -0.1916
17166TIP3    H172989   2.974   6.384   3.857  0.1679  0.2502 -0.6638
17166TIP3    H272990   3.063   6.443   3.749  0.2016 -2.8563 -2.4577
17167TIP3   OH272991   4.742   6.231   0.132 -0.2027 -0.6161  0.2169
17167TIP3    H172992   4.804   6.289   0.088 -0.3318 -0.9887 -0.4681
17167TIP3    H272993   4.744   6.151   0.081 -3.2268  0.2536 -1.4636
17168TIP3   OH272994   0.608   0.728   1.041 -0.5432 -0.2678  0.3894
17168TIP3    H172995   0.555   0.808   1.042  0.1721  0.2353 -0.6686
17168TIP3    H272996   0.589   0.687   0.957 -0.5462 -0.9798  0.7251
17169TIP3   OH272997   5.421   5.006   1.769 -0.1297 -0.6378  0.0260
17169TIP3    H172998   5.413   5.101   1.768  2.9408 -0.2553 -2.0188
17169TIP3    H272999   5.466   4.985   1.850  0.5373 -0.1557 -0.2152
17170TIP3   OH273000   3.364   2.009  14.310 -0.5839  0.3818 -0.2776
17170TIP3    H173001   3.315   2.053  14.241 -1.7346 -1.3883 -0.6487
17170TIP3    H273002   3.301   1.999  14.381 -1.0577 -2.4551 -0.9792
17171TIP3   OH273003   4.534   4.092  16.391  0.5392  0.0658 -0.5227
17171TIP3    H173004   4.546   4.027  16.460  1.6405  1.9034  1.1111
17171TIP3    H273005   4.598   4.161  16.411 -0.1231  1.3573 -2.5360
17172TIP3   OH273006   3.154   2.047   4.187 -0.2258  0.3740  0.0535
17172TIP3    H173007   3.110   1.972   4.226  0.3783 -0.7658 -1.3589
17172TIP3    H273008   3.095   2.077   4.117  0.3823 -0.0212 -0.6504
17173TIP3   OH273009   3.302   0.841   4.680  0.1669  0.1579 -0.1681
17173TIP3    H173010   3.352   0.887   4.748  1.4624 -1.4292  0.0181
17173TIP3    H273011   3.363   0.832   4.607 -0.1072 -1.0740 -0.2684
17174TIP3   OH273012   5.542   2.469   4.849  0.1956  0.1554 -0.6769
17174TIP3    H173013   5.507   2.434   4.932 -0.4834  3.8063  0.7512
17174TIP3    H273014   5.467   2.473   4.791  0.2881 -0.6548 -0.8725
17175TIP3   OH273015   3.597   5.185  16.261 -0.2214  0.0652 -0.0861
17175TIP3    H173016   3.645   5.225  16.188  0.4153  2.5541  1.5679
17175TIP3    H273017   3.664   5.139  16.311 -0.4662 -0.7231 -0.4750
17176TIP3   OH273018   3.589   1.226  10.640  0.0671  0.7136  0.0619
17176TIP3    H173019   3.523   1.176  10.689  1.7761 -1.5869  0.2023
17176TIP3    H273020   3.564   1.214  10.548  0.9528 -1.2768  0.0356
17177TIP3   OH273021   0.849   5.652   5.410 -0.2372 -0.8073 -0.6311
17177TIP3    H173022   0.920   5.698   5.454 -0.9432  0.9602 -1.2530
17177TIP3    H273023   0.882   5.563   5.399  1.1135 -0.5274  0.7752
17178TIP3   OH273024   0.435   4.536  16.411 -0.0665  0.1885  0.1640
17178TIP3    H173025   0.508   4.595  16.431 -0.9003  1.0709  0.7135
17178TIP3    H273026   0.401   4.567  16.327  0.8407 -0.9066 -0.6404
17179TIP3   OH273027   1.634   6.324  16.314 -0.0040  0.5081  0.1225
17179TIP3    H173028   1.646   6.419  16.321  0.0855  0.3965  2.0293
17179TIP3    H273029   1.616   6.296  16.403 -0.0162 -1.2920 -0.4109
17180TIP3   OH273030   5.761   0.002   1.648 -0.1227  0.0332 -0.4307
17180TIP3    H173031   5.670  -0.027   1.645  0.1673 -1.1960  1.3476
17180TIP3    H273032   5.810  -0.069   1.605  0.0674  0.3726 -0.7795
17181TIP3   OH273033   3.605   3.369  15.121  0.1307  0.3921 -0.3597
17181TIP3    H173034   3.655   3.325  15.052  0.2575  0.2836 -0.1976
17181TIP3    H273035   3.670   3.395  15.186 -0.1476 -0.8429  0.4451
17182TIP3   OH273036   6.228   5.808  16.091 -0.3109  0.2188 -0.4661
17182TIP3    H173037   6.302   5.749  16.075  0.9428  1.3005  1.0282
17182TIP3    H273038   6.255   5.891  16.052 -1.6409  0.1088 -1.6827
17183TIP3   OH273039   5.760   4.611  11.829  0.5836  0.0177  0.4299
17183TIP3    H173040   5.759   4.674  11.900 -1.3849 -0.0235  0.4886
17183TIP3    H273041   5.789   4.529  11.870  0.7838  0.3121  0.8834
17184TIP3   OH273042   5.694   6.435  13.325  0.4965 -0.2774 -0.2281
17184TIP3    H173043   5.602   6.412  13.311 -0.2181  1.6357  1.0477
17184TIP3    H273044   5.721   6.380  13.399  0.3134 -0.6686 -0.4473
17185TIP3   OH273045   5.334   5.717  11.416 -0.0535 -0.1317  0.3828
17185TIP3    H173046   5.366   5.632  11.388 -0.1437 -0.1865  0.4459
17185TIP3    H273047   5.238   5.708  11.415 -0.0475 -0.4303  1.6283
17186TIP3   OH273048   2.476   6.184   4.692  0.1906  0.1824  0.4630
17186TIP3    H173049   2.389   6.156   4.720  0.9756 -1.1603  1.6805
17186TIP3    H273050   2.486   6.273   4.726 -0.4830  0.1193  0.8258
17187TIP3   OH273051   3.781   3.516   5.750 -0.4798 -0.0038 -0.4872
17187TIP3    H173052   3.788   3.612   5.752 -0.5902  0.0027 -0.4336
17187TIP3    H273053   3.842   3.490   5.681  1.7963 -0.1032  1.4374
17188TIP3   OH273054   2.162   5.844   1.591  0.3829  0.6012  0.1826
17188TIP3    H173055   2.170   5.804   1.678 -0.0783 -1.7260 -0.7885
17188TIP3    H273056   2.068   5.846   1.574  0.5239 -0.0441 -0.7251
17189TIP3   OH273057   6.361   2.057   6.185  0.4420 -0.2178  0.4069
17189TIP3    H173058   6.332   2.088   6.271 -0.0879 -1.4691  0.7095
17189TIP3    H273059   6.438   2.004   6.204  0.7349  0.0662  0.0223
17190TIP3   OH273060   2.537   1.580  16.824 -0.1431 -0.3747  0.3867
17190TIP3    H173061   2.569   1.533  16.902 -1.3520 -0.7630  0.6661
17190TIP3    H273062   2.454   1.618  16.852 -0.2273  0.0993 -0.5063
17191TIP3   OH273063   1.055   1.845  15.767  0.8007  0.3533 -0.0838
17191TIP3    H173064   1.083   1.937  15.759  1.5636  0.1796  0.4486
17191TIP3    H273065   1.093   1.815  15.849  0.0317 -0.2696  0.0569
17192TIP3   OH273066   2.890   5.450   1.066 -0.5537 -0.1414 -0.5583
17192TIP3    H173067   2.803   5.426   1.097 -0.3304 -0.5912 -0.2735
17192TIP3    H273068   2.942   5.371   1.077  0.8416  1.0518  2.7164
17193TIP3   OH273069   1.756   6.603   4.578 -0.0129 -0.1237  0.2937
17193TIP3    H173070   1.774   6.688   4.617  2.1773 -1.0015  1.4030
17193TIP3    H273071   1.721   6.551   4.651 -0.0376 -0.5590 -0.0255
17194TIP3   OH273072   6.290   3.875   0.214  0.1795  0.1186 -0.1914
17194TIP3    H173073   6.208   3.827   0.205  0.4022 -0.7762  1.9326
17194TIP3    H273074   6.352   3.826   0.161 -0.4021  0.1802 -0.9470
17195TIP3   OH273075   2.723   2.350  15.337  0.1260  0.1123  0.4153
17195TIP3    H173076   2.654   2.284  15.345  0.1359  0.2785  2.2183
17195TIP3    H273077   2.693   2.408  15.267 -0.1677 -1.4335 -0.7974
17196TIP3   OH273078   4.975   5.171  13.926 -0.0018 -0.1394 -0.0712
17196TIP3    H173079   5.045   5.143  13.985  0.0324 -2.1739 -0.9941
17196TIP3    H273080   5.009   5.155  13.838 -0.0866  2.7488 -0.7037
17197TIP3   OH273081   1.038   0.932  16.034 -0.2411 -0.5590  0.0351
17197TIP3    H173082   1.021   0.841  16.010  1.3790 -0.5113 -1.5151
17197TIP3    H273083   1.043   0.932  16.130  0.5414 -2.2534  0.0162
17198TIP3   OH273084   0.275   3.930   1.300 -0.2526  0.0604 -0.2705
17198TIP3    H173085   0.234   4.015   1.284 -0.5349  0.0050  0.1282
17198TIP3    H273086   0.216   3.867   1.258 -0.4853 -0.0038  0.1427
17199TIP3   OH273087   4.050   5.604   0.017  0.3848  0.4617 -0.3509
17199TIP3    H173088   4.139   5.569   0.016 -0.5017 -1.9746 -0.8069
17199TIP3    H273089   4.011   5.573  -0.065 -1.2769  0.4058  0.4211
17200TIP3   OH273090   4.727   2.862  13.253  0.8421 -0.0914 -0.2120
17200TIP3    H173091   4.696   2.822  13.334  3.6248 -1.7693  0.1632
17200TIP3    H273092   4.683   2.813  13.183  0.9185 -0.9233  0.3035
17201TIP3   OH273093   2.601   5.950   3.904 -0.1544 -0.9572  0.6296
17201TIP3    H173094   2.594   5.988   3.992  0.3537 -0.8172  0.6152
17201TIP3    H273095   2.682   5.900   3.907 -0.2847 -1.1842  0.3237
17202TIP3   OH273096   1.890   5.429   4.140  0.0866  0.1830  0.5462
17202TIP3    H173097   1.919   5.345   4.176  1.2542  0.8745  1.2812
17202TIP3    H273098   1.799   5.438   4.169 -0.2941 -1.1566 -0.1706
17203TIP3   OH273099   2.446   6.260   6.230 -0.4523  0.1457  0.4788
17203TIP3    H173100   2.461   6.216   6.313 -0.3016 -0.6823  0.0249
17203TIP3    H273101   2.461   6.352   6.248 -0.1902 -0.0553  1.3097
17204TIP3   OH273102   3.521   2.983   4.809 -0.1636 -0.1352 -0.0137
17204TIP3    H173103   3.553   3.068   4.780  0.5952 -0.6123 -0.6323
17204TIP3    H273104   3.467   2.951   4.736  1.9445 -1.4457 -1.0923
17205TIP3   OH273105   3.823   4.938   3.111 -0.8809 -0.4132 -0.2443
17205TIP3    H173106   3.839   5.022   3.068 -0.4905 -0.6173 -0.5070
17205TIP3    H273107   3.883   4.878   3.068 -0.4041 -0.6037  0.6652
17206TIP3   OH273108   4.165   0.587  11.612 -1.0203  0.1015  0.3020
17206TIP3    H173109   4.162   0.534  11.533  0.0851  0.7126 -0.1789
17206TIP3    H273110   4.092   0.555  11.665 -0.6656 -1.5943 -0.1504
17207TIP3   OH273111   3.452   0.140   2.393  0.2490  0.2848 -0.3871
17207TIP3    H173112   3.539   0.109   2.368 -0.6622 -2.4436 -0.4904
17207TIP3    H273113   3.451   0.133   2.488  0.3879  1.0396 -0.3293
17208TIP3   OH273114   2.393   1.231  16.766  0.1513  0.2005  0.1848
17208TIP3    H173115   2.427   1.252  16.853 -1.3371 -0.4043  0.9674
17208TIP3    H273116   2.445   1.157  16.736  0.1161 -0.1495  0.9636
17209TIP3   OH273117   3.271   5.190  10.699  0.1896  0.1006  0.5722
17209TIP3    H173118   3.191   5.243  10.692  0.7426  0.7205 -2.7569
17209TIP3    H273119   3.246   5.104  10.667  0.5030 -0.1804  1.0698
17210TIP3   OH273120   1.198   5.455  12.520 -0.1374  0.1340  0.4227
17210TIP3    H173121   1.183   5.414  12.435  1.9992 -1.6058  0.8136
17210TIP3    H273122   1.218   5.546  12.499  2.0347 -0.6260 -1.1476
17211TIP3   OH273123   2.891   1.648   4.074  0.5638  0.1589  0.8198
17211TIP3    H173124   2.800   1.620   4.078 -0.2751  2.0680 -1.8967
17211TIP3    H273125   2.942   1.570   4.098 -1.7159 -1.1067  1.8457
17212TIP3   OH273126   6.531   3.191   5.438  0.2284  0.2314 -0.8257
17212TIP3    H173127   6.449   3.153   5.469  1.0333 -0.7341  0.2074
17212TIP3    H273128   6.597   3.124   5.456  1.2235  0.8962 -1.8390
17213TIP3   OH273129   0.612   1.277  13.851  0.7869 -0.4222 -0.3633
17213TIP3    H173130   0.688   1.227  13.881  0.1884 -1.9190 -1.2805
17213TIP3    H273131   0.625   1.288  13.757 -0.6094 -1.5884 -0.7198
17214TIP3   OH273132   2.856   4.769  10.945  0.6575  0.3615  0.0981
17214TIP3    H173133   2.871   4.722  10.863  0.4854  1.2378 -0.4421
17214TIP3    H273134   2.795   4.714  10.993  0.0893  0.2494 -0.7316
17215TIP3   OH273135   1.335   2.201  14.850 -0.0332 -0.2110 -0.3975
17215TIP3    H173136   1.338   2.207  14.946 -1.1248  0.0071 -0.3634
17215TIP3    H273137   1.369   2.113  14.831 -0.4462 -0.5185  0.2434
17216TIP3   OH273138   0.873   2.383  13.864 -0.4770  0.3254  0.0357
17216TIP3    H173139   0.784   2.356  13.887 -0.3773  0.7625  1.0190
17216TIP3    H273140   0.874   2.477  13.879  0.4909  0.1455  1.3040
17217TIP3   OH273141   2.423   0.395  11.854  0.1973 -0.2285  1.0850
17217TIP3    H173142   2.384   0.311  11.879  1.5391 -0.9596  0.8432
17217TIP3    H273143   2.500   0.370  11.802 -0.7568  1.1845 -1.1195
17218TIP3   OH273144   5.149   5.904  12.018 -0.2619  0.0395 -0.7683
17218TIP3    H173145   5.158   5.990  12.058  1.3024 -0.9503  1.1505
17218TIP3    H273146   5.238   5.882  11.989 -0.3088 -1.5581  0.2012
17219TIP3   OH273147   5.932   0.912   0.921 -0.1598 -0.5186 -0.4149
17219TIP3    H173148   6.010   0.896   0.867  1.1628 -1.1451  1.5843
17219TIP3    H273149   5.911   1.004   0.906  1.1055 -0.2737 -0.8312
17220TIP3   OH273150   3.490   4.532  13.562  0.3482  0.3208  0.7787
17220TIP3    H173151   3.510   4.512  13.653 -1.2186  1.5801  1.4550
17220TIP3    H273152   3.425   4.602  13.566 -0.1095  0.1007 -1.3121
17221TIP3   OH273153   0.856   4.500  15.495 -0.0504 -0.5313  0.6634
17221TIP3    H173154   0.942   4.500  15.453  0.9625 -1.4122  2.5784
17221TIP3    H273155   0.811   4.424  15.457  0.9034 -1.4071  1.2091
17222TIP3   OH273156   5.728   1.521  16.478  0.6768 -0.4062 -0.2121
17222TIP3    H173157   5.714   1.427  16.466 -2.2868 -0.4721  2.4904
17222TIP3    H273158   5.795   1.526  16.547 -1.0749 -0.7054  1.5945
17223TIP3   OH273159   4.198   4.485  10.357 -0.2114 -0.0770 -0.3117
17223TIP3    H173160   4.156   4.418  10.304  0.8114 -0.2273 -0.9579
17223TIP3    H273161   4.202   4.448  10.445  0.0578 -0.7348 -0.5970
17224TIP3   OH273162   2.572   5.575  12.406 -0.0935  0.1021  0.6815
17224TIP3    H173163   2.555   5.605  12.496 -0.2665  1.4279  0.2254
17224TIP3    H273164   2.485   5.562  12.368 -0.1069  2.2411 -0.1416
17225TIP3   OH273165   1.251   3.144  13.391 -0.7507  0.1944  0.4764
17225TIP3    H173166   1.315   3.173  13.456 -1.1205 -1.5000  1.6494
17225TIP3    H273167   1.304   3.101  13.324 -0.4468  1.1583  0.0797
17226TIP3   OH273168   3.887   2.216   0.766  0.2151 -0.5587  0.4482
17226TIP3    H173169   3.844   2.300   0.778 -0.5699 -0.7102 -1.0620
17226TIP3    H273170   3.821   2.160   0.725  1.5022 -1.0947 -1.0086
17227TIP3   OH273171   6.485   4.458  10.686  0.0103 -0.0441 -0.1441
17227TIP3    H173172   6.554   4.481  10.749  0.1630  2.5179 -1.1061
17227TIP3    H273173   6.532   4.417  10.613 -0.0453 -2.0955  0.9249
17228TIP3   OH273174   3.184   0.972  11.316  0.7795 -0.0004  0.4988
17228TIP3    H173175   3.183   1.067  11.322  0.9932  0.0242  0.1285
17228TIP3    H273176   3.101   0.950  11.273  1.4378  0.1191 -0.8747
17229TIP3   OH273177   6.310   1.376  17.011  0.0530 -0.5671  0.3540
17229TIP3    H173178   6.385   1.379  16.952  0.8999 -0.8786  1.3810
17229TIP3    H273179   6.257   1.304  16.979  0.6138 -0.8695  0.0908
17230TIP3   OH273180   3.268   1.575  12.285  0.5265  0.8471  0.9419
17230TIP3    H173181   3.275   1.666  12.315 -1.2773  0.9844  1.0276
17230TIP3    H273182   3.186   1.543  12.322 -0.4655  0.1787 -1.6309
17231TIP3   OH273183   2.508   4.287   1.772  0.1670  0.7354 -0.5902
17231TIP3    H173184   2.575   4.356   1.764  0.6852  0.4402  0.9902
17231TIP3    H273185   2.558   4.207   1.788 -0.4629  0.0277 -1.9863
17232TIP3   OH273186   0.580   4.564  12.474 -0.4315  0.0640  0.2645
17232TIP3    H173187   0.557   4.479  12.438  1.4919 -0.9007  1.1508
17232TIP3    H273188   0.502   4.592  12.523 -1.4603 -0.6569 -0.9159
17233TIP3   OH273189   4.264   6.310  16.954 -0.0376  0.0957 -0.5858
17233TIP3    H173190   4.174   6.310  16.985 -0.4182 -0.6914 -1.6209
17233TIP3    H273191   4.306   6.239  17.001 -0.2505 -0.2133 -0.8519
17234TIP3   OH273192   0.010   5.534  10.238 -0.2337  0.0756  0.2401
17234TIP3    H173193  -0.066   5.580  10.274 -0.0838  0.6860 -0.1990
17234TIP3    H273194   0.067   5.520  10.313 -0.5522  0.0677  0.4839
17235TIP3   OH273195   1.191   2.017   2.993  0.3185 -0.2055 -0.0508
17235TIP3    H173196   1.160   1.940   2.945 -0.2914 -0.2786  0.4506
17235TIP3    H273197   1.258   2.055   2.936 -1.1674  0.3629 -1.4812
17236TIP3   OH273198   5.029   0.576   2.035 -0.5386 -0.0372  0.4448
17236TIP3    H173199   4.993   0.663   2.052  0.5343  0.5457 -0.1787
17236TIP3    H273200   5.071   0.551   2.118  0.4545  0.7012  0.1822
17237TIP3   OH273201   0.454   3.512  13.959 -0.6001 -0.2165 -0.5246
17237TIP3    H173202   0.452   3.588  13.901 -0.6884  0.1946  0.0048
17237TIP3    H273203   0.376   3.521  14.013 -1.1597 -1.2420 -1.1368
17238TIP3   OH273204   6.770   4.973  13.643 -0.0550  0.0116  0.5709
17238TIP3    H173205   6.731   4.982  13.556  2.2335 -0.8498 -0.6321
17238TIP3    H273206   6.713   4.910  13.688  1.0106 -3.0448 -1.9383
17239TIP3   OH273207   5.408   1.739  10.821 -0.3240 -0.0754  0.2658
17239TIP3    H173208   5.318   1.754  10.848 -0.4301 -0.9895  0.4692
17239TIP3    H273209   5.456   1.815  10.852 -0.8702  0.0020  0.9395
17240TIP3   OH273210   5.342   0.162  14.697 -0.7325  0.1953 -0.1443
17240TIP3    H173211   5.276   0.145  14.629  1.7742 -0.7332 -2.5712
17240TIP3    H273212   5.356   0.077  14.738 -0.3172  0.1426 -0.3869
17241TIP3   OH273213   0.108   0.964   4.853 -0.0133  0.5074  0.5304
17241TIP3    H173214   0.090   1.046   4.899 -2.2913 -1.0749  2.7203
17241TIP3    H273215   0.173   0.988   4.786 -0.4684  4.0153  1.1431
17242TIP3   OH273216   6.009   3.269   0.052 -0.0605  0.5130 -0.2033
17242TIP3    H173217   5.999   3.224  -0.032  3.1780 -0.5503 -0.1535
17242TIP3    H273218   6.021   3.198   0.116  1.3090  1.3601  0.5212
17243TIP3   OH273219   6.322   1.031   1.126  0.7154  0.1412  0.2158
17243TIP3    H173220   6.306   1.071   1.040 -0.6242 -0.8818 -0.0462
17243TIP3    H273221   6.415   1.007   1.123  1.0225  1.3139 -0.4174
17244TIP3   OH273222   0.118   2.214   0.473 -0.0423  0.2474 -0.0936
17244TIP3    H173223   0.100   2.306   0.489 -0.2488  0.4100 -1.1928
17244TIP3    H273224   0.036   2.170   0.495  0.4781  0.1165  1.8287
17245TIP3   OH273225   3.583   4.397  16.770  0.3568  0.1825 -0.0770
17245TIP3    H173226   3.676   4.381  16.755  0.9447  2.2430  0.8656
17245TIP3    H273227   3.558   4.460  16.702 -0.2501 -0.0617 -0.0891
17246TIP3   OH273228   2.284   2.849   1.226  0.6529 -0.8570 -0.1622
17246TIP3    H173229   2.252   2.841   1.136  0.9603 -0.9250 -0.2654
17246TIP3    H273230   2.285   2.759   1.259  0.5765 -0.8363 -0.1035
17247TIP3   OH273231   6.246   1.501   1.010  0.3524  0.0129 -0.2599
17247TIP3    H173232   6.274   1.588   0.980  0.6437 -1.0473 -3.4154
17247TIP3    H273233   6.155   1.494   0.982  0.8879 -1.3558 -1.8012
17248TIP3   OH273234   5.860   6.429  15.459 -0.0841 -0.2074  0.2495
17248TIP3    H173235   5.802   6.362  15.497  0.4308 -0.7362  0.1100
17248TIP3    H273236   5.945   6.411  15.498 -0.1192  0.9196  0.8778
17249TIP3   OH273237   5.703   0.169  16.451 -0.4694  0.2249 -0.6409
17249TIP3    H173238   5.740   0.210  16.529  0.7640 -0.7782 -0.6563
17249TIP3    H273239   5.617   0.209  16.441 -0.7341  0.2510  1.3350
17250TIP3   OH273240   1.028   5.181   2.211  0.3530 -0.8709 -0.6577
17250TIP3    H173241   1.010   5.141   2.125  2.0595 -0.9575 -1.0163
17250TIP3    H273242   1.102   5.131   2.245 -0.4518 -0.9854  0.9983
17251TIP3   OH273243   4.556   4.218   0.619 -0.2916  0.0021  0.4872
17251TIP3    H173244   4.616   4.286   0.589 -0.3527  1.3953  3.2141
17251TIP3    H273245   4.476   4.266   0.641 -1.7578 -1.5489 -1.1323
17252TIP3   OH273246   5.187   1.396   4.039 -0.2064  0.4551 -0.7693
17252TIP3    H173247   5.204   1.475   3.987 -0.8800  0.8040 -0.4731
17252TIP3    H273248   5.271   1.376   4.080 -0.4513  2.1579  0.6995
17253TIP3   OH273249   0.565   6.091  12.365  0.2263  0.0411 -0.0455
17253TIP3    H173250   0.620   6.074  12.441 -0.7022 -2.3734  0.1520
17253TIP3    H273251   0.561   6.008  12.319 -0.1177  1.1808 -2.1896
17254TIP3   OH273252   2.363   3.104   1.357  0.6653 -0.3582  0.1779
17254TIP3    H173253   2.378   3.021   1.312  2.4128 -0.0322  0.0925
17254TIP3    H273254   2.283   3.139   1.317  0.2195 -1.7149 -0.1804
17255TIP3   OH273255   2.782   5.887   5.410 -0.1560 -0.1812  0.0800
17255TIP3    H173256   2.742   5.945   5.344 -2.1769 -0.2957  1.1333
17255TIP3    H273257   2.828   5.947   5.469 -2.9047  0.5749  1.6369
17256TIP3   OH273258   4.113   2.803  14.532 -0.4345 -0.4292 -0.3986
17256TIP3    H173259   4.194   2.780  14.578 -0.5406  1.0798  0.6392
17256TIP3    H273260   4.079   2.720  14.498 -0.2578 -1.6284  2.1402
17257TIP3   OH273261   0.018   6.632  12.780  0.1404  0.7683 -0.2403
17257TIP3    H173262   0.048   6.551  12.740  0.4874  1.5893 -1.6928
17257TIP3    H273263   0.092   6.692  12.773  1.1279  0.3123  3.8106
17258TIP3   OH273264   5.581   1.649  16.652 -0.2464  0.0434 -0.3405
17258TIP3    H173265   5.605   1.600  16.574  0.3576 -0.7737  0.3380
17258TIP3    H273266   5.624   1.734  16.642  1.0375 -0.5677 -0.2360
17259TIP3   OH273267   3.713   2.026   4.072  0.5959  0.1615 -0.4199
17259TIP3    H173268   3.660   2.053   3.996 -0.0070  0.2607  0.0349
17259TIP3    H273269   3.650   2.004   4.140  1.1385  0.9356  0.3594
17260TIP3   OH273270   2.730   3.364   2.528  0.1313 -0.6279  0.6568
17260TIP3    H173271   2.824   3.374   2.538  0.1102  1.5516 -0.7000
17260TIP3    H273272   2.693   3.389   2.613  0.7179 -0.4241  0.8522
17261TIP3   OH273273   5.517   0.184  14.457  0.1423 -0.1680  0.0229
17261TIP3    H173274   5.438   0.198  14.509 -0.0143  0.6855 -0.4136
17261TIP3    H273275   5.486   0.142  14.377 -0.3034  2.4123 -1.2706
17262TIP3   OH273276   3.546   6.740  14.010 -0.0361 -0.5789 -0.0477
17262TIP3    H173277   3.564   6.829  14.040 -0.4617 -0.4449 -0.1885
17262TIP3    H273278   3.630   6.695  14.018  0.7752  0.4500 -2.1403
17263TIP3   OH273279   4.874   4.599  12.093 -0.6231  0.1392 -0.2753
17263TIP3    H173280   4.790   4.629  12.059  0.0617  1.5325 -0.8414
17263TIP3    H273281   4.853   4.560  12.178 -1.7557  1.1231 -0.0736
17264TIP3   OH273282   6.218   4.537   5.622 -0.7921 -0.0817 -0.0610
17264TIP3    H173283   6.283   4.560   5.555 -0.2283  0.7100  0.7407
17264TIP3    H273284   6.248   4.453   5.656 -1.9150 -1.2707 -1.8161
17265TIP3   OH273285   0.096   2.113  11.680 -0.2220 -0.3347 -0.5470
17265TIP3    H173286   0.014   2.068  11.658 -2.1634  3.0231 -0.9331
17265TIP3    H273287   0.084   2.201  11.645  3.5371  0.3750 -0.3766
17266TIP3   OH273288   0.044   3.589   0.746  0.5650  0.3324  0.4937
17266TIP3    H173289   0.010   3.667   0.790  0.3540  0.7310 -0.3609
17266TIP3    H273290   0.085   3.623   0.666 -0.1919 -0.5085 -0.2653
17267TIP3   OH273291   0.940   2.722   0.229 -0.2127 -0.3908 -1.4317
17267TIP3    H173292   0.937   2.745   0.137  3.4232  1.9119 -1.1925
17267TIP3    H273293   0.994   2.643   0.232  0.4942  0.0883 -1.2573
17268TIP3   OH273294   6.421   5.162  14.639  0.0033 -0.0074 -0.3028
17268TIP3    H173295   6.344   5.192  14.592 -0.5752 -0.5065  0.3011
17268TIP3    H273296   6.403   5.069  14.657  1.0733 -0.3291 -0.8048
17269TIP3   OH273297   5.274   0.670  16.579 -0.7742  0.4777 -0.3665
17269TIP3    H173298   5.229   0.751  16.602 -2.1917  0.5906 -3.1557
17269TIP3    H273299   5.205   0.604  16.578 -0.3048 -0.0264 -1.4772
17270TIP3   OH273300   6.000   1.198  11.085 -0.0270  0.4525 -0.6341
17270TIP3    H173301   5.923   1.214  11.031 -0.4951  0.9299  0.1576
17270TIP3    H273302   6.007   1.102  11.088 -0.1505  0.4175 -1.3156
17271TIP3   OH273303   4.425   0.151   0.306 -0.4429  0.7423 -0.6336
17271TIP3    H173304   4.382   0.111   0.382  2.0604  0.6696  0.8652
17271TIP3    H273305   4.441   0.241   0.333  1.0186  0.5504 -0.7804
17272TIP3   OH273306   5.268   2.536   4.456 -0.2197 -0.0808  0.2166
17272TIP3    H173307   5.201   2.537   4.387  0.5714  1.5646 -0.5657
17272TIP3    H273308   5.351   2.537   4.409  0.3516 -0.4002  1.1949
17273TIP3   OH273309   4.016   2.120  15.654 -0.2167  0.6091  0.6254
17273TIP3    H173310   3.951   2.123  15.584 -1.2227  1.4028  1.5615
17273TIP3    H273311   4.100   2.138  15.610 -0.7160  0.3285 -0.4758
17274TIP3   OH273312   5.149   0.362   2.993 -0.0551  0.4689  0.0867
17274TIP3    H173313   5.059   0.374   2.965 -0.5112  1.2214  1.7064
17274TIP3    H273314   5.145   0.368   3.089  1.4504 -1.3803  0.3160
17275TIP3   OH273315   2.106   2.781   5.468 -0.0842 -0.3182 -0.3416
17275TIP3    H173316   2.043   2.753   5.401 -0.0721 -1.3874  0.0790
17275TIP3    H273317   2.112   2.707   5.528 -0.4169  0.7991  1.0962
17276TIP3   OH273318   0.395   2.354   0.757 -0.3126  0.3381 -0.1657
17276TIP3    H173319   0.304   2.338   0.784 -2.1943  0.9333 -5.1919
17276TIP3    H273320   0.418   2.278   0.703  1.8248  0.8013 -0.0166
17277TIP3   OH273321   4.042   4.557   2.133 -0.2003 -0.6252 -0.8316
17277TIP3    H173322   3.965   4.611   2.152  1.2693  0.6502  2.1698
17277TIP3    H273323   4.046   4.494   2.205  1.7563 -0.3695 -0.6601
17278TIP3   OH273324   0.260   6.733  11.022 -0.4377  0.2205 -0.1559
17278TIP3    H173325   0.350   6.727  10.989 -0.1974  0.4031  0.4456
17278TIP3    H273326   0.210   6.770  10.949  0.0925  0.6846 -0.2949
17279TIP3   OH273327   3.635   6.498   4.943  0.0367 -0.2179  0.0932
17279TIP3    H173328   3.568   6.463   4.884 -2.4426  0.2358  2.4778
17279TIP3    H273329   3.663   6.422   4.995 -0.6071  0.0918  0.9040
17280TIP3   OH273330   6.785   3.852   0.808 -0.4215 -0.5051  0.8323
17280TIP3    H173331   6.756   3.898   0.729 -0.1510 -2.9238 -0.7973
17280TIP3    H273332   6.712   3.794   0.830 -0.6641  0.4165  2.6852
17281TIP3   OH273333   2.027   5.792   4.591  0.0253  0.4798  0.5661
17281TIP3    H173334   1.991   5.862   4.646  0.0988  0.0135  1.2151
17281TIP3    H273335   2.022   5.714   4.645  1.4274  0.2775  0.4339
17282TIP3   OH273336   2.766   5.558  12.809  0.6898  0.2824 -0.4398
17282TIP3    H173337   2.783   5.464  12.814  2.0349  0.5557  0.7937
17282TIP3    H273338   2.833   5.598  12.864 -0.5650  1.8910  0.0230
17283TIP3   OH273339   2.366   2.901   0.139 -0.4612  0.0292  0.4864
17283TIP3    H173340   2.281   2.859   0.148 -0.0362 -0.9191  0.1679
17283TIP3    H273341   2.356   2.960   0.064 -1.4371  1.4962  1.7087
17284TIP3   OH273342   2.028   3.289  11.309  0.0462  0.6764  0.3145
17284TIP3    H173343   2.010   3.348  11.383  0.0274  1.7429 -0.5181
17284TIP3    H273344   1.948   3.291  11.257  0.5749  1.0989 -0.5031
17285TIP3   OH273345   0.550   6.312   4.709 -0.3775 -0.2999  0.3372
17285TIP3    H173346   0.583   6.228   4.743  0.3971 -0.6777 -1.2382
17285TIP3    H273347   0.477   6.334   4.766  1.4993 -0.3136  2.9438
17286TIP3   OH273348   5.016   6.721   3.490  0.1168 -0.9288 -0.3499
17286TIP3    H173349   4.951   6.722   3.560 -1.1621 -0.7327 -1.4939
17286TIP3    H273350   4.998   6.799   3.438 -0.0042 -1.8564 -1.7853
17287TIP3   OH273351   5.589   6.234   3.539 -0.0025 -0.0073  0.0816
17287TIP3    H173352   5.657   6.252   3.474  0.8940 -0.0598  0.9946
17287TIP3    H273353   5.591   6.310   3.598 -1.1050  0.2474 -0.1717
17288TIP3   OH273354   1.271   0.628   6.015 -0.9172 -0.3754 -0.6987
17288TIP3    H173355   1.274   0.546   6.065 -0.8769  0.4736  0.7475
17288TIP3    H273356   1.181   0.635   5.985 -1.1296 -0.5622 -0.1251
17289TIP3   OH273357   0.661   0.306   4.082 -0.6186 -0.2253  0.6959
17289TIP3    H173358   0.671   0.216   4.051  2.1616  0.0769  0.4512
17289TIP3    H273359   0.703   0.359   4.014 -2.2375  1.2969  0.8144
17290TIP3   OH273360   4.471   0.105  14.240  0.2692 -0.2133  0.3328
17290TIP3    H173361   4.412   0.046  14.287 -0.6782 -0.3813 -0.9886
17290TIP3    H273362   4.536   0.047  14.201  0.2850 -0.2118  0.3570
17291TIP3   OH273363   4.277   2.002  10.657  0.1892 -0.5284  0.0296
17291TIP3    H173364   4.249   1.917  10.622  0.4329 -0.4127 -0.4471
17291TIP3    H273365   4.222   2.065  10.612 -0.7275 -0.4933  1.1465
17292TIP3   OH273366   6.062   4.840  13.648  0.1477  0.0303  0.0689
17292TIP3    H173367   6.081   4.790  13.727  0.4950 -1.0572 -0.6758
17292TIP3    H273368   5.967   4.852  13.649  0.2070  0.5200  0.9162
17293TIP3   OH273369   2.677   2.016  15.658 -0.0656  0.5562 -0.2644
17293TIP3    H173370   2.732   1.987  15.731 -0.9296  0.6418  0.4303
17293TIP3    H273371   2.739   2.054  15.595  0.9696 -1.7713 -0.7261
17294TIP3   OH273372   1.528   0.133   6.171 -0.7414  0.4138 -0.1124
17294TIP3    H173373   1.533   0.057   6.229 -0.3433  0.6902  0.2201
17294TIP3    H273374   1.606   0.184   6.191 -1.3842  1.3023  0.2221
17295TIP3   OH273375   0.296   1.334  13.609 -0.5042 -0.5893  0.1117
17295TIP3    H173376   0.225   1.360  13.669 -0.6669  1.0472 -0.7502
17295TIP3    H273377   0.318   1.414  13.562 -0.0997 -1.7395 -1.7333
17296TIP3   OH273378   0.414   6.579   4.952  0.5178 -0.1985  0.2993
17296TIP3    H173379   0.461   6.638   5.011  1.9178 -0.3999 -0.5578
17296TIP3    H273380   0.337   6.628   4.924  1.4247  1.0743 -0.0574
17297TIP3   OH273381   2.447   0.045  12.337 -0.0666  0.1647  0.8557
17297TIP3    H173382   2.529   0.081  12.303 -0.8649  1.3156  0.1192
17297TIP3    H273383   2.456  -0.050  12.324  0.9518  0.3162  0.3573
17298TIP3   OH273384   3.898   0.259  13.653 -0.0091  0.0140 -0.6273
17298TIP3    H173385   3.869   0.169  13.637 -0.4262  0.1936 -0.9142
17298TIP3    H273386   3.921   0.293  13.566  0.2311  0.1544 -0.5100
17299TIP3   OH273387   6.313   0.406  16.124 -0.0820  0.5372 -0.6826
17299TIP3    H173388   6.327   0.314  16.100  0.8092  0.6246 -0.5039
17299TIP3    H273389   6.397   0.449  16.109 -0.2151  1.1247  0.1664
17300TIP3   OH273390   1.959   1.500   4.321  0.6842 -0.3881  0.5541
17300TIP3    H173391   2.029   1.474   4.261  0.9684  1.3946  0.0389
17300TIP3    H273392   2.006   1.534   4.398  0.3363 -0.9475  1.0248
17301TIP3   OH273393   4.423   5.834   2.260 -0.3157  0.9141 -0.7122
17301TIP3    H173394   4.393   5.781   2.333  0.4112 -0.7308 -1.5582
17301TIP3    H273395   4.426   5.923   2.294 -0.4735  0.2491  1.1068
17302TIP3   OH273396   5.888   2.856  14.487  0.2016 -0.6387 -0.2520
17302TIP3    H173397   5.924   2.767  14.487 -2.7191 -1.9892  1.3482
17302TIP3    H273398   5.836   2.861  14.567 -0.2747  2.3100 -0.6210
17303TIP3   OH273399   5.804   2.367   1.131  0.1437  0.0419  0.1030
17303TIP3    H173400   5.764   2.320   1.204  1.4446  0.8595  1.3973
17303TIP3    H273401   5.783   2.459   1.147 -0.5341  0.1443 -1.2175
17304TIP3   OH273402   4.763   5.983   2.700 -0.0938 -0.5017  0.3618
17304TIP3    H173403   4.762   6.019   2.612  0.3158  1.3837  1.0617
17304TIP3    H273404   4.681   6.011   2.739  0.3619 -0.0401  1.0229
17305TIP3   OH273405   0.685   0.596   5.614  0.3591  0.2945 -0.3391
17305TIP3    H173406   0.603   0.558   5.585 -0.3816  1.4715  0.1384
17305TIP3    H273407   0.683   0.589   5.710  0.6203  0.6932 -0.2965
17306TIP3   OH273408   1.308   5.344  16.442  0.1438 -0.5178 -0.5617
17306TIP3    H173409   1.339   5.258  16.470  2.6317  0.5068  0.0878
17306TIP3    H273410   1.228   5.358  16.491  1.4563 -1.1135  1.8905
17307TIP3   OH273411   0.594   5.450   3.769  0.7713  0.2510 -0.0607
17307TIP3    H173412   0.674   5.398   3.776 -0.1191 -1.3568 -0.9525
17307TIP3    H273413   0.579   5.458   3.675  0.7554  2.0104  0.0560
17308TIP3   OH273414   6.194   0.832   2.921  0.0042 -0.5155 -0.0118
17308TIP3    H173415   6.125   0.892   2.949 -0.7458 -1.7805  0.9123
17308TIP3    H273416   6.231   0.874   2.843 -0.7886  0.9218  0.3471
17309TIP3   OH273417   6.621   4.124   6.052 -0.4381 -0.1362 -0.8373
17309TIP3    H173418   6.540   4.167   6.079  0.4237  0.1202  1.5577
17309TIP3    H273419   6.682   4.195   6.035 -0.0885 -0.3455 -0.4740
17310TIP3   OH273420   6.456   0.181   0.644 -0.3964 -0.1615 -0.1010
17310TIP3    H173421   6.454   0.267   0.686 -0.9821 -1.8080  3.6788
17310TIP3    H273422   6.539   0.142   0.673 -0.5109 -1.1723 -1.0483
17311TIP3   OH273423   2.059   3.079   3.889 -0.8262  0.6576 -0.2936
17311TIP3    H173424   1.985   3.139   3.901 -1.1116  0.5557 -1.4134
17311TIP3    H273425   2.040   3.005   3.947 -1.8996  0.3781 -0.9659
17312TIP3   OH273426   2.209   0.662  16.315  0.1935  0.1954  0.6958
17312TIP3    H173427   2.130   0.631  16.270  1.2434 -0.1802 -0.9577
17312TIP3    H273428   2.187   0.751  16.344 -0.9777 -0.0752  0.6796
17313TIP3   OH273429   3.108   5.808  12.439 -0.0324  0.6591 -0.3241
17313TIP3    H173430   3.187   5.854  12.466  1.0267 -0.6059 -1.1817
17313TIP3    H273431   3.066   5.868  12.377  1.0112  0.7247 -0.9794
17314TIP3   OH273432   6.573   3.133  16.152 -0.1308 -0.6926  0.4307
17314TIP3    H173433   6.583   3.070  16.080  0.4798  1.4960 -1.5531
17314TIP3    H273434   6.603   3.086  16.229  1.3010 -2.5157 -1.1182
17315TIP3   OH273435   2.775   0.622  10.938  0.5214 -0.0140  0.2358
17315TIP3    H173436   2.805   0.709  10.913 -0.7262  0.7278  1.2065
17315TIP3    H273437   2.695   0.608  10.886  0.5524 -0.4629  0.3017
17316TIP3   OH273438   6.303   3.596   4.624  0.3247 -0.1710  0.1094
17316TIP3    H173439   6.391   3.581   4.659  0.3791  0.1502  0.1114
17316TIP3    H273440   6.257   3.645   4.692 -0.2737 -1.4307  0.6506
17317TIP3   OH273441   1.681   3.436   3.684  0.5423 -0.8447  0.3230
17317TIP3    H173442   1.752   3.429   3.747  0.7268  1.2832  0.4246
17317TIP3    H273443   1.679   3.529   3.660 -2.4389 -0.7118  0.6283
17318TIP3   OH273444   1.532   4.385   0.570  0.4093  0.5833  0.1568
17318TIP3    H173445   1.502   4.295   0.579 -0.3644  0.7477 -0.6069
17318TIP3    H273446   1.540   4.418   0.660 -1.7723  0.5390  0.4147
17319TIP3   OH273447   0.429   6.626   3.205  0.0183 -0.1986 -0.5342
17319TIP3    H173448   0.468   6.562   3.266  0.5483  1.9211  1.5038
17319TIP3    H273449   0.341   6.641   3.239  0.1944  0.7524 -0.4609
17320TIP3   OH273450   0.474   0.038   4.753  0.3750  0.1617  0.2811
17320TIP3    H173451   0.544  -0.000   4.699  0.2543 -2.4872  1.8398
17320TIP3    H273452   0.495   0.131   4.757  2.2908 -0.1234 -1.4972
17321TIP3   OH273453   4.902   5.199   2.421 -0.6168 -0.0627  0.0929
17321TIP3    H173454   4.913   5.292   2.402 -1.0121 -0.2895 -1.3638
17321TIP3    H273455   4.988   5.170   2.451 -0.5385  0.7959  0.7414
17322TIP3   OH273456   4.566   5.148   2.771  0.0011  0.6429  0.0658
17322TIP3    H173457   4.474   5.134   2.793  0.2426 -0.0718  0.6237
17322TIP3    H273458   4.598   5.063   2.742  0.3920  0.9734 -0.4995
17323TIP3   OH273459   6.423   6.363   0.872  0.0608 -0.3263  0.1286
17323TIP3    H173460   6.352   6.378   0.810 -0.2264 -1.0476  0.2819
17323TIP3    H273461   6.503   6.380   0.822 -0.2125  1.3904  0.1917
17324TIP3   OH273462   4.669   6.579  13.920  0.0907  0.4801  0.0141
17324TIP3    H173463   4.649   6.603  13.829 -0.1671  0.5302  0.0843
17324TIP3    H273464   4.585   6.553  13.957 -0.0748  1.8420  0.6617
17325TIP3   OH273465   2.686   5.384   4.514 -0.1111  0.6384 -0.3622
17325TIP3    H173466   2.762   5.344   4.556  0.4026 -0.4825 -2.2355
17325TIP3    H273467   2.613   5.327   4.537  0.1832 -0.0242 -1.0200
17326TIP3   OH273468   5.539   4.786   5.724  0.2693 -0.3409 -0.0986
17326TIP3    H173469   5.527   4.746   5.810 -1.7584 -0.5493 -0.4213
17326TIP3    H273470   5.566   4.714   5.667  0.4308 -0.4414  0.1030
17327TIP3   OH273471   3.021   6.551  13.794 -0.6907  0.5035  0.1979
17327TIP3    H173472   2.981   6.464  13.785  0.5900 -0.2075  1.0203
17327TIP3    H273473   3.086   6.555  13.724 -2.1064  1.6463 -1.1231
17328TIP3   OH273474   2.637   5.541   3.036  0.0763 -0.4089  0.2681
17328TIP3    H173475   2.551   5.503   3.022 -0.3397  0.4052  0.5897
17328TIP3    H273476   2.697   5.467   3.027 -0.4231 -0.5882 -2.2534
17329TIP3   OH273477   6.627   4.535  14.881 -0.1514 -0.1717 -0.5791
17329TIP3    H173478   6.592   4.608  14.830  1.8282  2.1093  1.1424
17329TIP3    H273479   6.648   4.468  14.816 -0.3877  1.4764 -2.4302
17330TIP3   OH273480   1.103   1.227   4.848  0.3945  0.1088  0.2542
17330TIP3    H173481   1.020   1.263   4.817  0.9252  2.3219  1.2505
17330TIP3    H273482   1.089   1.132   4.848 -2.1886  0.4172  0.5285
17331TIP3   OH273483   2.382   3.989  15.300 -0.2074  0.0513  0.4582
17331TIP3    H173484   2.371   3.903  15.260 -0.8670  0.9424 -1.3722
17331TIP3    H273485   2.324   4.046  15.250  0.1751  1.5634  1.6693
17332TIP3   OH273486   3.441   2.805   0.775 -0.4546  0.7945  0.2847
17332TIP3    H173487   3.350   2.804   0.804 -0.9069 -0.2929 -1.0665
17332TIP3    H273488   3.455   2.893   0.742 -0.7367  1.2318  1.2869
17333TIP3   OH273489   1.900   0.598   5.797 -0.4479 -0.4665 -0.2250
17333TIP3    H173490   1.924   0.588   5.889  1.2245  0.3814 -0.5305
17333TIP3    H273491   1.820   0.651   5.799  0.4174  0.8773  0.7220
17334TIP3   OH273492   5.723   5.884   5.303 -0.6460 -1.0926  0.0543
17334TIP3    H173493   5.726   5.826   5.379  0.3880 -0.3078  0.6424
17334TIP3    H273494   5.789   5.951   5.322 -1.3480 -0.1047 -0.9107
17335TIP3   OH273495   6.353   3.442  15.550  0.1421 -0.6580  0.0124
17335TIP3    H173496   6.398   3.402  15.476 -0.5557  1.5148 -1.6889
17335TIP3    H273497   6.417   3.503  15.587  0.3419 -1.4209  0.9692
17336TIP3   OH273498   2.993   0.046   2.124 -0.2270  0.4608 -0.0390
17336TIP3    H173499   2.940   0.023   2.047  0.3214  0.8068 -0.5249
17336TIP3    H273500   2.931   0.042   2.197 -0.5649 -0.7117 -0.3708
17337TIP3   OH273501   5.271   4.803   6.321  0.0856 -0.6073 -0.1983
17337TIP3    H173502   5.347   4.745   6.327  1.9435  1.7397  0.8329
17337TIP3    H273503   5.248   4.822   6.412 -1.6315 -1.0772 -0.5012
17338TIP3   OH273504   6.142   6.341  10.898  0.0024 -0.3156 -0.5069
17338TIP3    H173505   6.191   6.261  10.878  1.0182  0.0366  0.5086
17338TIP3    H273506   6.165   6.401  10.827  0.2743 -0.4743 -0.5540
17339TIP3   OH273507   1.808   5.470   1.521 -0.1882  0.1376 -0.2887
17339TIP3    H173508   1.796   5.549   1.469  1.3943  0.8231  0.3089
17339TIP3    H273509   1.769   5.492   1.606  1.7181  0.9743  0.4366
17340TIP3   OH273510   0.495   2.882   3.992  0.1573 -0.2458 -0.4783
17340TIP3    H173511   0.533   2.885   4.080 -1.9362 -0.4689  0.4744
17340TIP3    H273512   0.523   2.964   3.951  0.6586  0.1345  0.6013
17341TIP3   OH273513   0.024   6.294   4.014  0.4682  0.2234  0.1328
17341TIP3    H173514   0.080   6.365   4.047  0.1108  0.3042  0.5660
17341TIP3    H273515   0.045   6.219   4.070  1.1347 -0.1329 -0.5742
17342TIP3   OH273516   2.225   0.145  13.264  0.4330  0.1215 -0.0198
17342TIP3    H173517   2.252   0.111  13.179  0.5862  1.4103 -0.4991
17342TIP3    H273518   2.306   0.147  13.316  0.3037 -0.8612  0.2525
17343TIP3   OH273519   4.594   1.027  15.818 -0.0702  0.2287  0.6193
17343TIP3    H173520   4.598   1.122  15.809  0.3017  0.1723  0.1395
17343TIP3    H273521   4.508   1.010  15.855 -0.6658  0.6671 -0.5264
17344TIP3   OH273522   4.397   6.829  16.063  0.2705  0.5398  0.5533
17344TIP3    H173523   4.326   6.840  16.000 -0.0432 -0.4988  0.7153
17344TIP3    H273524   4.385   6.901  16.125 -1.8648 -0.7321  1.7186
17345TIP3   OH273525   1.354   3.018  13.907  0.4248 -0.2769  0.1920
17345TIP3    H173526   1.292   2.947  13.894 -0.0511  0.1282  0.2279
17345TIP3    H273527   1.388   3.004  13.995 -0.0786 -0.1464  0.4104
17346TIP3   OH273528   3.656   1.966   3.624 -0.0684 -0.0735  0.1977
17346TIP3    H173529   3.612   2.032   3.569  0.1654  0.8221  1.0518
17346TIP3    H273530   3.737   1.948   3.578 -0.9035 -1.0733 -0.9336
17347TIP3   OH273531   4.172   0.527   0.355 -0.1972  0.3401 -0.2295
17347TIP3    H173532   4.207   0.541   0.267 -0.5241  1.7147 -0.1506
17347TIP3    H273533   4.080   0.552   0.350 -0.4644 -0.4862  0.2777
17348TIP3   OH273534   1.325   2.437  12.157 -0.6613 -0.4677 -0.4330
17348TIP3    H173535   1.237   2.402  12.141 -0.7737 -0.3419 -0.0920
17348TIP3    H273536   1.317   2.486  12.238 -0.4021  0.0017 -0.6850
17349TIP3   OH273537   4.881   6.054  14.087  0.2547  0.7642  0.3013
17349TIP3    H173538   4.879   5.960  14.105 -0.3780  0.7214  0.0310
17349TIP3    H273539   4.835   6.093  14.161 -0.0570  0.8043  0.0881
17350TIP3   OH273540   3.463   5.009  12.627 -0.0404  0.5186  0.1224
17350TIP3    H173541   3.433   5.022  12.717 -1.4360 -2.9219  0.3408
17350TIP3    H273542   3.391   4.962  12.584  0.6007  1.9825 -2.8306
17351TIP3   OH273543   1.075   3.808  14.806  0.5112  0.1464 -0.3271
17351TIP3    H173544   1.092   3.759  14.886 -2.7128  0.1494  0.4792
17351TIP3    H273545   1.162   3.839  14.778  1.6906  1.2349  3.8487
17352TIP3   OH273546   1.545   1.047   5.605 -0.4372 -0.1884 -0.5013
17352TIP3    H173547   1.496   1.117   5.561 -0.0016 -0.9516 -2.2872
17352TIP3    H273548   1.484   1.013   5.670 -1.7614 -0.1496 -1.6727
17353TIP3   OH273549   5.969   2.283  15.487 -0.5033 -0.3922  0.4516
17353TIP3    H173550   5.915   2.337  15.430 -0.3249 -0.6501  0.0288
17353TIP3    H273551   5.927   2.288  15.573  1.0717  2.7364  1.1866
17354TIP3   OH273552   2.046   1.269  10.968 -0.4585 -0.5593 -0.2835
17354TIP3    H173553   2.091   1.297  10.888 -0.0997 -0.2928  0.0137
17354TIP3    H273554   1.954   1.260  10.941 -0.3644 -0.3299 -0.6923
17355TIP3   OH273555   3.295   3.571   0.648 -0.5384 -0.3772  0.5231
17355TIP3    H173556   3.222   3.556   0.709  0.0782 -1.3840  1.0348
17355TIP3    H273557   3.343   3.488   0.647  1.6376  0.7940  1.5741
17356TIP3   OH273558   0.996   4.440   3.189 -0.3408 -1.0084  0.1241
17356TIP3    H173559   0.922   4.431   3.129 -0.0553 -0.9061 -0.2567
17356TIP3    H273560   1.054   4.368   3.166  0.5322 -0.0405 -0.8583
17357TIP3   OH273561   3.754   2.699  13.613  0.0930  0.2358  0.2393
17357TIP3    H173562   3.669   2.721  13.651  1.5178  1.5861  2.9467
17357TIP3    H273563   3.775   2.772  13.555 -0.3447  0.1348 -0.0530
17358TIP3   OH273564   1.361   0.839  16.765  0.1873 -0.6076 -0.2394
17358TIP3    H173565   1.448   0.800  16.752  0.7729 -0.5257  2.8348
17358TIP3    H273566   1.379   0.930  16.788 -0.2563 -1.4888  4.4804
17359TIP3   OH273567   5.149   3.251  13.227  0.3314 -0.0540  0.1777
17359TIP3    H173568   5.133   3.163  13.192 -0.2197 -0.0166  0.3280
17359TIP3    H273569   5.207   3.237  13.302  1.6423 -0.1196 -0.8202
17360TIP3   OH273570   2.916   3.084  15.221 -0.4929  0.0653 -0.0591
17360TIP3    H173571   2.991   3.024  15.229 -0.2582  0.3801  0.1403
17360TIP3    H273572   2.933   3.152  15.287 -0.6674  0.4497 -0.4100
17361TIP3   OH273573   1.473   5.523   2.675  0.0535  0.0275 -0.0435
17361TIP3    H173574   1.454   5.570   2.594  1.2258 -0.6488 -0.7236
17361TIP3    H273575   1.408   5.557   2.737  1.4035  3.2547 -0.2067
17362TIP3   OH273576   0.890   6.818  11.737  0.6029  0.5271 -0.3076
17362TIP3    H173577   0.908   6.779  11.823  0.8620 -0.5824 -0.8405
17362TIP3    H273578   0.841   6.750  11.690 -0.3033  1.4632 -0.7306
17363TIP3   OH273579   1.051   5.821   5.550 -0.0751 -0.2499  0.2169
17363TIP3    H173580   0.987   5.860   5.491 -0.1946  0.8763  1.0660
17363TIP3    H273581   1.010   5.827   5.636  0.3374 -1.3601  0.5068
17364TIP3   OH273582   0.081   0.829  14.574  0.8856 -0.2832  0.2854
17364TIP3    H173583   0.126   0.862  14.651  2.1755 -0.1747 -0.4865
17364TIP3    H273584   0.127   0.869  14.500  0.9933 -1.9701 -0.6093
17365TIP3   OH273585   4.246   3.315  16.650  0.0515 -0.4294  0.2771
17365TIP3    H173586   4.295   3.360  16.581 -0.7661  0.1934  0.0814
17365TIP3    H273587   4.238   3.225  16.619  1.1873 -0.5893  0.3897
17366TIP3   OH273588   5.159   3.502   0.992 -0.2482 -0.3966 -0.0534
17366TIP3    H173589   5.128   3.576   1.044 -1.6313 -1.4190  0.6252
17366TIP3    H273590   5.182   3.540   0.907  0.6216  1.0614  0.7972
17367TIP3   OH273591   6.103   5.955  11.060 -0.4482 -0.1104 -0.0385
17367TIP3    H173592   6.189   5.971  11.020 -0.8282  0.7517 -0.5338
17367TIP3    H273593   6.122   5.948  11.154  0.3639 -1.5373 -0.2830
17368TIP3   OH273594   3.319   1.837   5.564  0.4846  0.5747  0.3521
17368TIP3    H173595   3.252   1.869   5.625  0.1717 -1.1733  0.9754
17368TIP3    H273596   3.317   1.900   5.492 -1.7807  0.6320  0.3931
17369TIP3   OH273597   1.378   1.092  13.980 -0.8077  0.1574 -0.6527
17369TIP3    H173598   1.322   1.140  13.920 -0.3014  0.4081 -0.9374
17369TIP3    H273599   1.462   1.085  13.934 -0.6996 -0.4780 -0.3696
17370TIP3   OH273600   0.746   5.547   1.779 -0.0294  0.1167  0.3069
17370TIP3    H173601   0.801   5.572   1.853  0.0479  1.2441 -0.1157
17370TIP3    H273602   0.656   5.561   1.811  0.0152  0.9906  0.0584
17371TIP3   OH273603   2.737   4.109   2.101 -0.1099  0.2162 -0.0486
17371TIP3    H173604   2.739   4.097   2.196 -1.0386  0.5361  0.0240
17371TIP3    H273605   2.687   4.190   2.089 -0.5154 -0.1459 -0.8314
17372TIP3   OH273606   4.298   0.178  11.313  0.1729  0.1576 -0.7429
17372TIP3    H173607   4.254   0.169  11.229  0.3967 -1.1270 -0.7505
17372TIP3    H273608   4.362   0.107  11.314 -1.2946 -1.2452  1.3944
17373TIP3   OH273609   0.066   6.233   2.699 -0.0006 -0.0300 -0.4156
17373TIP3    H173610   0.033   6.184   2.775 -0.6251  0.8573 -0.1007
17373TIP3    H273611   0.091   6.318   2.735 -2.0343  1.0902 -1.4838
17374TIP3   OH273612   5.829   5.407  12.031 -0.1133  0.3602  0.8816
17374TIP3    H173613   5.827   5.501  12.013 -0.8563  0.1224 -0.3530
17374TIP3    H273614   5.917   5.391  12.065  0.9520  1.0756 -1.3733
17375TIP3   OH273615   4.287   0.979  12.042 -0.4218 -0.3649  0.1346
17375TIP3    H173616   4.381   0.983  12.024  0.3172 -0.3245  3.3732
17375TIP3    H273617   4.261   0.893  12.011  1.3228 -1.4834  1.5611
17376TIP3   OH273618   2.379   6.787   1.324 -0.2502 -0.3751 -0.1719
17376TIP3    H173619   2.310   6.724   1.302  0.2030 -0.6657 -0.8054
17376TIP3    H273620   2.351   6.868   1.282  0.6421 -0.9459 -1.9680
17377TIP3   OH273621   2.328   3.326  12.432  0.4973  0.1129 -0.9563
17377TIP3    H173622   2.302   3.415  12.406 -0.6641 -0.5359 -2.1579
17377TIP3    H273623   2.245   3.280  12.446  1.0706 -0.9326 -0.8680
17378TIP3   OH273624   4.677   1.871  11.710 -0.5538 -0.7315  0.3843
17378TIP3    H173625   4.722   1.887  11.793 -0.5118 -0.8810  0.3905
17378TIP3    H273626   4.611   1.805  11.731 -1.8301  0.6041  0.7267
17379TIP3   OH273627   6.683   3.003   1.245  0.8751 -0.2603  0.1968
17379TIP3    H173628   6.677   3.098   1.236  0.2456 -0.4310 -1.5725
17379TIP3    H273629   6.641   2.984   1.330 -0.0753  0.9362  0.0216
17380TIP3   OH273630   4.066   0.325  15.615  0.5084  0.1466  0.3513
17380TIP3    H173631   4.041   0.411  15.582 -1.5562 -0.4776  0.1935
17380TIP3    H273632   4.033   0.323  15.705 -1.4655 -1.2507 -0.3470
17381TIP3   OH273633   1.467   4.597   1.431  0.1902  0.2402  0.5637
17381TIP3    H173634   1.536   4.622   1.369 -1.0993  0.3761 -0.8521
17381TIP3    H273635   1.439   4.680   1.470  0.8936  0.1713  1.2397
17382TIP3   OH273636   4.199   5.181  16.193 -0.4484 -0.6626  0.3163
17382TIP3    H173637   4.119   5.231  16.177  0.0061  0.1652  0.5821
17382TIP3    H273638   4.241   5.224  16.267  0.0629 -1.3189  0.4246
17383TIP3   OH273639   4.636   3.508  12.896  0.3774  0.2393 -0.4583
17383TIP3    H173640   4.606   3.599  12.905  2.2012  0.9287 -0.8997
17383TIP3    H273641   4.731   3.515  12.900  0.6297 -1.4358 -2.5660
17384TIP3   OH273642   6.112   3.923  15.440  0.1034 -0.2658  0.0055
17384TIP3    H173643   6.129   3.828  15.436 -1.5713 -0.6321  0.8645
17384TIP3    H273644   6.057   3.934  15.518  1.8404  1.6909  1.0327
17385TIP3   OH273645   6.764   2.632  17.038 -0.4957 -0.1845  0.4214
17385TIP3    H173646   6.749   2.547  16.997  1.9964 -1.3134  1.6422
17385TIP3    H273647   6.692   2.642  17.100 -1.0693 -1.1881 -0.0666
17386TIP3   OH273648   2.197   0.600  11.742  0.2620 -0.1075 -0.1750
17386TIP3    H173649   2.158   0.578  11.658  0.4486 -0.7234 -0.1018
17386TIP3    H273650   2.273   0.542  11.749  0.2798 -0.0181  0.3914
17387TIP3   OH273651   5.139   2.601   5.742  0.0108  0.4248  0.5270
17387TIP3    H173652   5.183   2.638   5.818 -0.0083 -0.2918  0.9042
17387TIP3    H273653   5.052   2.642   5.742  0.3805  1.2173  0.2673
17388TIP3   OH273654   1.302   1.081  16.495 -0.1349 -0.0388 -0.1013
17388TIP3    H173655   1.286   1.126  16.578 -1.1743  0.8149 -0.7421
17388TIP3    H273656   1.397   1.070  16.492  0.1006  1.6171  0.3430
17389TIP3   OH273657   4.463   3.554   0.226 -0.0472 -0.3621  0.2184
17389TIP3    H173658   4.395   3.497   0.260 -1.0286  1.2092  1.0363
17389TIP3    H273659   4.532   3.552   0.293  0.6375 -1.7425 -0.4843
17390TIP3   OH273660   1.300   4.118  13.120  0.1543  0.1398 -0.2578
17390TIP3    H173661   1.254   4.069  13.052 -0.8689 -0.1804  0.6326
17390TIP3    H273662   1.244   4.193  13.137  0.5429  0.3669  0.0235
17391TIP3   OH273663   5.512   4.855   0.579  0.5503 -0.0010  0.4746
17391TIP3    H173664   5.538   4.909   0.653  0.8034 -1.2548  1.3483
17391TIP3    H273665   5.590   4.850   0.524  0.0320  1.8373 -0.4806
17392TIP3   OH273666   2.133   2.583  12.661 -0.1774  0.0850 -0.3698
17392TIP3    H173667   2.148   2.668  12.619  0.6880  0.6458  0.9868
17392TIP3    H273668   2.147   2.519  12.591  1.1734  0.9750 -0.9571
17393TIP3   OH273669   6.748   1.015  13.043  0.3333 -0.1142 -0.0453
17393TIP3    H173670   6.663   1.046  13.011  0.5602  1.0625  0.4378
17393TIP3    H273671   6.766   1.070  13.120  2.2584  0.7539 -1.0559
17394TIP3   OH273672   4.245   3.597   5.340 -0.5400 -0.0027 -0.1144
17394TIP3    H173673   4.252   3.502   5.337 -2.2282 -0.1801  0.2929
17394TIP3    H273674   4.307   3.629   5.275  1.4556 -1.2828  1.0709
17395TIP3   OH273675   4.687   5.231  16.085 -0.1422  0.1221 -0.4516
17395TIP3    H173676   4.711   5.153  16.136 -0.4823  0.6331  0.5322
17395TIP3    H273677   4.754   5.296  16.107 -1.0761  0.8077  0.4921
17396TIP3   OH273678   6.658   1.345  12.950  0.5626 -0.1908 -0.8585
17396TIP3    H173679   6.590   1.360  12.885  0.0409 -2.3288 -0.8885
17396TIP3    H273680   6.700   1.430  12.962 -2.7164  1.4754 -0.1110
17397TIP3   OH273681   3.804   4.992  16.286  0.2418  0.4143  0.2224
17397TIP3    H173682   3.744   4.918  16.290  0.1511  0.1861 -2.7461
17397TIP3    H273683   3.890   4.955  16.304 -0.2399  0.4986  3.1659
17398TIP3   OH273684   1.757   5.732   4.996 -0.5251 -0.3030  0.2045
17398TIP3    H173685   1.702   5.809   4.981  0.0045 -0.3397 -2.3381
17398TIP3    H273686   1.780   5.737   5.089 -0.9753  2.2609  0.2594
17399TIP3   OH273687   0.439   4.277  16.483  0.1503  0.0344 -0.6081
17399TIP3    H173688   0.431   4.364  16.444 -0.9478  0.2943  0.1492
17399TIP3    H273689   0.513   4.237  16.437  1.5952  1.8663 -0.0016
17400TIP3   OH273690   4.348   5.208   6.436 -0.2634 -0.4125 -0.3189
17400TIP3    H173691   4.309   5.267   6.501  1.8204 -1.3917  1.9724
17400TIP3    H273692   4.274   5.160   6.399 -1.7464  1.8118 -0.4244
17401TIP3   OH273693   3.260   3.523  12.851 -0.3874  0.2015  0.3869
17401TIP3    H173694   3.287   3.449  12.904 -0.4758 -0.2183 -0.1445
17401TIP3    H273695   3.187   3.489  12.799  0.4596  0.2480 -0.8730
17402TIP3   OH273696   1.178   4.880  12.250  0.0434  0.3309 -0.0287
17402TIP3    H173697   1.173   4.786  12.236 -0.0828  0.4110 -0.5562
17402TIP3    H273698   1.102   4.915  12.203  0.1111  0.6950  0.1311
17403TIP3   OH273699   0.104   1.419  10.909  0.7669  0.8100 -0.5147
17403TIP3    H173700   0.159   1.419  10.830 -0.6496 -0.3887 -1.5548
17403TIP3    H273701   0.166   1.428  10.981  2.7862 -3.4730 -1.4030
17404TIP3   OH273702   5.894   0.115  13.517 -0.7172  0.8157 -0.4728
17404TIP3    H173703   5.819   0.156  13.474  0.2516  2.0972 -1.0059
17404TIP3    H273704   5.926   0.051  13.453 -1.9844 -0.5254  0.1944
17405TIP3   OH273705   3.413   4.781   3.828  0.2198  0.3600 -0.2360
17405TIP3    H173706   3.425   4.718   3.899 -0.4565 -1.9238 -2.0439
17405TIP3    H273707   3.318   4.788   3.818  0.2380 -1.5016 -2.6153
17406TIP3   OH273708   1.214   1.173  15.136  0.1978 -0.2462 -0.5980
17406TIP3    H173709   1.148   1.147  15.071  0.5849  1.1049 -1.5837
17406TIP3    H273710   1.165   1.222  15.201  0.0338 -0.3344 -0.6533
17407TIP3   OH273711   0.348   1.768  11.054 -0.1500 -0.0268  0.3969
17407TIP3    H173712   0.429   1.771  11.105  1.6415  0.6787 -2.2836
17407TIP3    H273713   0.337   1.676  11.032  0.4835  0.0024 -0.0548
17408TIP3   OH273714   2.387   1.216   3.378  0.2056  1.0934  0.2274
17408TIP3    H173715   2.419   1.248   3.463  0.2607  0.1604  0.5710
17408TIP3    H273716   2.371   1.122   3.392  0.1264  0.9464 -0.7721
17409TIP3   OH273717   5.838   5.676   2.496  0.0738 -0.6124 -0.3757
17409TIP3    H173718   5.899   5.680   2.570 -0.7157 -1.1752  0.3245
17409TIP3    H273719   5.881   5.619   2.432  1.5416  1.2184 -1.1237
17410TIP3   OH273720   5.283   6.195  13.532 -0.2419  0.6533  0.2157
17410TIP3    H173721   5.319   6.234  13.611 -1.1958  0.8814  0.5530
17410TIP3    H273722   5.262   6.105  13.558 -0.4985  0.7101  0.2027
17411TIP3   OH273723   6.037   6.688  12.313  0.2503 -0.0808 -0.2507
17411TIP3    H173724   5.973   6.706  12.382  0.1878  2.1512 -0.8263
17411TIP3    H273725   6.120   6.720  12.347  0.8116 -1.5704 -0.1266
17412TIP3   OH273726   2.694   3.243  11.516  0.5281  0.0422 -0.5121
17412TIP3    H173727   2.701   3.202  11.602 -0.2995 -1.7942 -1.2605
17412TIP3    H273728   2.758   3.197  11.462  0.5000  0.6535 -1.0780
17413TIP3   OH273729   6.392   0.993  13.900  0.1371 -0.0164  0.1520
17413TIP3    H173730   6.419   1.044  13.824 -1.3724 -1.6034 -1.5641
17413TIP3    H273731   6.470   0.943  13.924  0.5298  0.2162 -0.6154
17414TIP3   OH273732   2.652   3.476   2.786  0.6167  0.0504  0.5223
17414TIP3    H173733   2.565   3.480   2.826 -0.2842  0.9655 -1.3884
17414TIP3    H273734   2.658   3.556   2.734  2.5345 -0.1095  0.4506
17415TIP3   OH273735   0.861   1.086   6.558  0.3309  0.3109 -0.2877
17415TIP3    H173736   0.933   1.148   6.569 -1.3831  2.5815 -1.1936
17415TIP3    H273737   0.844   1.053   6.646  2.7085 -0.6419 -0.1073
17416TIP3   OH273738   2.594   3.400  16.406 -0.2504 -0.3669  0.3247
17416TIP3    H173739   2.506   3.411  16.370 -1.0315 -0.1342  2.1952
17416TIP3    H273740   2.642   3.477  16.375 -0.9226 -0.0952 -0.0724
17417TIP3   OH273741   0.480   0.154   1.577  0.1444  0.2541  0.9398
17417TIP3    H173742   0.450   0.094   1.508  0.0983 -0.2115  1.3568
17417TIP3    H273743   0.574   0.161   1.564  0.6594 -2.2224  2.6198
17418TIP3   OH273744   6.517   5.328  13.098  0.2104  0.0414  0.1861
17418TIP3    H173745   6.548   5.264  13.034  1.3154  0.3544  0.3976
17418TIP3    H273746   6.520   5.412  13.053 -1.3181 -0.0223 -0.1172
17419TIP3   OH273747   4.853   0.284  11.359 -0.8659  0.4983  0.0193
17419TIP3    H173748   4.892   0.364  11.324 -1.5537  0.2591 -1.4005
17419TIP3    H273749   4.927   0.227  11.378 -0.3960  1.2891  0.5571
17420TIP3   OH273750   2.325   2.071  13.231  0.2147  0.0658  0.6536
17420TIP3    H173751   2.393   2.134  13.254 -1.0975  2.5359 -1.7525
17420TIP3    H273752   2.243   2.118  13.245 -0.8613 -1.4188 -0.3556
17421TIP3   OH273753   4.924   3.054  10.780 -0.3833 -0.5551  0.9857
17421TIP3    H173754   4.935   2.977  10.725 -1.4352 -1.5736  2.1377
17421TIP3    H273755   5.011   3.069  10.817 -0.1867 -1.2519  0.8195
17422TIP3   OH273756   5.741   3.253  12.702 -0.4011 -0.4217 -0.1209
17422TIP3    H173757   5.777   3.340  12.720 -0.9687  0.0183 -1.0529
17422TIP3    H273758   5.775   3.230  12.616 -0.8722 -0.7927 -0.2121
17423TIP3   OH273759   3.929   0.732   0.538 -0.4899  0.1338 -0.2771
17423TIP3    H173760   3.889   0.815   0.561 -0.8903 -0.1989  0.2516
17423TIP3    H273761   3.893   0.711   0.451  0.0783  0.7947 -0.6804
17424TIP3   OH273762   3.554   3.380   1.582  0.6408  0.5660  0.1585
17424TIP3    H173763   3.507   3.319   1.524  0.7761 -1.2230  1.8361
17424TIP3    H273764   3.621   3.419   1.526 -0.6664  0.6428 -1.4460
17425TIP3   OH273765   1.172   6.696  12.744 -0.6731  0.8209 -0.2274
17425TIP3    H173766   1.229   6.772  12.732  1.2483 -0.5307 -0.1906
17425TIP3    H273767   1.223   6.623  12.710 -2.1306 -0.5771  0.4864
17426TIP3   OH273768   4.500   0.235  14.540  0.5466 -0.6581 -0.3968
17426TIP3    H173769   4.453   0.184  14.473  0.5521 -1.1630 -0.0245
17426TIP3    H273770   4.574   0.179  14.564  0.7100 -0.3477 -0.1824
17427TIP3   OH273771   0.133   3.725   1.187 -0.2725 -0.0148  0.4667
17427TIP3    H173772   0.038   3.720   1.194 -0.3651 -0.9109 -1.0515
17427TIP3    H273773   0.154   3.675   1.108  1.2498  2.0437 -0.5261
17428TIP3   OH273774   1.552   1.895  14.395  0.1310  0.8046  0.1557
17428TIP3    H173775   1.592   1.967  14.346 -0.2483  0.6245 -0.4216
17428TIP3    H273776   1.492   1.937  14.456 -0.2040  0.9740 -0.2880
17429TIP3   OH273777   0.427   4.841  13.234 -0.6063  0.5445  0.3330
17429TIP3    H173778   0.343   4.838  13.281 -1.8815  0.7266 -1.8155
17429TIP3    H273779   0.455   4.932  13.242 -0.7007  0.5293  0.8914
17430TIP3   OH273780   4.316   1.608   2.677 -0.2582  0.3843  0.6729
17430TIP3    H173781   4.318   1.661   2.598  0.8158  0.0365  0.4469
17430TIP3    H273782   4.261   1.657   2.738 -1.8877  0.2043 -0.5761
17431TIP3   OH273783   1.999   0.414   3.026 -0.0722 -0.3403  0.0985
17431TIP3    H173784   1.944   0.342   3.057  0.2405 -2.4068 -3.5061
17431TIP3    H273785   1.938   0.485   3.008 -0.8450 -0.8032  0.8542
17432TIP3   OH273786   1.124   0.192  14.005 -0.0312  0.2405 -0.5856
17432TIP3    H173787   1.128   0.100  13.981 -0.1732  0.2611 -0.6894
17432TIP3    H273788   1.202   0.206  14.060  0.0866  0.1020 -0.7151
17433TIP3   OH273789   3.028   0.251  11.975  0.3545 -0.0375 -0.3633
17433TIP3    H173790   3.033   0.245  12.070  1.7340  0.3103 -0.3976
17433TIP3    H273791   3.026   0.345  11.957 -0.3438 -0.1034 -0.6721
17434TIP3   OH273792   3.621   4.029   1.332  0.5710 -0.1971 -0.2567
17434TIP3    H173793   3.664   4.107   1.299  2.8540 -1.0933  0.4110
17434TIP3    H273794   3.541   4.061   1.374  0.3662  1.5027 -1.8569
17435TIP3   OH273795   3.592   5.896   1.788 -0.1646  0.3897 -0.3815
17435TIP3    H173796   3.636   5.849   1.859  2.0088  2.0550 -0.5140
17435TIP3    H273797   3.513   5.845   1.771  0.3927 -1.3215  1.6737
17436TIP3   OH273798   4.019   2.563  11.474  0.7130  0.1170  0.5521
17436TIP3    H173799   3.970   2.595  11.398  0.1992 -0.1478  0.7736
17436TIP3    H273800   4.002   2.629  11.542  3.6564  2.0785 -0.4184
17437TIP3   OH273801   5.821   3.473  14.918 -0.1277 -0.1730 -0.3901
17437TIP3    H173802   5.806   3.449  15.009 -0.7462 -1.2298 -0.7578
17437TIP3    H273803   5.857   3.562  14.922 -0.6726  0.0068  0.8528
17438TIP3   OH273804   0.307   5.768   0.289  0.0889  0.3206 -0.1778
17438TIP3    H173805   0.399   5.744   0.306  0.3597  0.8784 -0.8083
17438TIP3    H273806   0.312   5.826   0.214 -0.9190 -0.8178 -1.1547
17439TIP3   OH273807   5.835   6.696  17.085 -0.0990 -0.0842  0.4627
17439TIP3    H173808   5.888   6.739  17.018 -0.5322 -0.9190 -0.4494
17439TIP3    H273809   5.745   6.710  17.055 -0.4613  1.6202  2.1710
17440TIP3   OH273810   3.761   5.279   3.379 -0.0257 -0.0758  0.8683
17440TIP3    H173811   3.721   5.204   3.423 -1.6021 -0.3995 -1.0038
17440TIP3    H273812   3.688   5.336   3.355  0.7176  0.0279 -1.3772
17441TIP3   OH273813   2.459   5.679   4.496 -0.4363 -0.1312  0.0907
17441TIP3    H173814   2.528   5.696   4.561 -0.4890 -1.0613  0.3960
17441TIP3    H273815   2.416   5.600   4.526  2.3292 -3.2917 -3.2745
17442TIP3   OH273816   3.878   0.287   5.013 -0.0896 -0.5143 -0.2561
17442TIP3    H173817   3.879   0.354   4.945  0.4403 -0.5003 -0.2380
17442TIP3    H273818   3.968   0.255   5.017  0.8006  1.8047  2.7313
17443TIP3   OH273819   0.252   3.580   3.113  0.5363 -0.0502 -0.6573
17443TIP3    H173820   0.341   3.601   3.141 -0.3083  0.5270  1.7534
17443TIP3    H273821   0.204   3.662   3.121 -0.3415 -0.4622 -1.4992
17444TIP3   OH273822   5.355   3.193   5.342  1.2689 -0.0934 -0.3545
17444TIP3    H173823   5.354   3.284   5.314  0.0249  0.2882  0.8479
17444TIP3    H273824   5.448   3.171   5.348  1.7611  2.1137  2.3434
17445TIP3   OH273825   1.272   0.235  16.261  0.5586 -0.0036 -0.1484
17445TIP3    H173826   1.340   0.190  16.211 -0.4479 -0.1401 -1.4401
17445TIP3    H273827   1.241   0.305  16.204  1.9263  2.2933  1.7237
17446TIP3   OH273828   0.790   2.736  11.344 -0.8497  0.0426 -0.3050
17446TIP3    H173829   0.783   2.813  11.287 -3.0800 -1.4786 -2.2867
17446TIP3    H273830   0.866   2.688  11.311  1.9556  2.2713  2.3325
17447TIP3   OH273831   4.702   0.612   1.351  0.0527  0.1226 -0.0054
17447TIP3    H173832   4.649   0.622   1.430 -0.2351 -2.2539  0.1763
17447TIP3    H273833   4.760   0.688   1.351 -1.0523  1.0207  1.6030
17448TIP3   OH273834   3.293   1.955   3.017 -0.3566  0.5132 -0.2288
17448TIP3    H173835   3.376   2.003   3.014  0.2423 -0.4900 -3.2091
17448TIP3    H273836   3.231   2.011   2.972 -1.1240  0.8502  1.1832
17449TIP3   OH273837   1.280   2.703   3.464 -0.3555 -0.3152  0.4622
17449TIP3    H173838   1.272   2.719   3.559 -1.9321  1.0536  0.1480
17449TIP3    H273839   1.341   2.771   3.435 -2.2976  1.3860  0.0801
17450TIP3   OH273840   3.997   5.278  11.875  0.1372  0.6264  0.0147
17450TIP3    H173841   3.983   5.203  11.817 -1.7954  2.1417 -1.6596
17450TIP3    H273842   4.063   5.249  11.937  0.3674 -2.0136 -1.3278
17451TIP3   OH273843   2.994   5.466  17.102  0.2076 -0.5848  1.2045
17451TIP3    H173844   3.084   5.468  17.069  0.0598 -1.1345  0.7612
17451TIP3    H273845   2.940   5.483  17.025 -0.0104  2.1606  1.8463
17452TIP3   OH273846   4.223   4.849  15.258  0.2938  0.4749 -0.4468
17452TIP3    H173847   4.154   4.912  15.241  1.0329  1.1763 -0.9269
17452TIP3    H273848   4.179   4.775  15.301 -0.4651  1.6139  0.8048
17453TIP3   OH273849   6.757   5.862  14.271  0.0782 -0.5527  0.2270
17453TIP3    H173850   6.723   5.940  14.313  2.1464  0.0184  0.9358
17453TIP3    H273851   6.710   5.790  14.314 -0.1621  0.1697  1.2163
17454TIP3   OH273852   2.453   2.676   5.416 -0.2129  0.1958  0.6706
17454TIP3    H173853   2.429   2.706   5.329 -0.7596 -1.0951  0.3493
17454TIP3    H273854   2.502   2.595   5.400  0.4862  0.4348  1.5271
17455TIP3   OH273855   1.003   5.109   1.935 -0.2385  0.2015  0.7917
17455TIP3    H173856   1.086   5.157   1.939  0.6539 -1.2056 -0.1420
17455TIP3    H273857   0.937   5.178   1.922  0.6939  1.3960  2.0624
17456TIP3   OH273858   5.509   6.308   3.237 -0.1055 -0.3945  0.1161
17456TIP3    H173859   5.423   6.300   3.278 -1.0450 -0.4678 -1.7882
17456TIP3    H273860   5.526   6.222   3.198  1.3271 -0.7097  1.3219
17457TIP3   OH273861   3.447   2.066  12.730  0.0084 -0.0396 -0.0341
17457TIP3    H173862   3.491   2.011  12.794  0.6955  1.9024  1.2638
17457TIP3    H273863   3.516   2.122  12.695 -0.4497 -0.6998 -2.1577
17458TIP3   OH273864   4.062   4.708   6.296 -0.1849 -0.4450 -0.1813
17458TIP3    H173865   4.113   4.773   6.344  3.1706 -3.3662  0.5054
17458TIP3    H273866   4.001   4.672   6.360 -0.1556  0.0642  0.1360
17459TIP3   OH273867   4.673   1.147  14.112 -0.0773 -0.5446 -0.0042
17459TIP3    H173868   4.681   1.149  14.208  0.0597  1.7902 -0.0147
17459TIP3    H273869   4.579   1.142  14.096 -0.1225 -0.5690  0.2584
17460TIP3   OH273870   0.082   6.153  11.848 -0.4113  0.2027  0.0633
17460TIP3    H173871   0.098   6.144  11.754 -0.8456 -0.6708  0.0630
17460TIP3    H273872   0.155   6.107  11.889 -1.0146 -0.7111  0.1218
17461TIP3   OH273873   4.236   3.785  12.065 -0.0650  0.6039  0.0394
17461TIP3    H173874   4.241   3.873  12.026 -0.4104  0.4486 -0.3552
17461TIP3    H273875   4.272   3.796  12.153  0.5060  1.0095 -0.2380
17462TIP3   OH273876   4.647   2.306  16.769 -0.0374 -0.2272 -0.3675
17462TIP3    H173877   4.584   2.330  16.837 -0.8509 -1.2918 -0.7123
17462TIP3    H273878   4.596   2.301  16.689 -0.2643 -4.0493 -0.1871
17463TIP3   OH273879   1.850   2.065   3.288  0.0769  0.6935 -0.4023
17463TIP3    H173880   1.796   2.007   3.235 -0.4703  1.8893 -1.1924
17463TIP3    H273881   1.807   2.067   3.373  1.0410 -1.3557  0.2228
17464TIP3   OH273882   1.907   3.380  12.832 -0.6288  0.0066  0.1554
17464TIP3    H173883   1.979   3.426  12.788  0.4031 -0.6645  1.0732
17464TIP3    H273884   1.929   3.386  12.925 -0.4766 -2.2752  0.3093
17465TIP3   OH273885   3.365   5.608   2.373 -0.2010  0.7868  0.5731
17465TIP3    H173886   3.368   5.697   2.410  1.5892  0.5622  1.0609
17465TIP3    H273887   3.456   5.586   2.355 -0.5253 -1.2306  1.1170
17466TIP3   OH273888   4.850   2.734  10.977 -0.2061 -0.9254  0.1347
17466TIP3    H173889   4.757   2.753  10.968 -0.3895 -0.5400  2.3299
17466TIP3    H273890   4.856   2.639  10.975 -0.4963 -0.9416 -0.9230
17467TIP3   OH273891   0.508   6.450  16.074  0.0865 -0.6005 -0.1443
17467TIP3    H173892   0.538   6.522  16.130  0.1662 -2.0948  1.8404
17467TIP3    H273893   0.432   6.485  16.028 -1.3013  0.1440  2.4905
17468TIP3   OH273894   2.045   4.956   0.206  0.2432 -0.3594  0.0260
17468TIP3    H173895   1.961   4.973   0.164  0.4209  1.0496  0.1857
17468TIP3    H273896   2.108   4.953   0.134  0.1455 -0.7926 -0.0419
17469TIP3   OH273897   5.444   0.766   0.460  0.3614  0.3556 -0.0329
17469TIP3    H173898   5.358   0.807   0.467  0.2895  0.4187 -1.0635
17469TIP3    H273899   5.441   0.691   0.519 -0.4042  0.3468 -0.0781
17470TIP3   OH273900   0.692   1.710  11.868  0.1284  0.3130  0.0073
17470TIP3    H173901   0.657   1.798  11.856 -0.4332  0.2129  0.8361
17470TIP3    H273902   0.756   1.719  11.939  0.4981  0.1548 -0.2977
17471TIP3   OH273903   3.695   5.841  13.367 -0.2098 -0.3272  0.0541
17471TIP3    H173904   3.666   5.792  13.444  1.4416 -0.1414  0.8316
17471TIP3    H273905   3.787   5.816  13.356 -0.2771  0.0517 -1.5557
17472TIP3   OH273906   0.206   0.003   3.917 -0.9398  0.5175  0.3014
17472TIP3    H173907   0.200  -0.088   3.946 -2.0936  0.0266 -1.2993
17472TIP3    H273908   0.297   0.028   3.934 -0.5032 -1.0449  0.4425
17473TIP3   OH273909   5.679   4.749  11.590  0.1808  0.2872 -0.7919
17473TIP3    H173910   5.716   4.679  11.644  1.8071  0.8438 -1.1299
17473TIP3    H273911   5.605   4.708  11.544  0.4845 -0.9261 -0.2192
17474TIP3   OH273912   0.143   4.262   1.876 -0.2787 -0.8384 -0.0715
17474TIP3    H173913   0.139   4.357   1.867 -0.5131 -0.6760  1.4666
17474TIP3    H273914   0.206   4.234   1.809  0.9578  0.5626  0.4527
17475TIP3   OH273915   3.738   3.335   1.248 -0.2845  0.2759  0.2610
17475TIP3    H173916   3.685   3.409   1.220 -0.2510  0.3438  0.3783
17475TIP3    H273917   3.737   3.275   1.173 -0.6607  0.2042  0.3192
17476TIP3   OH273918   4.182   2.634   2.484  0.2977  0.3122 -0.4629
17476TIP3    H173919   4.116   2.628   2.552  0.0101  0.9873 -0.6758
17476TIP3    H273920   4.184   2.546   2.445  1.3344 -0.4303  1.1953
17477TIP3   OH273921   0.445   4.891   1.295 -0.0955  0.4479 -0.0052
17477TIP3    H173922   0.435   4.807   1.251  2.1118 -0.3007  0.7980
17477TIP3    H273923   0.408   4.955   1.235 -0.4906 -0.9363 -1.2754
17478TIP3   OH273924   5.636   4.618   2.533 -0.8809 -0.3624 -0.4540
17478TIP3    H173925   5.626   4.703   2.491 -1.0071 -0.0424  0.2094
17478TIP3    H273926   5.552   4.604   2.578 -0.8935 -0.8741 -0.6311
17479TIP3   OH273927   5.871   3.886  14.450  0.1681  0.5013  0.0240
17479TIP3    H173928   5.863   3.972  14.410  0.3054  0.4718 -0.0664
17479TIP3    H273929   5.819   3.828  14.394 -1.1354  0.7878  0.8904
17480TIP3   OH273930   4.923   4.623  17.058  0.2184 -0.4141 -0.0431
17480TIP3    H173931   4.916   4.533  17.025  0.7660 -0.4048 -0.1823
17480TIP3    H273932   4.898   4.678  16.984  1.1481 -0.4051 -0.3604
17481TIP3   OH273933   5.176   3.230  15.607 -0.2997 -0.3328 -0.2468
17481TIP3    H173934   5.144   3.216  15.518  0.4679 -1.2102 -0.3977
17481TIP3    H273935   5.152   3.150  15.654  0.1618 -0.2789  0.0819
17482TIP3   OH273936   3.123   2.069  14.485  0.2600 -0.3324  0.0385
17482TIP3    H173937   3.041   2.098  14.525  0.1310 -1.4475  0.6084
17482TIP3    H273938   3.098   2.044  14.396  0.2226  0.4749 -0.1917
17483TIP3   OH273939   0.739   5.917  10.885 -0.3853 -0.6905  0.2159
17483TIP3    H173940   0.710   5.894  10.974 -0.0037 -0.9729  0.2669
17483TIP3    H273941   0.759   5.833  10.844 -0.5868 -0.5622 -0.1510
17484TIP3   OH273942   5.882   3.242   5.308  0.7093 -0.7521 -0.1076
17484TIP3    H173943   5.904   3.332   5.286 -1.3572 -0.0872  0.3645
17484TIP3    H273944   5.927   3.226   5.391 -0.2665  0.4549  0.6858
17485TIP3   OH273945   5.633   4.251  16.570  0.5218 -0.0388 -0.0301
17485TIP3    H173946   5.660   4.171  16.616  1.0368 -0.6136 -1.2906
17485TIP3    H273947   5.669   4.242  16.482  0.1692  1.3706 -0.3496
17486TIP3   OH273948   6.707   0.415   1.680  0.4788 -0.0161 -0.1581
17486TIP3    H173949   6.785   0.409   1.625  1.8420 -1.3069  1.7907
17486TIP3    H273950   6.740   0.434   1.767 -1.4261 -0.1397  0.6360
17487TIP3   OH273951   0.236   0.603   4.041 -0.3188 -0.0646 -0.5165
17487TIP3    H173952   0.314   0.613   4.095 -0.9891 -2.1447  0.9844
17487TIP3    H273953   0.266   0.556   3.963  0.1446  0.2481 -0.5271
17488TIP3   OH273954   4.408   1.194  14.886 -0.0141  0.4100 -0.1955
17488TIP3    H173955   4.377   1.203  14.796 -1.9481  0.3190  0.4104
17488TIP3    H273956   4.431   1.102  14.894 -1.6833 -0.0324 -0.0934
17489TIP3   OH273957   1.369   5.883   0.964 -0.6370  0.0331 -0.8298
17489TIP3    H173958   1.295   5.889   0.904 -1.2358  2.0790 -0.0011
17489TIP3    H273959   1.365   5.965   1.015  2.8125  0.7511 -1.4652
17490TIP3   OH273960   5.798   5.266   4.440 -0.0516  0.7262 -0.4796
17490TIP3    H173961   5.734   5.197   4.457  1.0219 -0.2922 -0.3827
17490TIP3    H273962   5.785   5.329   4.511 -0.4951  0.1922 -0.0763
17491TIP3   OH273963   3.760   2.210  11.863 -0.2387  0.7467 -0.2736
17491TIP3    H173964   3.844   2.241  11.898 -0.3292  0.4277  0.2309
17491TIP3    H273965   3.782   2.172  11.778  0.3961 -0.8152  0.5485
17492TIP3   OH273966   4.221   2.041  11.441 -0.0825 -0.1214  0.1273
17492TIP3    H173967   4.144   2.003  11.483  0.2524  1.1409  2.0395
17492TIP3    H273968   4.241   2.118  11.494  1.9358  0.1283 -0.8958
17493TIP3   OH273969   5.776   3.743   5.359 -0.2327 -0.0460  0.1338
17493TIP3    H173970   5.766   3.802   5.284  0.3849 -0.8055 -0.5738
17493TIP3    H273971   5.739   3.790   5.433 -2.2702  0.1334 -0.9366
17494TIP3   OH273972   0.442   0.339   0.084 -0.0615 -0.3981 -0.2376
17494TIP3    H173973   0.436   0.429   0.052 -0.5713  0.1016  1.1615
17494TIP3    H273974   0.529   0.310   0.059 -0.2200  0.1672 -1.4877
17495TIP3   OH273975   0.102   5.929  13.089 -0.5892 -0.3406  0.1019
17495TIP3    H173976   0.086   5.958  12.999 -2.3455 -0.4681  0.3328
17495TIP3    H273977   0.194   5.903  13.090  0.2571  2.3244 -0.9035
17496TIP3   OH273978   6.398   2.917   3.860 -0.0610  0.0763 -0.3718
17496TIP3    H173979   6.381   2.998   3.812  1.3956 -0.4108 -1.7838
17496TIP3    H273980   6.387   2.848   3.795 -0.4171 -0.7991  0.6032
17497TIP3   OH273981   0.873   3.400  14.924 -0.0827  0.1099 -0.3303
17497TIP3    H173982   0.946   3.440  14.877  0.1689 -1.3214 -1.2047
17497TIP3    H273983   0.849   3.324  14.872 -0.5274 -0.8998  1.2626
17498TIP3   OH273984   3.574   3.280   4.047  0.0034 -0.7633 -0.2498
17498TIP3    H173985   3.501   3.259   4.106 -2.1054  0.0970 -2.3974
17498TIP3    H273986   3.647   3.300   4.106 -2.1609  0.8221  2.1273
17499TIP3   OH273987   5.013   5.928   2.490  0.3619  0.3836 -0.2970
17499TIP3    H173988   4.989   5.841   2.521  0.1168  1.4136  2.6885
17499TIP3    H273989   4.929   5.969   2.468  0.4735 -0.0615 -1.6535
17500TIP3   OH273990   5.601   0.522  10.886  0.3323  0.0030 -0.0807
17500TIP3    H173991   5.568   0.456  10.826 -0.4555 -0.5619  0.9360
17500TIP3    H273992   5.523   0.569  10.915  0.9641  2.1891 -1.6425
17501TIP3   OH273993   5.813   5.356  13.323 -0.0474  0.0135 -0.2738
17501TIP3    H173994   5.797   5.301  13.246 -0.4581  1.6450 -1.3835
17501TIP3    H273995   5.908   5.369  13.324  0.0082 -0.3747 -0.2257
17502TIP3   OH273996   2.662   2.622  16.894 -0.5665 -0.1412  0.3376
17502TIP3    H173997   2.587   2.574  16.928 -1.1382 -0.6884 -1.5310
17502TIP3    H273998   2.625   2.702  16.857  0.2487  1.2969  2.4529
17503TIP3   OH273999   4.855   6.559  15.496 -0.4353  0.4745  0.3679
17503TIP3    H174000   4.937   6.571  15.544  0.6183  0.3880 -1.3478
17503TIP3    H274001   4.816   6.647  15.493  0.8316  1.0290 -0.9124
17504TIP3   OH274002   6.591   2.746  16.283  0.3467  0.3906  0.6028
17504TIP3    H174003   6.641   2.825  16.301  0.9892  0.3157 -0.7169
17504TIP3    H274004   6.516   2.777  16.231 -0.0763  0.2789  1.1335
17505TIP3   OH274005   6.737   5.492   2.441  0.0144  0.2384 -0.2517
17505TIP3    H174006   6.772   5.540   2.365  0.9640  1.2426  0.7820
17505TIP3    H274007   6.655   5.537   2.462 -0.1121  0.1296 -0.5010
17506TIP3   OH274008   2.743   6.416   3.306  0.3127 -0.1437  0.1692
17506TIP3    H174009   2.806   6.355   3.268  0.3696 -0.4811  0.7861
17506TIP3    H274010   2.773   6.429   3.396  0.6134  1.2352 -0.1079
17507TIP3   OH274011   1.631   4.652   4.260 -0.4337 -0.0803  0.2258
17507TIP3    H174012   1.699   4.590   4.233  1.7964  1.2325  2.4177
17507TIP3    H274013   1.598   4.689   4.178  1.1901 -1.0899 -0.9455
17508TIP3   OH274014   2.273   4.596  16.130  0.3033 -0.0565 -0.4960
17508TIP3    H174015   2.363   4.602  16.099 -0.0459 -2.5094 -2.2122
17508TIP3    H274016   2.225   4.555  16.058 -1.6318 -1.3185  1.3989
17509TIP3   OH274017   1.453   6.144  15.434 -0.5796 -0.1789  0.3076
17509TIP3    H174018   1.517   6.215  15.440  0.7506 -1.2167 -0.7472
17509TIP3    H274019   1.398   6.168  15.358  1.7015 -1.5727 -1.9397
17510TIP3   OH274020   5.953   5.563   5.145 -0.3582 -0.1961  0.1786
17510TIP3    H174021   5.937   5.590   5.236  1.4112 -2.5817  1.3303
17510TIP3    H274022   5.870   5.576   5.101 -2.0968 -1.3495  2.8491
17511TIP3   OH274023   0.023   5.302  11.794  0.4862 -0.8199  0.2165
17511TIP3    H174024  -0.072   5.302  11.804  0.5795 -0.5668  1.2032
17511TIP3    H274025   0.039   5.358  11.718 -0.0887  0.2810  0.8874
17512TIP3   OH274026   4.583   3.456  12.026  0.5256  0.5069 -0.2639
17512TIP3    H174027   4.563   3.527  11.966  1.3611 -0.0899 -1.3028
17512TIP3    H274028   4.677   3.441  12.015  0.7096  0.3898  1.2245
17513TIP3   OH274029   6.554   6.739  14.733  0.1834  0.4217  0.3234
17513TIP3    H174030   6.619   6.671  14.751  2.3193  2.4478  0.8640
17513TIP3    H274031   6.479   6.715  14.787  1.3049 -0.9003  1.3978
17514TIP3   OH274032   2.778   0.892   5.946  0.7089  0.0502 -0.3014
17514TIP3    H174033   2.735   0.809   5.965  0.1261  0.2060 -0.8878
17514TIP3    H274034   2.794   0.931   6.031  0.8041 -0.5755 -0.0290
17515TIP3   OH274035   1.245   4.991  14.290 -0.1835 -0.3668 -0.1794
17515TIP3    H174036   1.316   5.051  14.312  0.2677 -1.3464  1.2275
17515TIP3    H274037   1.231   5.003  14.196  1.9951 -0.2908 -0.5399
17516TIP3   OH274038   3.659   3.631   4.175 -0.4296  0.0411 -0.4468
17516TIP3    H174039   3.610   3.665   4.100  0.8375  1.4975 -0.6615
17516TIP3    H274040   3.745   3.608   4.139 -0.7612 -2.1591 -0.0122
17517TIP3   OH274041   0.564   1.958  15.265  0.0658 -0.0763  0.2871
17517TIP3    H174042   0.580   1.891  15.198  2.9191 -0.9063  1.6439
17517TIP3    H274043   0.484   2.001  15.237 -1.1912 -3.1780 -1.3914
17518TIP3   OH274044   1.359   2.515   2.531  0.4490 -0.3909  0.3100
17518TIP3    H174045   1.296   2.491   2.600 -0.0773  1.6546  0.6012
17518TIP3    H274046   1.440   2.471   2.557 -0.3746 -1.6338  0.8950
17519TIP3   OH274047   3.548   4.717   0.112 -0.8104 -0.5174  0.0643
17519TIP3    H174048   3.627   4.677   0.076 -0.4375 -1.0705  1.4320
17519TIP3    H274049   3.541   4.802   0.068  1.8577  0.5754  1.5371
17520TIP3   OH274050   4.797   2.830  15.472  0.0955  0.2748 -0.0033
17520TIP3    H174051   4.710   2.865  15.492  0.2578  0.9088 -0.3882
17520TIP3    H274052   4.842   2.828  15.557 -0.0776  0.5584  0.0986
17521TIP3   OH274053   5.849   4.007   4.790  0.2644  0.3472  0.6934
17521TIP3    H174054   5.847   3.919   4.752 -0.2769  0.5050  0.3444
17521TIP3    H274055   5.859   3.993   4.884  0.0641 -0.0897  0.6528
17522TIP3   OH274056   6.659   5.034   2.067 -0.0573 -0.3037  1.0593
17522TIP3    H174057   6.701   5.116   2.095 -1.2438  0.1417  1.6044
17522TIP3    H274058   6.635   4.990   2.148  0.3880 -1.1047  0.7638
17523TIP3   OH274059   0.977   0.694   4.162 -0.5466 -0.2861  0.0622
17523TIP3    H174060   1.011   0.745   4.236 -0.5551 -0.9508  0.5314
17523TIP3    H274061   0.909   0.749   4.124 -0.7460 -0.0564  0.7350
17524TIP3   OH274062   5.606   4.970  11.461  0.4259 -0.3790  0.0312
17524TIP3    H174063   5.644   4.902  11.517 -0.8439 -0.4339  0.8587
17524TIP3    H274064   5.640   4.950  11.373  0.6271 -1.6656  0.3820
17525TIP3   OH274065   6.527   4.929   4.274  0.9325  0.1306 -0.2242
17525TIP3    H174066   6.478   5.010   4.264 -0.1837 -0.1328  2.1640
17525TIP3    H274067   6.475   4.863   4.228  0.2292  0.2851  0.3223
17526TIP3   OH274068   0.555   0.931   2.074 -0.5290 -0.0251  0.2007
17526TIP3    H174069   0.538   1.021   2.104  0.9278 -0.1017  1.3744
17526TIP3    H274070   0.640   0.909   2.113  0.0399 -1.2382 -1.6086
17527TIP3   OH274071   4.349   2.202  15.233  0.4126 -0.2053 -0.1725
17527TIP3    H174072   4.442   2.186  15.244  0.7481  1.6636  0.0574
17527TIP3    H274073   4.338   2.223  15.140 -0.1202 -2.1802 -0.6107
17528TIP3   OH274074   1.028   5.922  12.579  0.3183 -0.2844  0.5328
17528TIP3    H174075   1.061   5.999  12.532 -0.3925 -0.0173  0.4636
17528TIP3    H274076   1.087   5.851  12.553 -0.3193 -0.2424 -1.0961
17529TIP3   OH274077   6.280   0.660   3.324 -0.0722  0.6114  0.2181
17529TIP3    H174078   6.329   0.741   3.312  2.2958 -0.9075 -1.0679
17529TIP3    H274079   6.268   0.627   3.235 -1.3500 -0.2835  0.7030
17530TIP3   OH274080   0.507   4.016  11.577 -0.4301 -0.1124 -0.5624
17530TIP3    H174081   0.445   3.943  11.574 -0.7960  0.1707 -0.1277
17530TIP3    H274082   0.485   4.068  11.499  0.3557 -0.8679 -1.3082
17531TIP3   OH274083   1.540   1.345  14.745 -0.1549 -0.2593  0.0987
17531TIP3    H174084   1.481   1.295  14.800 -0.4584  1.5124  1.4875
17531TIP3    H274085   1.600   1.280  14.708 -0.9640 -1.6987  1.2307
17532TIP3   OH274086   5.124   3.819   0.675 -0.0074 -0.3279 -0.0836
17532TIP3    H174087   5.150   3.827   0.767  0.5606 -0.1373 -0.2582
17532TIP3    H274088   5.120   3.909   0.643 -0.6505 -0.3699 -0.1253
17533TIP3   OH274089   6.751   3.955  14.648  0.3440 -0.5107  0.0628
17533TIP3    H174090   6.712   3.917  14.570  1.2546 -0.7402 -0.2886
17533TIP3    H274091   6.844   3.931  14.643  0.5073 -0.1038  0.9537
17534TIP3   OH274092   3.154   3.648  12.557 -0.3859  0.6907  0.0433
17534TIP3    H174093   3.108   3.682  12.480  0.5209  1.6324 -0.0987
17534TIP3    H274094   3.087   3.648  12.625 -0.8686  1.0870 -0.4143
17535TIP3   OH274095   2.143   6.707   1.658  0.2732  0.2635  0.5079
17535TIP3    H174096   2.207   6.764   1.701  0.4844  0.7997 -0.5055
17535TIP3    H274097   2.177   6.695   1.569 -0.4171 -0.4297  0.3301
17536TIP3   OH274098   3.638   5.869   2.253  0.5897  0.2544 -0.6208
17536TIP3    H174099   3.642   5.798   2.317 -0.3005  1.0049  0.2803
17536TIP3    H274100   3.716   5.922   2.271 -0.3010  1.1588  0.6866
17537TIP3   OH274101   6.168   3.374   5.341  0.4616  0.1424 -0.1923
17537TIP3    H174102   6.170   3.325   5.260 -0.0713  2.2074 -1.5318
17537TIP3    H274103   6.114   3.451   5.322  1.0101  1.1207  1.8509
17538TIP3   OH274104   5.354   4.101   4.071 -0.0719  0.1693 -0.0743
17538TIP3    H174105   5.366   4.196   4.064  1.4292 -0.0530 -1.0458
17538TIP3    H274106   5.327   4.075   3.983 -0.3292 -0.3295  0.1527
17539TIP3   OH274107   4.009   4.152  12.723  0.3025  0.0390 -0.0842
17539TIP3    H174108   4.055   4.074  12.755  0.6927  0.3501  0.1190
17539TIP3    H274109   3.936   4.117  12.672 -1.3572 -0.5169  2.4977
17540TIP3   OH274110   6.539   0.440  14.674 -0.1461  0.1955 -0.0845
17540TIP3    H174111   6.602   0.368  14.674 -2.8404 -2.3809 -1.3227
17540TIP3    H274112   6.523   0.457  14.581 -1.9378  0.0564  0.1581
17541TIP3   OH274113   3.844   1.714   4.918  0.1617  0.2931 -0.1176
17541TIP3    H174114   3.888   1.700   4.834  0.1791 -1.4236  0.1408
17541TIP3    H274115   3.828   1.626   4.952 -0.6006  0.9380  1.2984
17542TIP3   OH274116   3.827   1.065   4.166 -0.2416  0.0810 -0.1224
17542TIP3    H174117   3.770   1.084   4.092  0.0460  1.2885 -0.0492
17542TIP3    H274118   3.767   1.050   4.239 -0.4921  0.8611 -0.1559
17543TIP3   OH274119   4.915   4.443  11.849 -0.2618  0.3979  0.2045
17543TIP3    H174120   4.842   4.476  11.797  1.1914  2.0049 -0.9256
17543TIP3    H274121   4.921   4.503  11.923  0.1413  0.5032  0.0888
17544TIP3   OH274122   6.092   4.634  13.270  0.3368  1.0231 -0.2525
17544TIP3    H174123   6.016   4.576  13.265  2.8727 -2.4790 -2.9447
17544TIP3    H274124   6.056   4.721  13.254 -3.1623 -0.3148 -0.6313
17545TIP3   OH274125   0.960   6.660   6.298 -0.5458 -0.3155 -0.7911
17545TIP3    H174126   0.964   6.752   6.273  1.0312  0.0266  0.5702
17545TIP3    H274127   1.025   6.617   6.243  1.9290  0.2028  1.5564
17546TIP3   OH274128   2.447   1.233   0.632 -0.0563 -0.3896  0.1818
17546TIP3    H174129   2.539   1.227   0.605  0.6968 -2.4670  2.7957
17546TIP3    H274130   2.442   1.317   0.679 -0.0499  0.6471 -1.5721
17547TIP3   OH274131   2.042   6.337   1.726 -0.4541  0.4437 -0.1645
17547TIP3    H174132   2.049   6.375   1.814  0.1046  1.6291 -0.7036
17547TIP3    H274133   1.949   6.314   1.718 -0.4276 -0.0943  0.8942
17548TIP3   OH274134   6.163   1.651  12.472 -0.2224  0.1770  0.6504
17548TIP3    H174135   6.113   1.581  12.430 -0.3959 -0.1536  1.3948
17548TIP3    H274136   6.151   1.727  12.415  2.4550 -1.1131 -1.8921
17549TIP3   OH274137   2.366   6.537   1.863 -0.1168  0.6331  0.4272
17549TIP3    H174138   2.437   6.557   1.802  0.2551 -1.4545  0.1260
17549TIP3    H274139   2.371   6.443   1.877 -1.5902  0.7285  1.9735
17550TIP3   OH274140   2.290   0.193  14.562  0.5733 -0.6390  0.2648
17550TIP3    H174141   2.291   0.289  14.567  0.8587 -0.5540 -1.0680
17550TIP3    H274142   2.381   0.169  14.545  0.2891 -1.0586 -0.7181
17551TIP3   OH274143   4.700   1.440   0.275 -0.2784 -0.2629  0.3266
17551TIP3    H174144   4.660   1.404   0.355 -0.8327 -0.4871 -0.0408
17551TIP3    H274145   4.628   1.441   0.211  0.3953 -0.9902 -0.4559
17552TIP3   OH274146   5.440   0.413  13.739 -0.1084  0.1855 -0.0254
17552TIP3    H174147   5.408   0.326  13.763 -0.8344  0.2776 -0.6338
17552TIP3    H274148   5.523   0.396  13.695  0.0615 -0.1485  0.4094
17553TIP3   OH274149   6.522   6.574  10.892  0.2552 -0.5335  0.4487
17553TIP3    H174150   6.491   6.508  10.829  1.3173 -0.0821 -0.5968
17553TIP3    H274151   6.580   6.526  10.951 -0.0560 -0.7995  0.5363
17554TIP3   OH274152   6.387   1.506  12.110 -0.0738  0.5009  0.2777
17554TIP3    H174153   6.329   1.469  12.176 -2.0374  1.1000 -1.0222
17554TIP3    H274154   6.407   1.594  12.142 -1.3865  0.9567 -0.1198
17555TIP3   OH274155   3.474   2.922  15.892  0.2195  0.0851 -0.0677
17555TIP3    H174156   3.469   3.013  15.921 -0.9151  0.1202 -0.3205
17555TIP3    H274157   3.474   2.871  15.972 -1.0063  0.2522  0.0617
17556TIP3   OH274158   1.440   0.513   5.848 -0.0995  0.2981  0.3440
17556TIP3    H174159   1.493   0.498   5.927 -0.7478  0.3235  0.7931
17556TIP3    H274160   1.386   0.589   5.870  0.1945  0.7287 -0.3830
17557TIP3   OH274161   6.625   2.332   4.184 -0.3269 -0.8701 -0.1073
17557TIP3    H174162   6.592   2.242   4.182 -2.1630 -0.2450  0.3618
17557TIP3    H274163   6.609   2.366   4.096  0.0741 -0.9024 -0.1937
17558TIP3   OH274164   4.650   6.644  15.089 -0.3130 -0.3074  0.3308
17558TIP3    H174165   4.745   6.633  15.089 -0.0629  1.6168  0.5570
17558TIP3    H274166   4.630   6.687  15.006 -0.8239  0.4079  0.8098
17559TIP3   OH274167   6.840   0.326  13.683 -0.6065  0.1925 -0.2853
17559TIP3    H174168   6.845   0.415  13.717  2.9477  0.0465 -0.1104
17559TIP3    H274169   6.842   0.271  13.761 -1.3373 -0.1087 -0.4618
17560TIP3   OH274170   6.711   3.728  11.576 -0.6067 -0.3860 -0.8856
17560TIP3    H174171   6.775   3.711  11.507  2.3575 -1.5883  1.9325
17560TIP3    H274172   6.743   3.680  11.652 -2.9612  1.8246  1.7713
17561TIP3   OH274173   1.498   5.176   2.103 -0.1079  0.2596 -0.2558
17561TIP3    H174174   1.509   5.138   2.016 -1.2397 -0.4631 -0.0975
17561TIP3    H274175   1.405   5.197   2.109 -0.1379 -0.1414  0.9527
17562TIP3   OH274176   5.242   3.771  16.277 -0.0119  0.0706  0.0066
17562TIP3    H174177   5.283   3.828  16.343 -0.9074  1.2786 -0.4583
17562TIP3    H274178   5.209   3.697  16.328 -0.8228  1.0572  0.9623
17563TIP3   OH274179   5.874   1.789  12.599  0.6289  0.0890  0.8921
17563TIP3    H174180   5.812   1.736  12.548  0.7793  0.7169  0.0218
17563TIP3    H274181   5.955   1.786  12.548  0.6100  1.2089  0.7671
17564TIP3   OH274182   1.018   1.891  14.587  0.4284  0.0926 -0.0883
17564TIP3    H174183   1.058   1.946  14.655  2.7218 -1.7722  0.1765
17564TIP3    H274184   0.962   1.830  14.636  0.1907  0.2817 -0.1194
17565TIP3   OH274185   1.834   1.834   2.336 -0.2131 -0.2006 -0.0858
17565TIP3    H174186   1.912   1.803   2.382  0.5808  0.5373 -0.8903
17565TIP3    H274187   1.792   1.754   2.303 -0.4150 -0.6826  1.2893
17566TIP3   OH274188   0.444   2.255   4.025 -0.2556  0.5203 -0.4850
17566TIP3    H174189   0.505   2.319   3.988  0.9603  0.1156  0.7469
17566TIP3    H274190   0.489   2.171   4.017 -0.0629  0.3715  1.5485
17567TIP3   OH274191   0.394   0.905  12.001  0.3213 -0.3461  0.0188
17567TIP3    H174192   0.450   0.840  12.044  1.1855 -1.0874 -2.1128
17567TIP3    H274193   0.344   0.854  11.937 -0.1734  0.8494 -0.5686
17568TIP3   OH274194   3.131   1.842   0.880 -0.1339 -0.3390  0.1557
17568TIP3    H174195   3.218   1.881   0.873 -1.1986  1.9576 -1.7906
17568TIP3    H274196   3.136   1.764   0.826  0.6634 -0.1087 -0.1234
17569TIP3   OH274197   1.422   1.727  11.169 -0.0695 -0.0772 -0.0089
17569TIP3    H174198   1.418   1.764  11.257 -1.0817 -0.5017  0.1315
17569TIP3    H274199   1.401   1.800  11.111 -0.7247 -0.1148  0.1836
17570TIP3   OH274200   3.158   0.267  13.393  0.0547  0.0606  0.2026
17570TIP3    H174201   3.177   0.359  13.379 -0.4509  0.6356  2.8769
17570TIP3    H274202   3.125   0.236  13.308  1.5471  1.9351 -1.1412
17571TIP3   OH274203   3.184   4.600   3.413  0.0410 -1.0802 -0.3896
17571TIP3    H174204   3.182   4.530   3.347 -1.5413  0.3957 -1.9949
17571TIP3    H274205   3.097   4.640   3.408  0.5623  0.3573  1.2242
17572TIP3   OH274206   0.347   4.209  12.922 -0.7521  0.6047  0.2183
17572TIP3    H174207   0.268   4.162  12.896 -0.1767 -1.5003  1.9845
17572TIP3    H274208   0.412   4.140  12.936  1.3288  2.2435 -0.8465
17573TIP3   OH274209   3.859   3.414   5.396  0.1636  0.1089 -0.1674
17573TIP3    H174210   3.920   3.408   5.322  0.0715  1.2301 -0.3509
17573TIP3    H274211   3.790   3.472   5.366  1.4506  2.8090  1.6415
17574TIP3   OH274212   6.423   2.950   4.734  0.5323 -0.3249 -0.5596
17574TIP3    H174213   6.387   3.002   4.806 -0.9306 -0.2964 -1.2661
17574TIP3    H274214   6.441   3.013   4.665 -0.8848 -0.6533 -1.2781
17575TIP3   OH274215   3.329   0.219   2.861  0.2668 -0.3537  0.7372
17575TIP3    H174216   3.255   0.206   2.921 -0.6243  2.1761  0.2822
17575TIP3    H274217   3.398   0.256   2.916  0.0639  0.3033  0.5559
17576TIP3   OH274218   3.906   5.548   4.236  0.3197 -0.0193 -0.3373
17576TIP3    H174219   3.853   5.619   4.200  0.8399  0.5630  0.0279
17576TIP3    H274220   3.923   5.490   4.161  1.4215  1.1937 -1.0577
17577TIP3   OH274221   4.781   3.418   4.245 -0.1935 -0.0338 -0.6316
17577TIP3    H174222   4.849   3.351   4.240 -1.0970 -1.0976  0.6930
17577TIP3    H274223   4.826   3.496   4.278  0.2219 -1.0507  1.3655
17578TIP3   OH274224   2.701   4.107  12.162  0.1812  0.5450 -0.0650
17578TIP3    H174225   2.737   4.030  12.119  1.0928  0.3948  0.9249
17578TIP3    H274226   2.617   4.121  12.119 -0.8852 -2.1001  0.9261
17579TIP3   OH274227   5.058   6.273   0.129 -0.8127 -0.0961  0.4125
17579TIP3    H174228   5.106   6.243   0.052  0.9917 -0.5918  1.6920
17579TIP3    H274229   5.049   6.368   0.116 -1.1459 -0.2686 -0.7185
17580TIP3   OH274230   2.104   6.817  16.333 -0.1925  0.0097  0.0126
17580TIP3    H174231   2.033   6.847  16.389  0.1437  1.1950 -0.1692
17580TIP3    H274232   2.165   6.891  16.330  0.3444 -0.4562 -0.9993
17581TIP3   OH274233   2.200   3.933   1.297  0.0369  0.0484 -0.2442
17581TIP3    H174234   2.225   3.977   1.378 -3.0466  0.2845  0.7304
17581TIP3    H274235   2.141   3.863   1.326  0.0538 -0.8377 -2.1998
17582TIP3   OH274236   1.918   1.996  12.714  0.3713 -0.7769  0.3718
17582TIP3    H174237   1.864   1.929  12.756  1.6260 -1.3750  1.0635
17582TIP3    H274238   2.004   1.987  12.755  0.7224  0.8660  0.0487
17583TIP3   OH274239   2.857   2.834  14.099 -0.2463  0.0595  0.2314
17583TIP3    H174240   2.926   2.768  14.088 -0.1911  0.4467 -2.3541
17583TIP3    H274241   2.905   2.916  14.113 -0.0940  0.3624 -1.7609
17584TIP3   OH274242   5.867   0.464   0.979 -0.0890 -0.3193  0.0116
17584TIP3    H174243   5.784   0.510   0.982  0.2907  0.3575  0.4339
17584TIP3    H274244   5.929   0.529   0.944  0.4553 -0.4897  0.6332
17585TIP3   OH274245   3.871   1.749  10.620 -0.2365 -0.0604  0.0457
17585TIP3    H174246   3.857   1.829  10.570 -1.5714 -0.4430 -0.2463
17585TIP3    H274247   3.966   1.741  10.628 -0.0797  2.1546  1.0852
17586TIP3   OH274248   4.117   2.552   5.629  0.1188  0.0202 -0.6359
17586TIP3    H174249   4.170   2.626   5.600 -0.9001  1.2445  0.4641
17586TIP3    H274250   4.050   2.542   5.562  0.0384  0.3575 -0.6094
17587TIP3   OH274251   3.582   1.610   5.207 -0.0491 -0.2016 -0.0770
17587TIP3    H174252   3.569   1.624   5.301 -1.4961 -1.1714 -0.0831
17587TIP3    H274253   3.496   1.628   5.169  0.7664  1.1372 -1.3686
17588TIP3   OH274254   2.735   4.631   5.746  0.1961  0.1577 -0.1153
17588TIP3    H174255   2.675   4.588   5.806 -0.6577  0.1750 -0.9326
17588TIP3    H274256   2.758   4.713   5.789  0.7199 -0.4664  0.8177
17589TIP3   OH274257   2.825   1.358  16.384  0.3319  0.4370  0.1485
17589TIP3    H174258   2.744   1.384  16.428  0.3299  0.4553  0.1346
17589TIP3    H274259   2.797   1.312  16.305  0.3335  0.8040 -0.0680
17590TIP3   OH274260   3.799   1.392  10.642  0.3899  0.1800 -0.0678
17590TIP3    H174261   3.725   1.334  10.656  0.0962  0.5912  0.1041
17590TIP3    H274262   3.783   1.466  10.700  2.3481 -0.9971  2.1409
17591TIP3   OH274263   3.991   6.649   0.679  0.3226  0.1329 -0.0385
17591TIP3    H174264   4.083   6.627   0.672 -0.2737 -2.5095 -0.4394
17591TIP3    H274265   3.956   6.587   0.742 -1.1813  1.1807  0.2213
17592TIP3   OH274266   1.126   4.793  16.704 -0.0894  0.5029 -0.1440
17592TIP3    H174267   1.077   4.750  16.774  0.6261  1.5761  1.0693
17592TIP3    H274268   1.192   4.845  16.750  0.7774  0.7880 -1.6531
17593TIP3   OH274269   1.620   0.617  12.324 -0.2442 -0.2525 -0.2164
17593TIP3    H174270   1.700   0.602  12.275  0.7535 -0.8751  1.5166
17593TIP3    H274271   1.646   0.611  12.416 -1.7579  2.1882  0.4659
17594TIP3   OH274272   1.539   6.523   6.037 -0.2347  0.2117  0.4854
17594TIP3    H174273   1.458   6.528   5.986  0.6581  1.2750 -0.8981
17594TIP3    H274274   1.517   6.464   6.109 -1.2415 -2.3790 -1.7314
17595TIP3   OH274275   3.519   6.803  14.782  0.1016  0.9874 -0.6157
17595TIP3    H174276   3.597   6.851  14.754  0.3447  0.7767 -0.3010
17595TIP3    H274277   3.453   6.871  14.795 -0.4195  1.0149 -2.9295
17596TIP3   OH274278   3.414   1.320  16.843  0.2117 -0.4298 -0.0272
17596TIP3    H174279   3.461   1.371  16.777 -0.5554  0.1459 -0.1334
17596TIP3    H274280   3.323   1.346  16.834 -0.1200 -1.4373  0.2742
17597TIP3   OH274281   4.316   4.137   0.412  0.3631 -0.0631  0.4277
17597TIP3    H174282   4.395   4.160   0.363 -1.3653  2.5627 -1.3416
17597TIP3    H274283   4.304   4.209   0.474 -0.4568 -0.6275  0.9390
17598TIP3   OH274284   3.985   6.829   0.337 -0.2112 -0.4741 -0.0724
17598TIP3    H174285   4.022   6.891   0.274 -0.4665 -0.0114  0.2190
17598TIP3    H274286   3.983   6.878   0.419  0.2053 -1.1014  0.3142
17599TIP3   OH274287   4.749   3.378   3.571 -0.0770  0.1368  0.4615
17599TIP3    H174288   4.837   3.416   3.578 -1.2397  2.9974  1.0276
17599TIP3    H274289   4.708   3.424   3.498 -1.2337 -0.9341  0.3958
17600TIP3   OH274290   1.490   0.374   0.595  0.2893  0.2022 -0.2353
17600TIP3    H174291   1.567   0.392   0.649 -0.2942 -1.9134  1.4675
17600TIP3    H274292   1.433   0.450   0.608  1.6276  1.3384 -0.7387
17601TIP3   OH274293   2.327   5.687   5.234  0.1214 -0.6151 -0.6562
17601TIP3    H174294   2.321   5.782   5.242  1.4516 -0.6012  0.7103
17601TIP3    H274295   2.412   5.672   5.192  1.0158 -1.2216  1.2704
17602TIP3   OH274296   2.301   5.527   0.933  0.0476  0.0579  0.3791
17602TIP3    H174297   2.220   5.506   0.887  0.6846 -0.5314 -0.5130
17602TIP3    H274298   2.283   5.610   0.977 -0.3907  1.0197 -1.4752
17603TIP3   OH274299   3.503   5.972   1.397  0.1024  0.2109 -0.5796
17603TIP3    H174300   3.573   6.010   1.450 -1.1898  0.5960  0.9248
17603TIP3    H274301   3.451   6.046   1.369 -1.2789 -0.2346  0.6776
17604TIP3   OH274302   3.858   4.988   2.573  0.2646  0.6862 -0.1029
17604TIP3    H174303   3.901   4.999   2.488  2.4115  0.7391  0.9410
17604TIP3    H274304   3.875   4.896   2.596 -1.5609  0.2501 -0.3444
17605TIP3   OH274305   6.191   3.427   4.909 -0.2646  0.1727  0.2025
17605TIP3    H174306   6.183   3.523   4.905 -1.1630  0.0939 -0.1831
17605TIP3    H274307   6.275   3.409   4.867 -0.4508  0.7517 -0.4526
17606TIP3   OH274308   6.671   1.735   5.621 -0.5737  0.1017  0.3057
17606TIP3    H174309   6.685   1.644   5.595 -0.3889  0.4146 -0.7668
17606TIP3    H274310   6.700   1.739   5.712  1.7323 -0.3921 -0.3420
17607TIP3   OH274311   0.984   3.881   4.576 -0.2340 -0.2861 -0.0392
17607TIP3    H174312   1.054   3.947   4.575  1.6282 -2.0615 -3.0297
17607TIP3    H274313   1.006   3.824   4.650  0.5393  0.1311  0.0648
17608TIP3   OH274314   2.433   0.795   5.187 -0.1606  0.1817 -0.3136
17608TIP3    H174315   2.367   0.863   5.196  0.4874  0.7586  0.1250
17608TIP3    H274316   2.449   0.789   5.093 -0.5417  0.3244 -0.3873
17609TIP3   OH274317   2.125   2.482   3.291  0.1831 -0.0632  1.1463
17609TIP3    H174318   2.142   2.475   3.385  0.5575  0.3845  1.1133
17609TIP3    H274319   2.047   2.538   3.286  0.8841  0.9400  1.1467
17610TIP3   OH274320   3.195   1.239  11.281 -0.1030 -0.6832  0.6609
17610TIP3    H174321   3.237   1.262  11.198 -0.9863  1.2591  0.7173
17610TIP3    H274322   3.184   1.322  11.327 -0.4756 -1.6139  2.3370
17611TIP3   OH274323   3.683   5.349  11.109  0.5429  0.2277 -0.5051
17611TIP3    H174324   3.622   5.414  11.073  0.0431 -0.7633 -1.4786
17611TIP3    H274325   3.757   5.350  11.048  1.1030  0.7557  0.1650
17612TIP3   OH274326   3.135   0.464  12.715 -0.0720  0.4494  0.0330
17612TIP3    H174327   3.165   0.538  12.769  2.2334 -0.5110  0.2065
17612TIP3    H274328   3.172   0.387  12.758  0.9589 -0.4429 -2.3004
17613TIP3   OH274329   5.351   6.148   1.489 -0.7198 -0.5381  0.0699
17613TIP3    H174330   5.347   6.053   1.476  1.8923 -0.4919 -1.9357
17613TIP3    H274331   5.270   6.180   1.450 -0.9474 -1.8449 -0.6152
17614TIP3   OH274332   3.395   1.559  15.522  0.0714 -0.0504 -0.4034
17614TIP3    H174333   3.388   1.614  15.444 -0.8578  2.1980  1.1549
17614TIP3    H274334   3.471   1.503  15.505 -0.2387  0.1801 -2.9775
17615TIP3   OH274335   3.157   3.861  14.186  0.8324  0.4303  0.0324
17615TIP3    H174336   3.169   3.849  14.280 -0.1327 -2.0180 -0.0973
17615TIP3    H274337   3.227   3.809  14.146 -0.2014 -0.5161 -0.5904
17616TIP3   OH274338   0.094   6.083   5.329  0.1670  0.6228  0.4746
17616TIP3    H174339   0.120   6.089   5.237  0.5650  0.4480  0.5740
17616TIP3    H274340   0.135   6.003   5.361 -0.3453  0.4409  0.6865
17617TIP3   OH274341   5.493   3.796  15.580 -0.3119  0.0303  0.3087
17617TIP3    H174342   5.429   3.867  15.587  0.4995  0.6975  1.2320
17617TIP3    H274343   5.578   3.840  15.573  0.2707 -0.8267  1.5647
17618TIP3   OH274344   6.064   0.217  16.456  0.2831 -0.1049  0.1130
17618TIP3    H174345   6.142   0.259  16.420  0.4855 -1.0338 -0.5668
17618TIP3    H274346   6.076   0.124  16.437 -0.0932 -0.5043  1.6936
17619TIP3   OH274347   1.696   5.398   2.409 -0.9764 -0.1471 -0.0919
17619TIP3    H174348   1.702   5.322   2.351 -0.1142 -0.9362  0.9895
17619TIP3    H274349   1.603   5.406   2.430 -1.6998  1.4960 -3.2356
17620TIP3   OH274350   1.383   4.442  12.005 -0.5839  1.0959  0.6967
17620TIP3    H174351   1.413   4.385  11.934 -3.8361  0.5700 -0.4248
17620TIP3    H274352   1.433   4.413  12.082  0.2147 -1.0307 -0.5465
17621TIP3   OH274353   3.331   0.568   4.933  0.1677 -0.2986 -0.2491
17621TIP3    H174354   3.316   0.509   4.859  0.2035 -2.3403  1.2797
17621TIP3    H274355   3.294   0.652   4.905  0.4076 -0.9369 -2.6405
17622TIP3   OH274356   5.188   1.054  14.975 -0.1038  0.2349  0.2992
17622TIP3    H174357   5.179   1.125  14.912 -0.6695 -1.4816 -1.6796
17622TIP3    H274358   5.268   1.008  14.948  0.8222  0.6248  2.1560
17623TIP3   OH274359   6.381   0.536  12.571 -0.0827  0.4245 -0.2571
17623TIP3    H174360   6.417   0.585  12.497  1.4537  0.7840  0.6825
17623TIP3    H274361   6.342   0.458  12.531  2.0779 -0.1690 -1.3766
17624TIP3   OH274362   6.816   4.600   3.198  0.0958  0.5833  0.4831
17624TIP3    H174363   6.732   4.569   3.163  1.1793  1.2120 -3.1331
17624TIP3    H274364   6.814   4.694   3.183  0.2821  1.1065  3.3097
17625TIP3   OH274365   3.405   5.493  12.810 -1.1029 -0.2124  0.0077
17625TIP3    H174366   3.380   5.527  12.724  1.2952  0.7415 -0.4158
17625TIP3    H274367   3.468   5.558  12.843 -0.5437 -1.5160  1.6348
17626TIP3   OH274368   2.862   5.101   5.852  0.6576  0.0531 -0.7319
17626TIP3    H174369   2.952   5.118   5.881  0.8626  0.8961 -1.7806
17626TIP3    H274370   2.809   5.112   5.930  1.5811 -1.9559  0.2707
17627TIP3   OH274371   1.945   1.371  16.773  0.1616  0.4992  0.6639
17627TIP3    H174372   1.903   1.455  16.793  1.4237  1.2614  0.2650
17627TIP3    H274373   1.951   1.326  16.857 -3.8494 -0.8811  0.4049
17628TIP3   OH274374   0.573   1.572  17.070 -0.1268  0.0307  0.1292
17628TIP3    H174375   0.499   1.615  17.113  0.8229  1.8795  0.0004
17628TIP3    H274376   0.634   1.552  17.142 -0.7893 -1.6720  0.2629
17629TIP3   OH274377   0.014   0.972   1.969  0.8105 -0.0922  0.4212
17629TIP3    H174378   0.043   0.999   1.882  1.6881  2.4091  1.3812
17629TIP3    H274379   0.083   1.004   2.028  0.6977 -2.4873  2.0047
17630TIP3   OH274380   1.493   1.845   2.945 -0.5233  0.2197  0.2227
17630TIP3    H174381   1.420   1.787   2.968 -0.7847  0.0760 -0.8954
17630TIP3    H274382   1.530   1.806   2.866  0.2203  0.7818  0.2881
17631TIP3   OH274383   1.639   4.598  11.510 -0.5286 -0.3974 -0.5422
17631TIP3    H174384   1.668   4.530  11.449  0.7539 -0.3777 -0.0062
17631TIP3    H274385   1.545   4.586  11.517 -0.5173 -1.2062 -1.5538
17632TIP3   OH274386   0.847   3.689  12.455 -0.2181  0.1015 -0.6540
17632TIP3    H174387   0.935   3.705  12.487 -0.0158  0.7438 -1.4722
17632TIP3    H274388   0.794   3.673  12.533  0.6389 -0.3627 -0.1687
17633TIP3   OH274389   5.643   4.633  13.761 -0.4701 -0.8673  0.6427
17633TIP3    H174390   5.628   4.724  13.788  0.5537 -0.6703  0.5920
17633TIP3    H274391   5.556   4.594  13.759 -1.1649  0.6255 -1.2337
17634TIP3   OH274392   4.530   1.678  15.737  0.5424 -0.0053 -0.2871
17634TIP3    H174393   4.581   1.597  15.735  1.0213  0.2969 -0.8233
17634TIP3    H274394   4.539   1.713  15.649  0.5275  0.7501  0.0098
17635TIP3   OH274395   1.146   2.001  11.218  0.0531 -0.2111  0.3915
17635TIP3    H174396   1.120   1.934  11.281  0.7928 -0.5687  0.3294
17635TIP3    H274397   1.083   1.992  11.146 -0.8896  0.3027  1.1283
17636TIP3   OH274398   0.828   2.818  13.763 -0.2047 -0.1629 -0.1972
17636TIP3    H174399   0.772   2.770  13.824  0.0120 -1.4551 -0.9750
17636TIP3    H274400   0.904   2.843  13.816 -0.3764 -0.5890  0.2611
17637TIP3   OH274401   3.965   5.380   2.116 -0.0867  0.0883  0.8295
17637TIP3    H174402   3.880   5.424   2.117  0.3471  0.9661  0.0145
17637TIP3    H274403   4.010   5.415   2.193  0.9172  2.4812 -0.7264
17638TIP3   OH274404   0.664   0.183  12.860 -0.1712 -0.3532 -0.5019
17638TIP3    H174405   0.649   0.247  12.790  0.9368 -1.0684 -1.4262
17638TIP3    H274406   0.752   0.150  12.844  0.1330 -0.4967  1.2876
17639TIP3   OH274407   5.753   3.483  11.383  0.6567  0.0131 -0.2559
17639TIP3    H174408   5.675   3.518  11.341  1.5324  2.0474 -0.3468
17639TIP3    H274409   5.770   3.400  11.340 -1.6595 -0.6858  0.0575
17640TIP3   OH274410   6.227   2.777   4.886  0.2053 -0.1362 -0.5802
17640TIP3    H174411   6.169   2.842   4.846 -0.3225 -0.2394  0.0091
17640TIP3    H274412   6.315   2.811   4.870 -0.0803  1.0793  0.2827
17641TIP3   OH274413   3.197   0.795  14.003  0.2261  0.0964  0.6563
17641TIP3    H174414   3.194   0.871  13.944 -0.6864 -0.0622  0.4804
17641TIP3    H274415   3.209   0.720  13.945 -0.0468 -0.0002  0.7227
17642TIP3   OH274416   2.849   3.863   1.402  0.7230 -0.3246 -0.0296
17642TIP3    H174417   2.898   3.941   1.429  1.6024 -1.5175  1.9699
17642TIP3    H274418   2.757   3.884   1.421  1.0829 -0.2222  1.7348
17643TIP3   OH274419   1.941   3.624  15.786  0.1444  0.6013  0.2714
17643TIP3    H174420   1.993   3.633  15.706  1.1419  0.1114  0.8479
17643TIP3    H274421   1.940   3.712  15.824  2.0829  0.2846  1.1596
17644TIP3   OH274422   3.626   5.968   0.567  0.5763 -0.3062  0.0162
17644TIP3    H174423   3.569   5.965   0.490 -1.3665 -2.0688  1.4219
17644TIP3    H274424   3.588   6.037   0.622  0.1498 -1.0558  0.6795
17645TIP3   OH274425   2.119   0.816   4.764 -0.7598  0.4693 -0.1391
17645TIP3    H174426   2.043   0.775   4.805 -0.1250  1.2672  1.9585
17645TIP3    H274427   2.129   0.899   4.810  0.1446  1.3280 -1.8195
17646TIP3   OH274428   5.835   3.025  10.858 -0.1981  0.0301  0.7302
17646TIP3    H174429   5.764   3.053  10.800 -0.4467  0.0248  1.0278
17646TIP3    H274430   5.896   3.099  10.860  0.6458 -0.5752 -0.8312
17647TIP3   OH274431   3.234   5.654   3.872  0.1192 -0.0574 -0.1202
17647TIP3    H174432   3.258   5.571   3.914 -1.4693 -0.0822  0.8242
17647TIP3    H274433   3.159   5.633   3.817  0.3989  0.5501 -0.7507
17648TIP3   OH274434   4.276   5.658   1.092 -0.0936 -0.4158 -0.0471
17648TIP3    H174435   4.210   5.654   1.022 -0.0874 -1.1658 -0.0203
17648TIP3    H274436   4.229   5.693   1.167  0.3117  2.0887 -0.8672
17649TIP3   OH274437   3.878   6.144   2.943  0.2038 -0.5428 -0.4693
17649TIP3    H174438   3.884   6.187   3.028  1.8267 -1.2251 -0.1931
17649TIP3    H274439   3.963   6.159   2.902 -0.2955 -0.8432 -1.6696
17650TIP3   OH274440   0.704   1.847   2.527 -0.4582 -0.2871 -0.1298
17650TIP3    H174441   0.713   1.859   2.621 -0.2237 -0.3003 -0.1507
17650TIP3    H274442   0.657   1.764   2.518 -0.7695 -0.1228 -0.0179
17651TIP3   OH274443   4.714   3.930  15.802 -0.2704 -0.1637  0.8177
17651TIP3    H174444   4.743   4.014  15.838 -2.1833  0.9288 -0.0487
17651TIP3    H274445   4.777   3.912  15.732 -0.9288  1.5633 -0.2777
17652TIP3   OH274446   3.790   0.959  15.358 -0.3225 -0.8641  0.1294
17652TIP3    H174447   3.852   1.015  15.405  0.0773 -2.2842  1.3587
17652TIP3    H274448   3.841   0.922  15.286 -1.4327  2.9443 -3.0174
17653TIP3   OH274449   4.043   0.236   1.437  0.6656 -0.0899 -0.3450
17653TIP3    H174450   4.031   0.267   1.347  0.9997 -0.1754 -0.4206
17653TIP3    H274451   4.133   0.262   1.459 -0.7133  3.9273  1.5301
17654TIP3   OH274452   6.727   5.695  13.080 -0.3925 -0.2492 -0.0933
17654TIP3    H174453   6.800   5.641  13.112 -1.5435 -0.7717  1.7928
17654TIP3    H274454   6.769   5.762  13.026  1.1898 -2.4466 -1.8415
17655TIP3   OH274455   4.602   3.732   2.760  0.4924  0.3700  0.1715
17655TIP3    H174456   4.582   3.825   2.760  1.4771  0.6160  1.4424
17655TIP3    H274457   4.698   3.728   2.768  0.4708 -0.7454  0.0492
17656TIP3   OH274458   5.176   3.546   0.131 -0.0546  0.0291  0.6794
17656TIP3    H174459   5.207   3.624   0.178 -1.6301  0.8480  0.4528
17656TIP3    H274460   5.207   3.559   0.041 -0.0140  0.2183  0.7195
17657TIP3   OH274461   6.803   6.532   2.928  0.1633  0.6580 -0.2433
17657TIP3    H174462   6.753   6.614   2.925  1.2805  1.4922  1.7732
17657TIP3    H274463   6.787   6.497   3.015 -1.4097 -2.1067 -1.4947
17658TIP3   OH274464   1.667   3.868   2.747 -0.0328  0.2414 -0.0552
17658TIP3    H174465   1.669   3.782   2.789  0.2785 -0.6380 -1.7777
17658TIP3    H274466   1.745   3.913   2.780  0.3190 -0.5012  0.1509
17659TIP3   OH274467   0.868   5.564   0.422  0.4089 -0.6247  0.4744
17659TIP3    H174468   0.953   5.608   0.417  0.1482 -0.1616  0.0432
17659TIP3    H274469   0.838   5.583   0.511 -0.9196  2.4381 -0.4788
17660TIP3   OH274470   1.254   4.829  13.623 -0.6155  0.2803 -0.3939
17660TIP3    H174471   1.261   4.862  13.533  0.9101  1.2063  0.0297
17660TIP3    H274472   1.329   4.772  13.634 -0.4283  0.6759  0.4913
17661TIP3   OH274473   2.893   1.167   5.690  0.1631  0.1251 -0.3925
17661TIP3    H174474   2.845   1.217   5.623 -0.6589 -0.8920 -0.5841
17661TIP3    H274475   2.982   1.162   5.656 -0.4169 -1.0950 -1.8539
17662TIP3   OH274476   3.539   2.238   5.158 -0.8763 -0.0524 -0.7784
17662TIP3    H174477   3.476   2.309   5.145 -0.8551  0.1980  0.4043
17662TIP3    H274478   3.571   2.218   5.069 -1.1085  1.2032 -1.1669
17663TIP3   OH274479   2.290   3.551  11.592 -0.1376  0.3879  0.0817
17663TIP3    H174480   2.351   3.477  11.590 -2.4766 -1.6797 -0.3139
17663TIP3    H274481   2.274   3.571  11.500 -0.7456  0.2691  0.1573
17664TIP3   OH274482   0.706   3.052   5.869  0.0152  0.4416 -0.4341
17664TIP3    H174483   0.798   3.030   5.888 -0.2174 -0.0559  0.1362
17664TIP3    H274484   0.656   2.983   5.911 -0.6193  0.5734 -0.9672
17665TIP3   OH274485   1.684   6.288   4.291 -0.6280 -0.1717 -0.5829
17665TIP3    H174486   1.694   6.383   4.304 -0.0413 -0.2918 -0.1468
17665TIP3    H274487   1.674   6.279   4.196 -0.9487  0.3503 -0.6054
17666TIP3   OH274488   5.954   3.929   3.763  0.5091  0.3955 -0.2484
17666TIP3    H174489   5.879   3.981   3.792  0.0981 -0.8324  1.0490
17666TIP3    H274490   6.013   3.930   3.838  1.7884  1.2902 -1.2377
17667TIP3   OH274491   1.614   4.168  14.534 -0.1447  0.2831 -0.5611
17667TIP3    H174492   1.635   4.247  14.485 -1.4604 -0.5344 -2.5595
17667TIP3    H274493   1.522   4.151  14.514 -0.0008 -1.5572  0.1232
17668TIP3   OH274494   1.928   3.735   4.971  0.4988  0.7073 -0.3898
17668TIP3    H174495   1.943   3.641   4.978  0.8875  0.7405 -0.7449
17668TIP3    H274496   1.838   3.747   5.000  1.1331  0.5217  1.8482
17669TIP3   OH274497   6.451   0.292  11.657  0.4382 -0.7648  0.2454
17669TIP3    H174498   6.360   0.316  11.671  0.6640 -1.1458  2.6563
17669TIP3    H274499   6.501   0.370  11.682  0.8150 -0.6071 -0.9150
17670TIP3   OH274500   3.173   3.189  15.467 -0.0528  0.5702  0.1508
17670TIP3    H174501   3.228   3.112  15.457  1.0057  1.2710  0.4611
17670TIP3    H274502   3.208   3.234  15.544 -1.3285  0.8171  0.6087
17671TIP3   OH274503   5.604   2.956  14.257 -0.1953  0.0660 -0.4499
17671TIP3    H174504   5.632   2.924  14.343 -0.4977 -0.6216 -0.6022
17671TIP3    H274505   5.666   3.026  14.236 -0.2356  0.3630  0.4084
17672TIP3   OH274506   0.910   0.368  13.556 -0.0813  0.5198  0.4353
17672TIP3    H174507   0.817   0.381  13.578  0.1549  1.8290  0.7399
17672TIP3    H274508   0.949   0.334  13.637 -0.3028 -0.1410  0.2737
17673TIP3   OH274509   1.197   0.507   3.305 -0.2231 -0.3884  0.7126
17673TIP3    H174510   1.276   0.545   3.265  1.0869 -2.7440  0.9006
17673TIP3    H274511   1.214   0.511   3.399 -0.4595 -0.6101  0.7638
17674TIP3   OH274512   5.347   5.758   0.546  0.5572  0.4474 -0.0934
17674TIP3    H174513   5.263   5.801   0.561  1.2022  1.4180  0.8691
17674TIP3    H274514   5.400   5.823   0.499  1.4774  0.6778  1.2050
17675TIP3   OH274515   2.427   6.487  13.630  0.1924 -0.8554  1.0072
17675TIP3    H174516   2.503   6.441  13.597  0.6176  0.4678  0.0651
17675TIP3    H274517   2.402   6.439  13.710  0.7345 -2.5246  0.2109
17676TIP3   OH274518   3.646   6.303   1.661 -0.3441  0.4904 -0.0104
17676TIP3    H174519   3.740   6.286   1.664 -0.1771  1.3407 -0.1583
17676TIP3    H274520   3.614   6.248   1.589  0.0577  0.2845 -0.0348
17677TIP3   OH274521   1.425   5.667  15.058 -0.3628 -0.3465  0.1549
17677TIP3    H174522   1.397   5.754  15.029 -0.9201  0.1024  1.9162
17677TIP3    H274523   1.520   5.672  15.061 -0.2147 -0.6107 -2.0468
17678TIP3   OH274524   3.122   0.070   3.293  0.1663  1.4260  0.0546
17678TIP3    H174525   3.129   0.060   3.198  1.0923 -0.9179  0.3128
17678TIP3    H274526   3.136   0.164   3.307  2.0345  1.5493 -1.9854
17679TIP3   OH274527   0.167   3.920   1.543  0.6105 -0.7601  0.3400
17679TIP3    H174528   0.091   3.966   1.507  1.1301 -0.5011 -0.4537
17679TIP3    H274529   0.208   3.879   1.467  0.9648 -1.3389  0.8423
17680TIP3   OH274530   3.930   3.789  12.196  0.6783  0.0880  0.0981
17680TIP3    H174531   3.969   3.766  12.111  0.8641  4.5181 -1.2846
17680TIP3    H274532   4.005   3.805  12.253  0.7087  0.7457 -0.1098
17681TIP3   OH274533   6.784   2.135   6.049 -0.3590 -0.0078  0.1626
17681TIP3    H174534   6.739   2.187   6.115 -2.2718 -0.7833 -0.4683
17681TIP3    H274535   6.793   2.048   6.089 -0.1084 -0.0621 -0.0061
17682TIP3   OH274536   6.485   6.595   1.780  0.4346  0.1210  0.4993
17682TIP3    H174537   6.557   6.638   1.734  0.2739  0.1728  0.2980
17682TIP3    H274538   6.515   6.590   1.871  1.3040 -1.1286  0.1811
17683TIP3   OH274539   3.311   1.592   5.375 -0.2741  0.4325  0.2792
17683TIP3    H174540   3.252   1.575   5.301  0.9778  2.2963 -1.2434
17683TIP3    H274541   3.252   1.615   5.447 -1.5139 -1.1037 -0.1840
17684TIP3   OH274542   3.258   0.095   3.793 -0.4565  0.2520  0.1792
17684TIP3    H174543   3.306   0.176   3.773  0.2589 -0.4839 -1.2354
17684TIP3    H274544   3.179   0.100   3.739 -0.2653 -0.1159 -0.1404
17685TIP3   OH274545   4.978   6.717   1.581 -0.0017  0.2990  0.2349
17685TIP3    H174546   4.982   6.813   1.572 -0.7110  0.2896 -0.2442
17685TIP3    H274547   4.907   6.702   1.643  0.0325  0.0741  0.2202
17686TIP3   OH274548   5.944   5.197  11.489  0.1206  0.0140 -0.1172
17686TIP3    H174549   5.949   5.209  11.394 -1.1081  1.5632 -0.0155
17686TIP3    H274550   5.970   5.281  11.526 -0.1001 -0.3513  0.9258
17687TIP3   OH274551   1.703   5.282  13.507  0.1482  0.3292  0.2569
17687TIP3    H174552   1.656   5.201  13.487 -1.0715  1.2018 -0.5602
17687TIP3    H274553   1.654   5.321  13.580 -1.0612  1.6981 -1.1936
17688TIP3   OH274554   1.249   0.031  14.829 -0.6453  0.0313 -0.2277
17688TIP3    H174555   1.305   0.053  14.903 -0.0608 -3.1486  0.4279
17688TIP3    H274556   1.167   0.001  14.869 -0.5415 -1.1372 -0.8399
17689TIP3   OH274557   3.939   2.393   5.379 -0.1969  0.2658 -0.2470
17689TIP3    H174558   3.956   2.319   5.321 -2.3460  0.7288 -1.5502
17689TIP3    H274559   3.988   2.466   5.341  2.9225 -0.6130  1.7019
17690TIP3   OH274560   3.933   2.720   3.163 -0.3696  0.3246 -0.1853
17690TIP3    H174561   3.914   2.642   3.215  0.1227  0.0564 -0.4013
17690TIP3    H274562   3.893   2.792   3.211  0.2538  0.1138  0.6668
17691TIP3   OH274563   2.409   4.581   0.737 -0.4480  0.2781 -0.3281
17691TIP3    H174564   2.446   4.515   0.795 -2.1054 -2.3092 -1.9969
17691TIP3    H274565   2.381   4.651   0.795 -0.0361 -1.1803  1.7526
17692TIP3   OH274566   1.381   6.070   5.739  0.4832 -0.6720 -0.2190
17692TIP3    H174567   1.313   6.003   5.745  0.1431 -0.3952 -0.9547
17692TIP3    H274568   1.437   6.053   5.815 -0.5752 -0.7044  0.5743
17693TIP3   OH274569   6.825   4.251   6.400 -0.1215 -0.0680  0.3930
17693TIP3    H174570   6.768   4.315   6.444  0.6905  0.6786  0.3861
17693TIP3    H274571   6.867   4.301   6.331  1.2273 -0.3842  0.9685
17694TIP3   OH274572   1.383   5.208   5.472 -0.0342 -0.1726 -0.1610
17694TIP3    H174573   1.403   5.209   5.565  1.2408  0.4618 -0.4259
17694TIP3    H274574   1.467   5.219   5.428 -0.4209 -1.7878 -1.4349
17695TIP3   OH274575   2.237   5.474  11.689 -0.1896 -0.2324  0.4000
17695TIP3    H174576   2.190   5.455  11.609 -1.0514  0.0346  0.8345
17695TIP3    H274577   2.258   5.567  11.684  1.4047 -0.5987 -0.3554
17696TIP3   OH274578   1.668   2.102   4.725 -0.1689  0.1733 -0.2123
17696TIP3    H174579   1.612   2.044   4.776 -0.6716 -1.0410 -2.0266
17696TIP3    H274580   1.710   2.044   4.661  0.3520  1.6079 -1.2181
17697TIP3   OH274581   0.129   3.483   6.128  0.2231  0.0699  0.2488
17697TIP3    H174582   0.067   3.501   6.199 -0.4389 -1.1732  0.0200
17697TIP3    H274583   0.111   3.393   6.103  1.1611  0.1516 -0.8083
17698TIP3   OH274584   3.554   6.677   4.385  0.5272 -0.3589  0.4258
17698TIP3    H174585   3.481   6.661   4.446  0.3101  3.6400  1.5041
17698TIP3    H274586   3.511   6.704   4.304  0.8535 -1.5031 -0.1456
17699TIP3   OH274587   1.953   6.593   0.115  0.7776 -0.3647 -0.2576
17699TIP3    H174588   1.960   6.689   0.122 -0.0043 -0.3622  0.5832
17699TIP3    H274589   2.044   6.562   0.115  1.0671  0.4078 -1.1795
17700TIP3   OH274590   4.634   1.260  16.769 -1.0633 -0.0617  0.2865
17700TIP3    H174591   4.710   1.309  16.800 -0.4668 -0.1359 -0.9866
17700TIP3    H274592   4.595   1.223  16.848  1.0717 -1.2506  0.8642
17701TIP3   OH274593   6.756   1.296  10.487 -0.1213  0.0986 -0.2665
17701TIP3    H174594   6.792   1.233  10.424 -0.1614 -0.0029 -0.1876
17701TIP3    H274595   6.727   1.242  10.560 -2.4573 -0.0724 -1.2285
17702TIP3   OH274596   0.494   0.345  15.743 -0.4696 -0.2959  0.0259
17702TIP3    H174597   0.574   0.395  15.757 -1.1854  0.7146  0.6380
17702TIP3    H274598   0.453   0.339  15.829 -1.6069  0.1728 -0.4624
17703TIP3   OH274599   6.281   1.951  14.836  0.6273 -0.4832 -0.1848
17703TIP3    H174600   6.193   1.919  14.855  0.4764 -1.5073 -2.3229
17703TIP3    H274601   6.325   1.951  14.922 -1.3959  0.0085  0.9152
17704TIP3   OH274602   4.025   6.732  14.946  0.2141 -0.0177 -0.4934
17704TIP3    H174603   4.015   6.677  14.868  0.3819  0.2124 -0.6802
17704TIP3    H274604   3.953   6.706  15.004  0.5477 -0.7410 -0.3939
17705TIP3   OH274605   4.328   6.463  12.268 -0.1359  0.3571  0.6636
17705TIP3    H174606   4.340   6.555  12.292  2.6194  0.4344 -0.5947
17705TIP3    H274607   4.237   6.457  12.240 -0.1879  2.8770  0.0653
17706TIP3   OH274608   4.144   5.777   1.292  1.0176  0.0613 -0.5120
17706TIP3    H174609   4.127   5.871   1.288  0.5992 -0.0002 -0.2691
17706TIP3    H274610   4.131   5.754   1.384 -0.9932 -0.6025 -0.8939
17707TIP3   OH274611   5.088   0.826   1.637  0.2715 -0.4350 -0.3088
17707TIP3    H174612   5.122   0.845   1.550 -2.3614  0.6784 -1.1659
17707TIP3    H274613   5.116   0.901   1.690  1.8327 -1.0907 -0.1343
17708TIP3   OH274614   2.525   2.115  15.321 -0.3764 -0.0059 -0.2973
17708TIP3    H174615   2.540   2.079  15.233  1.2372  1.2955 -0.6056
17708TIP3    H274616   2.588   2.070  15.377  0.3880  0.9862 -0.3343
17709TIP3   OH274617   3.592   2.473  13.283 -0.0045  0.0424 -0.4321
17709TIP3    H174618   3.583   2.409  13.213  0.1791  1.6613 -2.0133
17709TIP3    H274619   3.661   2.533  13.252 -0.7692  1.4968  0.5580
17710TIP3   OH274620   6.338   4.119   1.059 -0.5988  0.1063 -0.5099
17710TIP3    H174621   6.429   4.101   1.083 -0.0976 -0.0457 -2.3784
17710TIP3    H274622   6.306   4.038   1.021 -0.6774  0.8892 -2.1985
17711TIP3   OH274623   6.285   3.471  16.793 -0.1595 -0.3551  0.0447
17711TIP3    H174624   6.217   3.522  16.838  0.7208 -0.2571  1.3096
17711TIP3    H274625   6.367   3.500  16.833  0.5330 -1.3386 -0.6217
17712TIP3   OH274626   2.019   2.670  14.862 -0.5896 -0.2093 -0.5091
17712TIP3    H174627   1.949   2.693  14.802  1.3789 -0.8198 -3.2190
17712TIP3    H274628   1.994   2.585  14.897 -0.6949 -0.9961 -2.3927
17713TIP3   OH274629   2.717   6.768   3.635 -0.1080  0.4717 -0.1244
17713TIP3    H174630   2.643   6.812   3.592  0.3678  1.8706  0.4061
17713TIP3    H274631   2.790   6.779   3.575  0.6569  2.7786  1.0780
17714TIP3   OH274632   3.584   0.638   4.631  0.2338 -0.3871  0.2802
17714TIP3    H174633   3.610   0.670   4.717  0.0146 -1.5004  0.7823
17714TIP3    H274634   3.665   0.607   4.592  0.7121  1.9835 -0.8001
17715TIP3   OH274635   0.153   2.417  14.319  0.4745 -0.2159  0.3254
17715TIP3    H174636   0.239   2.457  14.327  0.3072  0.1501  0.3290
17715TIP3    H274637   0.120   2.448  14.235  1.2210 -2.0812 -0.7153
17716TIP3   OH274638   0.896   0.770  15.090 -0.2615 -0.5713  0.4475
17716TIP3    H174639   0.858   0.683  15.107 -0.1101 -0.4284  1.6495
17716TIP3    H274640   0.920   0.802  15.177  1.5959 -0.1825 -0.1616
17717TIP3   OH274641   4.544   6.662  15.847 -0.0251  0.2992  0.1774
17717TIP3    H174642   4.480   6.694  15.911 -2.7984  0.7971 -2.5780
17717TIP3    H274643   4.519   6.570  15.833  0.6047  0.1683 -0.1044
17718TIP3   OH274644   5.985   0.026   5.188 -0.5918  0.1040 -0.5810
17718TIP3    H174645   6.062  -0.000   5.136 -0.3970  0.5266 -0.5107
17718TIP3    H274646   5.997  -0.018   5.272  0.4020  1.4182 -0.0042
17719TIP3   OH274647   4.968   2.151   3.144  0.2116 -0.3501  0.4062
17719TIP3    H174648   5.038   2.116   3.089  0.6975  0.8898  0.2034
17719TIP3    H274649   4.928   2.220   3.091  0.1822  0.3333  1.2889
17720TIP3   OH274650   6.208   2.648  15.555  0.6517 -0.2270  0.4080
17720TIP3    H174651   6.218   2.557  15.527 -1.3702 -0.1282 -0.8209
17720TIP3    H274652   6.179   2.695  15.477  3.9895  2.0694  0.3164
17721TIP3   OH274653   3.980   3.873   5.238 -0.1251  0.0554 -0.5919
17721TIP3    H174654   4.045   3.869   5.168 -1.9566  0.7209 -2.4483
17721TIP3    H274655   3.964   3.966   5.251  0.9237  0.0001  1.5188
17722TIP3   OH274656   1.099   5.608   1.818  0.1944 -0.1854  0.0746
17722TIP3    H174657   1.038   5.573   1.883  1.1944 -1.3872  0.3925
17722TIP3    H274658   1.080   5.702   1.816  0.4563 -0.0197  2.4581
17723TIP3   OH274659   4.479   1.795  14.588 -0.1470 -0.4799  0.6316
17723TIP3    H174660   4.465   1.865  14.652  0.9842  0.6055 -0.2675
17723TIP3    H274661   4.530   1.729  14.635  0.5742  0.2537  0.9062
17724TIP3   OH274662   4.821   0.612  13.954  0.0743 -0.4005  0.0527
17724TIP3    H174663   4.777   0.531  13.930 -1.9605  1.2160 -2.1486
17724TIP3    H274664   4.786   0.677  13.894  1.7818  2.1044  1.5702
17725TIP3   OH274665   0.350   4.174   0.464 -0.1872  0.1062 -0.3714
17725TIP3    H174666   0.318   4.148   0.378  0.4959 -0.1557 -0.5512
17725TIP3    H274667   0.394   4.095   0.498  1.3303  0.8063 -0.6420
17726TIP3   OH274668   3.193   1.258   5.377  0.7943  0.2603  0.1712
17726TIP3    H174669   3.264   1.322   5.379  0.9848  0.1123 -1.2613
17726TIP3    H274670   3.145   1.277   5.296 -0.3968 -0.0818  0.7693
17727TIP3   OH274671   0.185   5.104  15.062  0.2737  0.0826  0.2259
17727TIP3    H174672   0.229   5.092  15.146  0.8434 -1.0448 -0.2158
17727TIP3    H274673   0.101   5.058  15.072  1.4885 -2.5334 -0.6918
17728TIP3   OH274674   4.087   5.462  12.955  0.2358 -0.4297 -0.1611
17728TIP3    H174675   3.995   5.437  12.955  0.0233  0.1297  1.9756
17728TIP3    H274676   4.114   5.452  13.046  1.1707  3.2341  0.1052
17729TIP3   OH274677   6.110   1.249  15.873 -0.3584  0.2303  0.4308
17729TIP3    H174678   6.026   1.210  15.847 -0.5607 -0.3116  1.7994
17729TIP3    H274679   6.175   1.201  15.822 -0.6504 -1.5717  1.6503
17730TIP3   OH274680   0.270   2.494   5.698  0.8213  0.2060 -0.4866
17730TIP3    H174681   0.218   2.445   5.761  1.9426  0.4555  0.6721
17730TIP3    H274682   0.310   2.426   5.643 -0.1932 -0.0104 -0.9827
17731TIP3   OH274683   3.893   2.966   6.429  0.2856  0.2380 -0.4103
17731TIP3    H174684   3.861   3.056   6.430 -0.8416 -0.1043 -1.9964
17731TIP3    H274685   3.815   2.913   6.445  0.8801 -0.4718  0.1822
17732TIP3   OH274686   3.471   0.265  14.491 -1.0082 -0.5864  0.1173
17732TIP3    H174687   3.511   0.234  14.573  0.9716 -0.9249 -0.9068
17732TIP3    H274688   3.393   0.312  14.519 -0.5272 -0.8986  2.1881
17733TIP3   OH274689   3.486   4.115   5.897 -0.6135  0.0213 -0.2908
17733TIP3    H174690   3.404   4.164   5.904 -0.2459  0.4360  1.6224
17733TIP3    H274691   3.553   4.182   5.885 -0.0657  0.1318  2.6864
17734TIP3   OH274692   6.379   4.202   6.106 -0.6507  0.3389 -0.2612
17734TIP3    H174693   6.330   4.136   6.154 -2.2423 -0.3980 -2.7575
17734TIP3    H274694   6.313   4.252   6.058  0.8824 -0.2543 -3.2279
17735TIP3   OH274695   2.655   0.571  12.297  0.2679 -0.0210 -0.6224
17735TIP3    H174696   2.661   0.625  12.218 -0.9175  1.4844  0.2709
17735TIP3    H274697   2.601   0.622  12.357 -1.4684 -2.4694  0.0582
17736TIP3   OH274698   1.592   2.463   1.377 -0.2050 -0.1532  0.0603
17736TIP3    H174699   1.498   2.479   1.376 -0.2897 -0.5838 -1.9437
17736TIP3    H274700   1.631   2.551   1.386 -0.7837  0.1189 -0.0476
17737TIP3   OH274701   2.943   3.520  16.869  0.6872  0.0247 -0.2099
17737TIP3    H174702   2.917   3.521  16.962 -3.0098  1.2779 -1.1053
17737TIP3    H274703   2.919   3.432  16.839 -0.0817  0.2896 -0.4026
17738TIP3   OH274704   5.720   4.224  11.638 -0.3303  0.0729 -0.0307
17738TIP3    H174705   5.633   4.186  11.656 -0.3323  0.5687  1.1478
17738TIP3    H274706   5.747   4.260  11.723  0.2619  1.4879 -0.8061
17739TIP3   OH274707   2.457   1.755  14.884  0.0015 -0.0636 -0.0049
17739TIP3    H174708   2.454   1.812  14.961  0.9809  1.1132 -0.8068
17739TIP3    H274709   2.456   1.815  14.810  0.1538 -1.1388 -0.8954
17740TIP3   OH274710   5.230   3.485   2.712 -0.0020 -0.0779 -0.0973
17740TIP3    H174711   5.320   3.520   2.718  0.4160 -0.8461 -1.4667
17740TIP3    H274712   5.199   3.485   2.802  0.6377  2.0816  0.1941
17741TIP3   OH274713   1.420   4.586   5.227 -0.3082 -0.8782  0.1165
17741TIP3    H174714   1.329   4.577   5.196  0.1196 -1.2436 -1.0936
17741TIP3    H274715   1.414   4.575   5.322 -1.7382  0.7270  0.2726
17742TIP3   OH274716   2.549   3.468   3.891  0.8922 -0.0914  0.9412
17742TIP3    H174717   2.526   3.416   3.968 -0.7292 -0.9311 -0.0466
17742TIP3    H274718   2.539   3.408   3.818  0.5101  1.1934 -0.0961
17743TIP3   OH274719   1.614   6.565   2.953 -0.0250 -0.1398  0.2215
17743TIP3    H174720   1.528   6.588   2.989 -0.0659  0.7926 -0.4516
17743TIP3    H274721   1.651   6.648   2.924  0.9390 -0.5936  0.1327
17744TIP3   OH274722   5.897   5.604   5.427  0.3129  0.3637 -0.4069
17744TIP3    H174723   5.812   5.644   5.446 -0.0456 -0.2392 -0.7269
17744TIP3    H274724   5.956   5.641   5.493  0.5976  3.3806 -2.1894
17745TIP3   OH274725   2.058   1.759   2.076  0.3308  0.6823 -0.2986
17745TIP3    H174726   2.015   1.682   2.112  0.1432  0.2811 -1.3270
17745TIP3    H274727   2.109   1.726   2.001  0.1879  1.5547 -0.8033
17746TIP3   OH274728   1.766   2.922  14.168 -0.0063 -0.4848  0.1146
17746TIP3    H174729   1.825   2.994  14.142 -0.1677  1.2616  3.8533
17746TIP3    H274730   1.815   2.875  14.235 -0.3265 -3.3853 -1.5440
17747TIP3   OH274731   2.378   2.695   3.310  0.3069  0.3014  0.0155
17747TIP3    H174732   2.407   2.709   3.400  0.9136 -0.7927  0.0113
17747TIP3    H274733   2.340   2.607   3.312  0.4395  0.2242 -0.8254
17748TIP3   OH274734   0.737   2.843   0.367  0.2813 -0.2085  0.2176
17748TIP3    H174735   0.682   2.851   0.289  0.8104  0.2420 -0.1148
17748TIP3    H274736   0.818   2.805   0.335  0.9227  1.0200  0.3458
17749TIP3   OH274737   4.191   0.052  13.775 -0.1648  0.0633 -0.5682
17749TIP3    H174738   4.240   0.021  13.698  0.0951 -3.0989  0.7089
17749TIP3    H274739   4.104   0.013  13.765 -0.4591  0.4952  0.2306
17750TIP3   OH274740   6.412   1.471  11.467  0.7093 -0.3622 -0.0834
17750TIP3    H174741   6.348   1.419  11.516  0.6657 -0.0158  0.2317
17750TIP3    H274742   6.365   1.496  11.388  0.0977  0.7333  0.6040
17751TIP3   OH274743   4.743   0.405  12.547  1.0729 -0.3912  0.1245
17751TIP3    H174744   4.683   0.340  12.510  0.4479 -0.0550  0.5412
17751TIP3    H274745   4.828   0.384  12.507  0.1514  0.9354 -2.8020
17752TIP3   OH274746   2.669   3.214  14.727  0.9139  0.4842 -0.3410
17752TIP3    H174747   2.665   3.309  14.725  0.0949  0.5258  1.2994
17752TIP3    H274748   2.578   3.186  14.713  0.7699  0.0467  1.2651
17753TIP3   OH274749   1.661   2.408  15.646  0.1487  0.2576 -0.5291
17753TIP3    H174750   1.650   2.378  15.736  0.0349  0.3466 -0.5127
17753TIP3    H274751   1.629   2.499  15.648  0.6527  0.4387 -0.5374
17754TIP3   OH274752   4.943   2.735   5.547 -0.2306 -0.3943  0.2385
17754TIP3    H174753   4.871   2.671   5.547  0.4887 -1.2400  0.8382
17754TIP3    H274754   4.900   2.820   5.558 -1.1316 -0.9007  0.7481
17755TIP3   OH274755   5.011   5.003   1.422  0.1820  0.0994  0.2597
17755TIP3    H174756   5.056   4.922   1.402  0.6218  0.3305  0.3057
17755TIP3    H274757   4.971   5.030   1.340 -1.2432 -0.9336  0.5579
17756TIP3   OH274758   1.463   4.158   4.884  0.0465  0.3425 -0.8727
17756TIP3    H174759   1.546   4.111   4.869  0.5162  0.8487  0.0498
17756TIP3    H274760   1.458   4.167   4.979 -1.6788 -0.7273 -0.8322
17757TIP3   OH274761   4.135   3.079  12.204  0.1236 -0.2438 -0.3214
17757TIP3    H174762   4.080   3.021  12.150  1.0385 -0.9509 -0.5236
17757TIP3    H274763   4.096   3.165  12.194 -1.9484 -0.9723  0.8425
17758TIP3   OH274764   5.946   2.049   1.683  0.1882  0.6384 -0.1079
17758TIP3    H174765   5.930   2.006   1.766  2.1173  0.3056  0.1530
17758TIP3    H274766   6.035   2.084   1.691 -0.1752  1.9777 -1.4483
17759TIP3   OH274767   6.393   4.251  16.893  0.0598 -1.0002 -0.3576
17759TIP3    H174768   6.361   4.189  16.958  0.9395 -0.4587  0.6229
17759TIP3    H274769   6.314   4.285  16.851 -0.4932 -1.6746  0.1264
17760TIP3   OH274770   0.623   4.359  11.673  0.2153  0.0070  0.2100
17760TIP3    H174771   0.592   4.434  11.724 -0.3019  0.0186 -0.1096
17760TIP3    H274772   0.609   4.283  11.730 -0.1963  0.0407  0.1589
17761TIP3   OH274773   6.527   4.446   3.286  0.4317 -0.0345 -0.4152
17761TIP3    H174774   6.580   4.397   3.224  1.3672  0.5186 -0.0741
17761TIP3    H274775   6.464   4.382   3.321 -0.9456 -0.0886 -2.7987
17762TIP3   OH274776   2.067   6.554  14.068 -0.5284 -0.6853  0.6628
17762TIP3    H174777   2.088   6.621  14.002  0.0625  0.2928  1.8138
17762TIP3    H274778   1.991   6.590  14.114 -0.2826 -0.8624  1.2047
17763TIP3   OH274779   2.628   6.324  13.561 -0.3619 -0.2864  0.1827
17763TIP3    H174780   2.700   6.357  13.507  0.3962 -1.0291  0.7175
17763TIP3    H274781   2.671   6.288  13.638 -1.3476 -0.3456  0.7147
17764TIP3   OH274782   6.437   3.790  10.957 -0.8273  0.6397  0.5300
17764TIP3    H174783   6.447   3.812  11.049  1.4803  2.3305 -0.0431
17764TIP3    H274784   6.343   3.771  10.947 -0.9259 -0.9510  3.4392
17765TIP3   OH274785   5.961   4.043   2.364 -0.1324  0.3863 -0.4311
17765TIP3    H174786   6.001   4.104   2.302  0.6548  0.2511 -0.0613
17765TIP3    H274787   6.032   4.017   2.421 -0.5842 -0.4686 -0.2491
17766TIP3   OH274788   3.175   6.234   4.633 -0.0674 -0.1478 -0.3409
17766TIP3    H174789   3.127   6.183   4.568  1.4566  0.8388 -2.3102
17766TIP3    H274790   3.107   6.272   4.688 -1.4286 -0.6063 -1.6426
17767TIP3   OH274791   5.686   0.741  11.537 -0.4364 -0.0399 -0.4936
17767TIP3    H174792   5.726   0.806  11.595  2.8349 -2.0231 -0.3030
17767TIP3    H274793   5.599   0.776  11.519 -0.4769  2.1928  3.0819
17768TIP3   OH274794   3.155   1.727  11.216 -0.2378 -0.0724 -0.4197
17768TIP3    H174795   3.199   1.749  11.134  2.0407 -0.3090  0.6695
17768TIP3    H274796   3.180   1.796  11.277  0.5988 -1.4674  0.8933
17769TIP3   OH274797   0.316   2.326   1.057  1.0819  0.0379  0.5219
17769TIP3    H174798   0.346   2.286   1.139  1.1163 -0.5514  0.2274
17769TIP3    H274799   0.293   2.252   1.001 -2.3284  0.4262  1.1870
17770TIP3   OH274800   0.254   1.094  10.644 -0.4299  0.0678  0.1745
17770TIP3    H174801   0.195   1.111  10.571 -0.0200 -1.3702 -0.5283
17770TIP3    H274802   0.326   1.156  10.633  0.2529 -0.9555 -1.3937
17771TIP3   OH274803   5.289   0.975  14.017  0.4653  0.5753  0.0227
17771TIP3    H174804   5.362   1.018  13.971  0.1973  0.0682 -0.9055
17771TIP3    H274805   5.259   0.908  13.956  0.5613 -0.6174  1.2452
17772TIP3   OH274806   2.659   3.490  17.113  0.0543 -0.1135 -0.4681
17772TIP3    H174807   2.587   3.500  17.175 -0.4336  0.3937 -1.1057
17772TIP3    H274808   2.685   3.580  17.092 -0.3740 -0.2589 -1.6665
17773TIP3   OH274809   6.054   5.316  12.533 -0.2332 -0.5011 -0.7521
17773TIP3    H174810   5.984   5.355  12.585  0.5140  0.8976 -0.7403
17773TIP3    H274811   6.121   5.384  12.528  1.3163 -1.9229 -0.4198
17774TIP3   OH274812   0.525   3.967  13.572  0.2054 -0.5187 -0.4270
17774TIP3    H174813   0.564   4.052  13.552 -0.6621  0.4012  1.5468
17774TIP3    H274814   0.431   3.984  13.578  0.1707 -1.1474  1.8645
17775TIP3   OH274815   0.142   0.349  12.530 -0.2233  0.5890  0.2186
17775TIP3    H174816   0.087   0.425  12.509  0.1801  0.4162 -1.6389
17775TIP3    H274817   0.223   0.388  12.563  0.5357  1.1186 -2.0437
17776TIP3   OH274818   5.737   0.241   3.609 -0.0886  0.6472  0.3978
17776TIP3    H174819   5.731   0.197   3.524 -0.8761  1.1615  0.1797
17776TIP3    H274820   5.743   0.170   3.672  0.3372  0.2555 -0.0719
17777TIP3   OH274821   0.030   5.916  12.423  0.1787 -0.5335  0.2374
17777TIP3    H174822   0.106   5.882  12.471 -1.4281 -1.4825  2.2922
17777TIP3    H274823  -0.007   5.839  12.380  0.3815 -0.0583 -0.8217
17778TIP3   OH274824   6.330   2.709  13.565  0.7939 -0.3787  0.0750
17778TIP3    H174825   6.315   2.624  13.523  2.9200 -0.3005 -1.0009
17778TIP3    H274826   6.327   2.772  13.493  0.1769  0.3526  0.7257
17779TIP3   OH274827   0.955   2.078   1.246  0.2560 -0.1720  0.2396
17779TIP3    H174828   0.934   1.986   1.263 -0.7558  0.1752  0.9643
17779TIP3    H274829   0.922   2.093   1.157 -1.3296 -0.0377  0.8103
17780TIP3   OH274830   0.189   3.030   5.094  0.1332  0.1584  0.1904
17780TIP3    H174831   0.100   3.063   5.089 -0.2648 -0.7699  0.7486
17780TIP3    H274832   0.187   2.948   5.044  0.8180  0.4082 -0.2620
17781TIP3   OH274833   2.890   0.102   3.821  0.1475 -0.1384 -0.4483
17781TIP3    H174834   2.856   0.076   3.736 -1.6880 -1.1355  0.5381
17781TIP3    H274835   2.813   0.105   3.878  1.3952 -0.0016  1.3066
17782TIP3   OH274836   0.224   5.134  13.423 -0.1483 -0.4280  0.2373
17782TIP3    H174837   0.236   5.047  13.383 -0.9097 -0.6708  0.5144
17782TIP3    H274838   0.274   5.130  13.504  0.6534 -0.2513 -0.2429
17783TIP3   OH274839   1.676   3.993  13.942  0.1183 -0.1036  0.1805
17783TIP3    H174840   1.766   3.961  13.937 -0.1781 -0.9094 -0.1562
17783TIP3    H274841   1.623   3.915  13.957 -0.6824  0.1226 -1.2677
17784TIP3   OH274842   4.589   1.428   0.591 -0.2512 -0.2026  0.2855
17784TIP3    H174843   4.672   1.412   0.636  0.3972 -0.2143 -0.8725
17784TIP3    H274844   4.557   1.510   0.629 -0.3203 -0.7950  1.5792
17785TIP3   OH274845   5.562   1.811   5.346 -1.0098  0.6625  0.5431
17785TIP3    H174846   5.596   1.748   5.409  0.3423 -2.9732 -3.3701
17785TIP3    H274847   5.637   1.867   5.324 -0.8439  0.4006  0.4485
17786TIP3   OH274848   5.360   2.495   5.163 -0.3932 -0.1958  0.0213
17786TIP3    H174849   5.306   2.545   5.102  0.1529 -1.3072 -1.4451
17786TIP3    H274850   5.308   2.491   5.243 -1.0480  1.4889 -0.2746
17787TIP3   OH274851   2.010   2.168  11.927 -0.1179  0.5490  0.0140
17787TIP3    H174852   2.037   2.241  11.983 -0.2646 -0.4182  1.4035
17787TIP3    H274853   1.976   2.103  11.988 -0.0433 -0.6625 -1.1978
17788TIP3   OH274854   3.123   4.636   4.416 -0.0631  0.1570  0.3260
17788TIP3    H174855   3.119   4.707   4.352  0.9811 -1.0558 -1.1715
17788TIP3    H274856   3.032   4.622   4.442 -0.5960  0.3267 -1.3391
17789TIP3   OH274857   0.903   4.295  11.700  0.4494 -0.0167  0.1324
17789TIP3    H174858   0.892   4.201  11.687  1.3206  0.0451 -1.2759
17789TIP3    H274859   0.813   4.329  11.702  0.1376 -0.5989 -1.8766
17790TIP3   OH274860   0.167   5.358   2.837 -0.0585  0.0436 -0.5011
17790TIP3    H174861   0.084   5.392   2.869  0.8140  1.3479  0.4920
17790TIP3    H274862   0.186   5.409   2.758 -0.5925 -0.8533 -1.2292
17791TIP3   OH274863   6.652   3.253  12.560 -0.0883 -0.4156 -0.1051
17791TIP3    H174864   6.681   3.162  12.557 -1.4766 -0.8625 -0.8756
17791TIP3    H274865   6.556   3.248  12.559 -0.1921  1.0516 -0.0213
17792TIP3   OH274866   6.001   0.065   6.604 -0.0510  0.0505  0.6526
17792TIP3    H174867   5.960   0.131   6.660 -0.6179  0.1940  0.0867
17792TIP3    H274868   5.973   0.088   6.515 -0.2065 -0.9145  0.4372
17793TIP3   OH274869   5.612   4.006   1.411 -0.4884 -0.4643 -0.4493
17793TIP3    H174870   5.682   4.070   1.417  1.3087 -2.2614 -1.2856
17793TIP3    H274871   5.539   4.054   1.370  0.5894  1.1615 -0.5454
17794TIP3   OH274872   1.521   5.811   0.329 -0.0433  0.2037 -0.0166
17794TIP3    H174873   1.462   5.751   0.283 -0.5049  0.2441  0.5079
17794TIP3    H274874   1.539   5.880   0.266 -0.4274  0.1039 -0.2388
17795TIP3   OH274875   5.365   1.357   5.855  0.7103  0.5079  0.8582
17795TIP3    H174876   5.297   1.329   5.917 -0.5101  0.7384 -0.3288
17795TIP3    H274877   5.405   1.275   5.825  0.4397  0.3214  0.9968
17796TIP3   OH274878   3.782   1.853  14.341 -0.4285  0.1406  0.3055
17796TIP3    H174879   3.804   1.769  14.302 -0.1530 -0.1803  1.1322
17796TIP3    H274880   3.847   1.865  14.410  2.2500  2.9852 -2.3865
17797TIP3   OH274881   1.258   2.265  11.317 -0.0691  0.1586 -0.5415
17797TIP3    H174882   1.183   2.209  11.339  0.3845 -0.7743 -1.3193
17797TIP3    H274883   1.234   2.306  11.234 -1.0670  2.3942  0.7458
17798TIP3   OH274884   2.845   4.126  15.369  0.1375  0.2446  0.3648
17798TIP3    H174885   2.885   4.204  15.330 -0.5763  0.9900  1.1029
17798TIP3    H274886   2.793   4.088  15.298  2.0318 -0.7254 -0.6143
17799TIP3   OH274887   0.026   2.791  12.657  0.0680 -0.0504 -0.4685
17799TIP3    H174888   0.000   2.729  12.589 -0.1590 -2.0375  1.3266
17799TIP3    H274889   0.098   2.749  12.702 -0.8219  0.4313  1.5281
17800TIP3   OH274890   1.144   0.298   1.333  0.2867 -0.0425 -0.7290
17800TIP3    H174891   1.123   0.391   1.327  1.1583  0.2793  0.8821
17800TIP3    H274892   1.064   0.254   1.303 -2.0515  1.1719  2.9891
17801TIP3   OH274893   5.582   6.315   0.837  0.1100 -0.1955 -0.0859
17801TIP3    H174894   5.616   6.343   0.752  0.8700  0.9169  0.5676
17801TIP3    H274895   5.655   6.269   0.878 -0.0110 -0.0635  0.2817
17802TIP3   OH274896   3.888   4.504  11.077 -0.1220  0.1828  0.0350
17802TIP3    H174897   3.800   4.502  11.040  0.2722  0.3206 -0.9549
17802TIP3    H274898   3.944   4.526  11.003  0.6372  1.1899  0.8801
17803TIP3   OH274899   4.966   2.191  16.585  0.3606 -0.4833 -0.0509
17803TIP3    H174900   5.021   2.139  16.526 -2.5806 -1.4584 -2.1556
17803TIP3    H274901   4.996   2.167  16.673  2.4247 -1.8656 -1.0429
17804TIP3   OH274902   1.102   6.113  16.952  0.2595  0.4324 -0.1292
17804TIP3    H174903   1.068   6.202  16.967 -0.5486  0.4305 -1.7292
17804TIP3    H274904   1.196   6.121  16.966  0.2723  1.6948 -0.7793
17805TIP3   OH274905   3.496   5.795  14.001  0.0796  0.1511 -0.1787
17805TIP3    H174906   3.484   5.884  14.035  2.5538  1.1143 -1.5862
17805TIP3    H274907   3.442   5.792  13.922  0.4010  0.5868 -0.4159
17806TIP3   OH274908   5.263   6.299   5.540  0.2302 -0.2026 -0.0331
17806TIP3    H174909   5.265   6.394   5.553 -0.1133 -0.1887 -0.0658
17806TIP3    H274910   5.203   6.287   5.467  0.0855 -0.4610  0.1277
17807TIP3   OH274911   4.622   5.152   1.806  0.6160 -0.3925  0.4207
17807TIP3    H174912   4.689   5.140   1.874 -0.2818  1.9488  1.8465
17807TIP3    H274913   4.563   5.077   1.818  0.1379  0.2565  2.7390
17808TIP3   OH274914   0.457   1.021   4.569 -0.3609 -0.7124 -0.3333
17808TIP3    H174915   0.375   1.038   4.617 -1.8308  4.3370 -3.8173
17808TIP3    H274916   0.429   0.970   4.493  0.0776 -0.4020 -0.6984
17809TIP3   OH274917   4.374   4.637  10.207  0.0124  0.3562  0.8137
17809TIP3    H174918   4.298   4.607  10.257  0.1322  0.7024  1.2079
17809TIP3    H274919   4.414   4.556  10.173 -0.8549  0.2113  0.1183
17810TIP3   OH274920   3.878   0.336   6.233  0.7281  0.4242  0.2319
17810TIP3    H174921   3.907   0.293   6.313  0.6131 -0.3560 -0.1423
17810TIP3    H274922   3.785   0.314   6.227  0.8144  0.2031 -0.2907
17811TIP3   OH274923   1.706   2.339   6.368  0.4153 -0.3773  0.0238
17811TIP3    H174924   1.650   2.268   6.399 -1.6076  1.1907  0.1220
17811TIP3    H274925   1.776   2.294   6.320 -0.6740 -2.4310  0.2238
17812TIP3   OH274926   1.206   4.618  12.248  0.1769  0.1667  0.4201
17812TIP3    H174927   1.138   4.588  12.308 -1.6809 -0.5994 -1.9056
17812TIP3    H274928   1.266   4.543  12.240 -0.7400 -0.5220 -0.2282
17813TIP3   OH274929   6.311   2.291  16.627 -0.1554 -0.0308 -0.4053
17813TIP3    H174930   6.257   2.345  16.684 -0.8143 -0.9257 -0.1580
17813TIP3    H274931   6.295   2.202  16.657  1.7411 -0.3081 -0.0749
17814TIP3   OH274932   0.759   2.852   5.573 -0.4291 -0.4361  0.3990
17814TIP3    H174933   0.778   2.857   5.479 -0.4463 -0.8624  0.3701
17814TIP3    H274934   0.831   2.899   5.615  1.2866 -2.8713  0.3486
17815TIP3   OH274935   6.415   5.947   3.971  0.1735 -0.2379  0.1871
17815TIP3    H174936   6.327   5.975   3.945 -0.5923 -2.3459  0.3220
17815TIP3    H274937   6.426   5.861   3.930  2.4202  0.2179 -0.2766
17816TIP3   OH274938   3.324   5.418   3.993  0.0262  0.0126  0.5330
17816TIP3    H174939   3.354   5.331   3.967  2.6263  0.9392  0.0762
17816TIP3    H274940   3.390   5.447   4.056 -0.6591  1.7290  0.5010
17817TIP3   OH274941   3.604   5.763   5.314 -0.4492 -0.2917 -0.1230
17817TIP3    H174942   3.618   5.819   5.238  0.9787 -1.3790 -0.6935
17817TIP3    H274943   3.689   5.724   5.332 -1.1304 -1.3217  1.0262
17818TIP3   OH274944   6.736   2.460  15.117  0.7833  0.2558 -0.2678
17818TIP3    H174945   6.819   2.434  15.077  1.7364 -1.2066  2.3531
17818TIP3    H274946   6.708   2.383  15.166 -0.1313  1.8493  1.9325
17819TIP3   OH274947   3.267   3.543   1.845 -0.0325 -0.0878 -0.6896
17819TIP3    H174948   3.227   3.507   1.924  1.1866 -0.3038 -0.1432
17819TIP3    H274949   3.213   3.511   1.773 -1.8527  1.0697  0.1171
17820TIP3   OH274950   2.415   1.199   4.209  0.3466  0.2440  0.5671
17820TIP3    H174951   2.336   1.176   4.259  0.4968 -0.3665  0.5374
17820TIP3    H274952   2.487   1.171   4.265  0.5223 -0.0859  0.1841
17821TIP3   OH274953   3.201   1.209  14.250  0.0447  0.0964  0.3769
17821TIP3    H174954   3.168   1.244  14.333 -0.3932  1.2421 -0.2585
17821TIP3    H274955   3.124   1.169  14.208  0.4394 -1.2383  0.8765
17822TIP3   OH274956   5.610   4.313   1.544 -0.3615 -0.0336 -0.4915
17822TIP3    H174957   5.663   4.337   1.469  0.0446 -0.8834 -0.4899
17822TIP3    H274958   5.606   4.392   1.598  0.4702  0.1828 -0.7417
17823TIP3   OH274959   4.596   0.496  11.417 -0.5584  0.1893 -0.1302
17823TIP3    H174960   4.560   0.416  11.455 -0.7923 -0.7797 -2.2349
17823TIP3    H274961   4.666   0.521  11.477 -0.1984 -1.8522  0.3924
17824TIP3   OH274962   5.317   5.813   6.482  0.0533 -0.1683 -0.0118
17824TIP3    H174963   5.250   5.835   6.547  0.7700 -1.1246  1.0712
17824TIP3    H274964   5.270   5.759   6.418 -0.0323 -1.7861  1.3249
17825TIP3   OH274965   1.162   1.668  11.942 -0.2516  0.5861 -0.5019
17825TIP3    H174966   1.196   1.720  12.014  1.0160 -2.5411  1.3464
17825TIP3    H274967   1.077   1.636  11.973  0.0798 -0.3815 -0.5711
17826TIP3   OH274968   0.217   1.854  10.213  0.6502 -0.2419 -0.5674
17826TIP3    H174969   0.271   1.787  10.257 -0.7181 -1.8701 -1.2627
17826TIP3    H274970   0.129   1.838  10.245  0.2168  0.9896 -1.0937
17827TIP3   OH274971   5.502   1.827  13.643 -0.1237 -0.3984 -0.3267
17827TIP3    H174972   5.529   1.783  13.723  1.1634 -0.2309 -0.6487
17827TIP3    H274973   5.467   1.911  13.673  2.4966  0.6953 -0.0045
17828TIP3   OH274974   2.777   0.692  16.140 -0.2871 -0.2449  0.9332
17828TIP3    H174975   2.682   0.683  16.148 -0.4696 -1.3013 -1.5027
17828TIP3    H274976   2.806   0.606  16.108  1.1006  0.8314 -0.9027
17829TIP3   OH274977   4.191   2.892  13.902 -0.6477 -0.0736  0.5465
17829TIP3    H174978   4.154   2.955  13.964 -0.1010  0.6300  0.1750
17829TIP3    H274979   4.165   2.925  13.816 -3.0697 -2.0915  0.3961
17830TIP3   OH274980   4.713   2.429  15.094 -0.0164 -0.6074  0.2292
17830TIP3    H174981   4.795   2.453  15.052 -1.1122  1.9636 -0.6247
17830TIP3    H274982   4.713   2.477  15.177 -0.8601 -0.1984  0.0001
17831TIP3   OH274983   6.300   5.611  14.376  0.3478 -0.4807  0.3421
17831TIP3    H174984   6.255   5.527  14.390  0.9912 -0.5615  2.1758
17831TIP3    H274985   6.380   5.604  14.427  0.7311  1.0122 -0.0169
17832TIP3   OH274986   3.740   6.507   5.504  0.6080 -0.0334  0.3670
17832TIP3    H174987   3.762   6.457   5.425 -0.4679 -0.0727  0.0811
17832TIP3    H274988   3.645   6.504   5.508  0.6616 -0.3163  1.8551
17833TIP3   OH274989   5.968   0.094   5.695 -0.1352 -0.0429  0.4762
17833TIP3    H174990   6.047   0.148   5.693  0.6395 -1.1399 -1.5077
17833TIP3    H274991   5.977   0.039   5.772  1.4589 -0.7000 -0.1440
17834TIP3   OH274992   2.555   5.690  13.325  0.1889  0.4937  0.5425
17834TIP3    H174993   2.532   5.675  13.234  1.2603 -0.4590  0.4065
17834TIP3    H274994   2.510   5.771  13.348  0.4131  1.1037 -1.0225
17835TIP3   OH274995   0.823   4.721   3.890 -0.5803 -0.4269  0.4396
17835TIP3    H174996   0.739   4.696   3.851  0.8928 -0.1168 -3.3970
17835TIP3    H274997   0.875   4.641   3.888  0.2036  0.0816 -0.2605
17836TIP3   OH274998   3.147   3.188   5.163 -0.1420  0.4201  0.5067
17836TIP3    H174999   3.127   3.261   5.104 -3.4331 -0.1134  0.7660
17836TIP3    H275000   3.160   3.229   5.248 -2.2259  0.7505  0.7052
17837TIP3   OH275001   5.849   4.839  15.557 -0.1466 -0.0750 -0.6523
17837TIP3    H175002   5.839   4.751  15.521 -2.5407  0.2387 -0.9278
17837TIP3    H275003   5.773   4.887  15.523  0.9260  2.0133 -0.2484
17838TIP3   OH275004   1.612   2.577  12.196  0.2211  0.1723  0.3824
17838TIP3    H175005   1.545   2.548  12.258 -1.2904 -0.3248 -1.3572
17838TIP3    H275006   1.694   2.575  12.245 -1.3795  4.8058  3.9960
17839TIP3   OH275007   6.833   0.590   1.311  0.4732 -0.1320  0.3025
17839TIP3    H175008   6.820   0.680   1.283 -1.3418  0.1771  1.9649
17839TIP3    H275009   6.745   0.553   1.315  1.1707 -1.9977 -0.2881
17840TIP3   OH275010   0.543   4.195   2.627  0.0354 -0.1945 -0.4662
17840TIP3    H175011   0.583   4.109   2.642 -0.4734 -0.1910  1.1157
17840TIP3    H275012   0.617   4.252   2.605  1.0840 -0.1212  2.6728
17841TIP3   OH275013   6.262   4.711  14.324  0.1195 -0.4094 -0.2285
17841TIP3    H175014   6.194   4.738  14.262 -0.9429 -1.3567  0.5032
17841TIP3    H275015   6.339   4.695  14.269  0.4806  2.8075 -0.8479
17842TIP3   OH275016   4.948   0.152  12.279  0.5804  0.3506 -0.6535
17842TIP3    H175017   5.015   0.219  12.286  0.0991  0.7795 -0.0354
17842TIP3    H275018   4.988   0.073  12.314  1.4402  0.0803 -2.1596
17843TIP3   OH275019   1.021   6.633   1.155 -0.0872  0.3264  0.4811
17843TIP3    H175020   0.973   6.551   1.164  1.1703 -0.3378  1.4422
17843TIP3    H275021   1.108   6.614   1.189  0.6682  1.6798 -0.5863
17844TIP3   OH275022   1.977   6.206  16.916 -0.2106 -0.8335 -0.2715
17844TIP3    H175023   2.022   6.275  16.963  0.7119  0.2235 -2.5549
17844TIP3    H275024   1.901   6.185  16.970  1.1896 -0.3137  2.0323
17845TIP3   OH275025   1.150   3.622   0.952  0.1087  0.1158  0.6578
17845TIP3    H175026   1.086   3.674   1.000  1.1366  0.6789  1.4654
17845TIP3    H275027   1.101   3.585   0.879 -1.2380  0.1426  1.5113
17846TIP3   OH275028   4.589   5.698  15.691  0.4046  0.1319  0.3440
17846TIP3    H175029   4.603   5.648  15.772  0.8352 -1.7356 -0.8382
17846TIP3    H275030   4.494   5.706  15.684  0.3550  0.0574  0.8692
17847TIP3   OH275031   4.646   4.763  16.056  0.1047  0.1286 -0.0443
17847TIP3    H175032   4.657   4.752  15.961  0.5714 -1.9731  0.1986
17847TIP3    H275033   4.552   4.777  16.068 -0.2483 -1.5040 -0.6880
17848TIP3   OH275034   2.415   2.114  12.497  0.1779 -0.0896  0.6537
17848TIP3    H175035   2.486   2.134  12.558 -1.0533  2.7720  1.3030
17848TIP3    H275036   2.458   2.108  12.411  1.3865  0.1081  1.2244
17849TIP3   OH275037   6.136   4.085   1.281  0.3463 -0.1900 -0.4988
17849TIP3    H175038   6.080   4.162   1.267 -0.1824 -0.3689  0.6027
17849TIP3    H275039   6.200   4.090   1.209 -0.5833  0.4510 -1.3207
17850TIP3   OH275040   4.752   3.049   0.420  0.0663 -0.4224  0.3811
17850TIP3    H175041   4.722   3.096   0.343 -0.2419  0.0577  0.7866
17850TIP3    H275042   4.846   3.042   0.409 -0.0586 -0.9906 -0.3836
17851TIP3   OH275043   0.704   2.586  14.443  0.0133  0.1347 -0.3978
17851TIP3    H175044   0.737   2.559  14.528 -0.7154  0.6545  0.0652
17851TIP3    H275045   0.636   2.521  14.422 -1.0931  1.0227  0.2893
17852TIP3   OH275046   0.993   2.121   2.695 -0.0135  0.1802  0.2184
17852TIP3    H175047   1.003   2.068   2.615  0.5364  0.1321  0.3189
17852TIP3    H275048   0.908   2.164   2.684 -0.1475 -0.1769 -0.1880
17853TIP3   OH275049   2.534   1.642  11.551 -0.5447 -0.3134  0.2249
17853TIP3    H175050   2.528   1.670  11.459  0.4004  1.7672  0.7296
17853TIP3    H275051   2.463   1.690  11.595  0.3296  0.3911  0.9130
17854TIP3   OH275052   3.319   2.837   0.348  0.0270  0.3980  0.1838
17854TIP3    H175053   3.305   2.916   0.400  1.0170  0.6906  0.0250
17854TIP3    H275054   3.232   2.798   0.340  0.0022 -0.5679  3.4687
17855TIP3   OH275055   0.447   6.643  16.725 -0.5260  0.5793  0.5479
17855TIP3    H175056   0.354   6.642  16.749 -0.6152 -0.3336  0.1731
17855TIP3    H275057   0.472   6.551  16.722  0.1642  0.7901 -0.2277
17856TIP3   OH275058   0.106   1.560   4.511 -0.6403  0.0658 -0.4204
17856TIP3    H175059   0.116   1.635   4.570 -0.3500  1.3065 -1.9743
17856TIP3    H275060   0.025   1.518   4.540 -1.3044  1.5116 -0.0456
17857TIP3   OH275061   5.423   5.109  14.479  0.0073  0.2808  0.2641
17857TIP3    H175062   5.484   5.049  14.435 -1.2028  0.0247 -1.1525
17857TIP3    H275063   5.388   5.059  14.552  0.8155  0.1122  0.5389
17858TIP3   OH275064   0.643   0.433  13.391 -1.0049 -0.2969  0.2704
17858TIP3    H175065   0.586   0.505  13.364 -0.0944  0.7858  1.1257
17858TIP3    H275066   0.619   0.416  13.482  1.3495  1.5648  1.3161
17859TIP3   OH275067   4.136   6.241   3.720 -0.1912 -0.4225 -0.2243
17859TIP3    H175068   4.081   6.167   3.743  0.4821 -0.8087  0.1583
17859TIP3    H275069   4.223   6.204   3.708  0.1051  0.2695 -0.2673
17860TIP3   OH275070   3.275   1.219   2.901 -0.0301 -0.7930  0.1639
17860TIP3    H175071   3.205   1.260   2.850  0.1849  0.1886  0.6330
17860TIP3    H275072   3.246   1.226   2.992  0.4645 -0.8076  0.3273
17861TIP3   OH275073   4.044   4.397   0.459 -0.3387 -0.4040 -0.1989
17861TIP3    H175074   4.138   4.412   0.465  0.0984 -2.4213 -1.2683
17861TIP3    H275075   4.005   4.481   0.482  1.7291  0.7694 -0.7459
17862TIP3   OH275076   5.229   3.632   6.067  0.2902  0.0860  0.6030
17862TIP3    H175077   5.318   3.652   6.097  0.2215  1.2755  0.0646
17862TIP3    H275078   5.172   3.658   6.139  0.1741  2.3461 -0.1990
17863TIP3   OH275079   6.839   2.672   2.389  0.5302  0.4434  0.0875
17863TIP3    H175080   6.837   2.577   2.382 -0.4508  0.5429 -1.4920
17863TIP3    H275081   6.932   2.695   2.385  0.6810 -0.3559 -1.3159
17864TIP3   OH275082   3.393   3.532  11.793  0.2070 -0.1175 -0.3241
17864TIP3    H175083   3.445   3.600  11.751  1.1566 -0.8165 -0.3217
17864TIP3    H275084   3.308   3.535  11.747  0.2341  1.0289 -0.3352
17865TIP3   OH275085   2.050   4.009  15.320  0.2058 -1.0122 -0.5385
17865TIP3    H175086   2.042   3.973  15.409 -2.7912  0.2741 -0.1426
17865TIP3    H275087   1.959   4.022  15.292  1.0887  0.7600 -2.8979
17866TIP3   OH275088   0.576   2.846  14.106  0.2552  0.2285  0.1395
17866TIP3    H175089   0.592   2.939  14.088  1.3186  0.2395  1.0011
17866TIP3    H275090   0.578   2.840  14.202  3.2447 -1.1116  0.1201
17867TIP3   OH275091   6.703   2.583   1.351  0.0573  0.0738 -0.3239
17867TIP3    H175092   6.764   2.656   1.342  0.1136 -0.0431 -0.9155
17867TIP3    H275093   6.700   2.544   1.264 -0.7302 -0.0293 -0.2511
17868TIP3   OH275094   5.945   4.466  10.303 -0.1647  0.4050 -0.1191
17868TIP3    H175095   5.873   4.414  10.268  0.4004 -0.3198 -0.2321
17868TIP3    H275096   5.937   4.457  10.398  0.2586 -0.3582 -0.1488
17869TIP3   OH275097   6.390   3.087  11.487  0.0798  0.3082 -0.1120
17869TIP3    H175098   6.300   3.072  11.518  0.6263 -0.8210  1.0041
17869TIP3    H275099   6.439   3.110  11.566  0.9427  0.1585 -0.5952
17870TIP3   OH275100   2.397   1.770   0.202  0.1458 -0.0264  0.1319
17870TIP3    H175101   2.361   1.824   0.131 -0.2892  0.6030  0.8082
17870TIP3    H275102   2.325   1.710   0.225  0.4082 -0.4692 -0.1889
17871TIP3   OH275103   2.746   2.604   5.002 -0.1467  0.1236 -0.2709
17871TIP3    H175104   2.783   2.620   5.089  0.4668  1.0161 -0.6893
17871TIP3    H275105   2.729   2.509   5.001  0.3200  0.0179  0.6237
17872TIP3   OH275106   0.510   6.309  14.446  0.2761 -0.2519  1.0111
17872TIP3    H175107   0.438   6.371  14.442  0.4959 -0.0395  0.2380
17872TIP3    H275108   0.589   6.362  14.435  0.3937 -0.8364 -1.7240
17873TIP3   OH275109   5.235   2.674   2.506  0.3703 -0.1872 -0.0479
17873TIP3    H175110   5.304   2.736   2.483  0.6226 -0.9675 -1.5052
17873TIP3    H275111   5.278   2.589   2.506 -0.2215 -0.5006  0.8055
17874TIP3   OH275112   1.192   3.865   1.254  0.0668  0.6917  0.1331
17874TIP3    H175113   1.147   3.903   1.329 -0.8312  1.6402 -0.8432
17874TIP3    H275114   1.180   3.771   1.262 -1.8708  0.9049  0.0553
17875TIP3   OH275115   5.878   3.368  14.190 -0.3016  0.4323  0.2952
17875TIP3    H175116   5.946   3.415  14.238  0.0741  1.7054 -1.3613
17875TIP3    H275117   5.819   3.437  14.159 -2.3686 -0.6298  1.6199
17876TIP3   OH275118   2.919   5.673   5.511 -0.3093 -0.5390 -0.9744
17876TIP3    H175119   2.869   5.741   5.466 -1.2813  0.8496  1.9721
17876TIP3    H275120   2.862   5.645   5.583  1.1695 -2.5752 -0.5136
17877TIP3   OH275121   5.189   4.336   4.518 -0.0645 -0.1218  0.1202
17877TIP3    H175122   5.272   4.307   4.479 -0.7525 -0.5072 -1.1437
17877TIP3    H275123   5.135   4.257   4.519  0.4252 -0.5198  3.4181
17878TIP3   OH275124   2.525   5.440   1.439 -0.3289  0.1493 -0.1176
17878TIP3    H175125   2.461   5.379   1.475  1.3397 -0.5689  1.8416
17878TIP3    H275126   2.498   5.525   1.473  0.2088 -0.2721  1.4198
17879TIP3   OH275127   1.544   4.490  12.246  0.8140 -0.0372 -0.2214
17879TIP3    H175128   1.502   4.554  12.303 -0.9339 -0.3724 -1.0640
17879TIP3    H275129   1.606   4.541  12.194 -1.2093  1.1965 -1.5332
17880TIP3   OH275130   0.945   1.969   4.828  0.2363  0.2989  0.0596
17880TIP3    H175131   0.916   1.878   4.821  0.3056  0.2433  0.4615
17880TIP3    H275132   0.995   1.984   4.747 -0.2652  0.1641 -0.2780
17881TIP3   OH275133   0.043   2.122  14.981 -0.4958  0.1995  0.1630
17881TIP3    H175134   0.072   2.187  15.045  2.2954 -0.6764 -0.0506
17881TIP3    H275135   0.046   2.038  15.028  0.6767 -0.3324 -0.7877
17882TIP3   OH275136   1.623   2.629  12.550 -0.4123 -0.6367 -0.0127
17882TIP3    H175137   1.691   2.628  12.482 -0.4242 -1.5573 -0.0201
17882TIP3    H275138   1.616   2.721  12.575  1.1785 -0.5848  0.3389
17883TIP3   OH275139   0.507   4.715  15.858 -0.0742 -0.4499  1.3200
17883TIP3    H175140   0.419   4.681  15.839 -0.8379  2.0125  0.0549
17883TIP3    H275141   0.554   4.708  15.774  1.0116 -1.7973  2.0004
17884TIP3   OH275142   6.473   3.874  16.419  0.1702  0.5468  0.1425
17884TIP3    H175143   6.503   3.802  16.364 -3.0111 -0.9954  0.2201
17884TIP3    H275144   6.412   3.923  16.364  0.2729  1.6009  0.9418
17885TIP3   OH275145   6.721   4.458  15.134  0.6477  0.4837  0.5106
17885TIP3    H175146   6.646   4.444  15.076  1.1199 -1.2399  0.2672
17885TIP3    H275147   6.773   4.525  15.090  1.0577 -0.8686 -1.1614
17886TIP3   OH275148   4.813   1.319  15.882  0.2219  0.2119  0.1548
17886TIP3    H175149   4.864   1.262  15.824  0.9170  0.9470  0.0168
17886TIP3    H275150   4.775   1.260  15.947  2.2120 -0.2619  0.9673
17887TIP3   OH275151   2.689   2.961  15.050 -0.0834  0.0080 -0.1110
17887TIP3    H175152   2.771   2.961  15.000  0.5096 -0.4067  0.8368
17887TIP3    H275153   2.714   2.992  15.137 -1.2849  1.7643 -0.3233
17888TIP3   OH275154   2.775   6.025  16.942 -0.0192  0.0245  0.0417
17888TIP3    H175155   2.823   6.040  17.023  0.4895 -2.1385  0.1840
17888TIP3    H275156   2.836   6.051  16.873  0.1098  0.4170  0.2976
17889TIP3   OH275157   2.033   0.578   2.413  0.5861  0.1258  0.4749
17889TIP3    H175158   2.041   0.645   2.480  1.5847 -0.6467  1.1716
17889TIP3    H275159   2.042   0.495   2.460 -1.1852 -0.5539 -0.2757
17890TIP3   OH275160   1.728   6.719  12.242  0.0580 -0.2313  0.0420
17890TIP3    H175161   1.815   6.758  12.254  0.3581 -0.7434 -0.4759
17890TIP3    H275162   1.668   6.787  12.273  0.6900 -0.4512  1.8673
17891TIP3   OH275163   6.230   0.848   3.926 -0.3562 -0.7620  0.0396
17891TIP3    H175164   6.299   0.912   3.910 -0.5778 -0.3530  0.6678
17891TIP3    H275165   6.276   0.769   3.952 -0.0893 -0.7774 -0.4727
17892TIP3   OH275166   6.832   5.092  12.298  0.0599  0.1687 -0.2135
17892TIP3    H175167   6.749   5.126  12.332 -1.6829 -1.1564 -2.7670
17892TIP3    H275168   6.844   5.008  12.342 -0.2304  0.1350 -0.1972
17893TIP3   OH275169   5.975   3.374  13.161  0.4953  0.3398  0.0559
17893TIP3    H175170   5.955   3.296  13.213 -0.6209  1.1177  0.8561
17893TIP3    H275171   5.900   3.432  13.177  0.5601  0.9627 -1.7379
17894TIP3   OH275172   1.090   0.911   6.562  0.0002  0.3002 -0.9880
17894TIP3    H175173   1.061   0.997   6.592 -0.3414  0.4325 -1.6954
17894TIP3    H275174   1.043   0.849   6.617  0.3552  0.5589 -0.3768
17895TIP3   OH275175   5.800   1.603   4.332  0.1758 -0.0729 -0.1168
17895TIP3    H175176   5.840   1.633   4.250  0.9917 -1.8695 -0.4133
17895TIP3    H275177   5.715   1.646   4.335 -0.4614 -1.0356 -2.6042
17896TIP3   OH275178   6.657   3.719   1.129  0.1028  0.7476  0.3335
17896TIP3    H175179   6.660   3.813   1.114 -0.4260  0.5734 -1.0084
17896TIP3    H275180   6.678   3.680   1.044 -1.8399 -0.3405  0.2981
17897TIP3   OH275181   4.192   2.447   4.820 -0.2171  0.1238 -0.4628
17897TIP3    H175182   4.160   2.391   4.750 -3.1372  2.9924 -1.6746
17897TIP3    H275183   4.156   2.408   4.900  2.9688 -3.0467 -0.3321
17898TIP3   OH275184   1.039   1.758  14.255 -0.2495  0.2645  0.3896
17898TIP3    H175185   1.124   1.741  14.296  1.0921  0.9337 -1.9574
17898TIP3    H275186   1.016   1.846  14.283  1.9424  1.7869 -2.1753
17899TIP3   OH275187   0.684   1.088   2.481  0.2522  0.0158  0.1048
17899TIP3    H175188   0.596   1.122   2.463  0.0431  0.4599  1.8684
17899TIP3    H275189   0.713   1.054   2.396 -2.0650 -1.1959 -0.2878
17900TIP3   OH275190   6.724   0.728   0.973  0.4376 -0.2831 -0.4053
17900TIP3    H175191   6.646   0.689   0.932  2.1212 -1.9103 -2.3044
17900TIP3    H275192   6.757   0.789   0.908  0.1157  1.3697  0.9099
17901TIP3   OH275193   3.899   2.139  17.122 -0.4084 -0.3479 -0.6334
17901TIP3    H175194   3.811   2.165  17.147 -0.4868 -2.2892  1.3432
17901TIP3    H275195   3.895   2.131  17.026 -2.6749 -1.3261 -0.5221
17902TIP3   OH275196   0.901   5.160   1.076 -0.0591  0.9208 -0.7641
17902TIP3    H175197   0.892   5.232   1.138  1.3446 -0.1818  0.8247
17902TIP3    H275198   0.820   5.162   1.025 -1.7510  1.3360  1.7216
17903TIP3   OH275199   0.090   1.887   5.553 -0.4473  0.3699  0.1682
17903TIP3    H175200   0.123   1.815   5.607  0.3720  1.0597  0.6158
17903TIP3    H275201   0.039   1.844   5.484  0.4771 -0.6771  0.1028
17904TIP3   OH275202   4.302   3.177   2.865  0.2350 -0.2578  0.1706
17904TIP3    H175203   4.290   3.227   2.784  1.5878 -0.7981 -0.3917
17904TIP3    H275204   4.247   3.099   2.854 -1.2613  0.6729  0.7150
17905TIP3   OH275205   4.390   6.077  13.840 -0.4503 -0.2318 -0.0911
17905TIP3    H175206   4.381   6.135  13.915  0.9718 -0.0852 -0.0082
17905TIP3    H275207   4.457   6.118  13.786 -0.7603 -0.8414 -0.9651
17906TIP3   OH275208   6.441   4.691  12.858  0.1077 -0.6550 -0.4280
17906TIP3    H175209   6.488   4.615  12.824 -0.9163 -1.5461  0.0897
17906TIP3    H275210   6.507   4.740  12.908  0.4507 -2.0323  0.5304
17907TIP3   OH275211   4.982   6.306   4.139  0.0061 -1.0329  0.2415
17907TIP3    H175212   4.889   6.326   4.137  0.3853  1.1137  0.9072
17907TIP3    H275213   4.988   6.212   4.121 -2.1075 -0.8103 -1.9728
17908TIP3   OH275214   6.185   0.084   1.939  0.3156  0.1743 -0.2043
17908TIP3    H175215   6.277   0.112   1.943  0.3093  0.0826  1.0558
17908TIP3    H275216   6.141   0.136   2.006  0.3992 -3.0095  2.5864
17909TIP3   OH275217   4.317   2.702  12.624  0.0809 -0.2403  0.0794
17909TIP3    H175218   4.305   2.612  12.653 -0.2319  0.0282  0.8434
17909TIP3    H275219   4.244   2.718  12.564 -1.2207  0.1799  1.6944
17910TIP3   OH275220   6.665   5.865  12.011  0.4606  0.1372 -0.4617
17910TIP3    H175221   6.716   5.786  12.028  0.4442  0.1922 -0.1391
17910TIP3    H275222   6.586   5.834  11.968  0.1166 -0.1050  0.3319
17911TIP3   OH275223   2.671   4.565   0.632  0.3214  0.2549  1.0058
17911TIP3    H175224   2.648   4.500   0.566  0.8956  0.4603  0.5988
17911TIP3    H275225   2.588   4.587   0.674 -0.1407  0.5438 -0.0276
17912TIP3   OH275226   4.841   5.120   1.601  0.0274 -0.0922  0.6250
17912TIP3    H175227   4.903   5.185   1.636 -0.1088  0.2166  0.2988
17912TIP3    H275228   4.894   5.063   1.546  0.0292  0.1669  0.3528
17913TIP3   OH275229   0.197   1.854   2.189 -0.1652 -0.5183 -0.2804
17913TIP3    H175230   0.248   1.927   2.222  1.1651 -1.4237 -0.2564
17913TIP3    H275231   0.110   1.891   2.172  0.6901  1.2516 -1.0383
17914TIP3   OH275232   0.737   2.530  10.479  0.0005 -0.3340 -0.5380
17914TIP3    H175233   0.691   2.446  10.473  1.0457 -0.9221 -0.7044
17914TIP3    H275234   0.707   2.580  10.403 -1.0436 -0.3376 -0.1346
17915TIP3   OH275235   3.424   4.065  14.217  0.3246  0.2936  0.2271
17915TIP3    H175236   3.467   4.150  14.207 -0.9882  0.8468 -0.9982
17915TIP3    H275237   3.337   4.085  14.250 -0.3685 -0.4663 -1.0439
17916TIP3   OH275238   2.721   2.377   6.136 -0.3546  0.2833  0.4032
17916TIP3    H175239   2.718   2.282   6.139 -0.5846  0.2953  0.5935
17916TIP3    H275240   2.751   2.398   6.047 -0.4615  0.0371  0.3083
17917TIP3   OH275241   0.349   6.336  12.614  0.1572  0.0739 -0.8166
17917TIP3    H175242   0.272   6.362  12.666 -0.1259 -1.5082 -0.3665
17917TIP3    H275243   0.380   6.417  12.575  0.3927  1.3768  1.8438
17918TIP3   OH275244   5.441   1.170   1.984 -0.0608 -0.5415 -0.8568
17918TIP3    H175245   5.377   1.164   2.054 -0.8660 -1.5089 -1.6426
17918TIP3    H275246   5.427   1.257   1.946 -0.5275 -0.5329 -0.6680
17919TIP3   OH275247   2.030   4.645  11.267  0.4147 -0.3815 -0.1384
17919TIP3    H175248   1.958   4.704  11.285 -0.4663 -1.8481  1.4444
17919TIP3    H275249   2.022   4.576  11.333  2.4792 -1.2948 -0.7472
17920TIP3   OH275250   1.785   3.335  13.328  0.2265  0.2143 -0.2086
17920TIP3    H175251   1.760   3.422  13.359 -0.0647  0.2671 -0.5830
17920TIP3    H275252   1.734   3.323  13.248 -0.5169 -0.7318  0.3961
17921TIP3   OH275253   4.376   1.121   5.544  0.0661  0.4047  0.2164
17921TIP3    H175254   4.382   1.054   5.612 -0.6378 -0.9327 -0.9917
17921TIP3    H275255   4.455   1.108   5.491 -0.0877  0.5071 -0.0375
17922TIP3   OH275256   4.361   4.689  14.277 -0.1144  0.2463  0.0359
17922TIP3    H175257   4.360   4.734  14.362  1.4550 -0.7042  0.6065
17922TIP3    H275258   4.272   4.658  14.265 -0.8121  1.9650  0.4557
17923TIP3   OH275259   3.094   2.194  12.357  0.3789 -0.7962  0.0853
17923TIP3    H175260   3.059   2.129  12.296 -1.4736 -0.9056  1.1592
17923TIP3    H275261   3.128   2.142  12.430  0.6257 -0.6210  0.0950
17924TIP3   OH275262   3.826   3.531   3.368  0.5785 -0.2802  0.0103
17924TIP3    H175263   3.731   3.540   3.357  0.6263 -1.3038 -1.8009
17924TIP3    H275264   3.845   3.573   3.451 -1.3730  0.5462  0.0972
17925TIP3   OH275265   3.379   0.151  16.669 -0.2643  0.1233 -0.2048
17925TIP3    H175266   3.342   0.239  16.674 -2.6524 -0.8182  0.0356
17925TIP3    H275267   3.377   0.118  16.759 -0.9658 -0.7407 -0.5146
17926TIP3   OH275268   0.181   5.748   3.034  0.2482  0.3231  0.4254
17926TIP3    H175269   0.172   5.742   3.129  0.5278 -2.8345  0.3749
17926TIP3    H275270   0.268   5.783   3.019  0.8171 -0.6133  1.4037
17927TIP3   OH275271   0.173   1.191  13.347 -0.0764 -0.1587  0.1048
17927TIP3    H175272   0.252   1.178  13.294  0.8417  2.3330  0.7461
17927TIP3    H275273   0.121   1.112  13.332  1.0764 -0.4685 -2.8309
17928TIP3   OH275274   1.222   6.264   3.261  0.1361 -0.0984 -0.3812
17928TIP3    H175275   1.286   6.257   3.190 -0.1050 -1.6855 -0.4726
17928TIP3    H275276   1.231   6.182   3.309 -0.1812  0.6720  1.0308
17929TIP3   OH275277   6.607   4.915  13.312  0.1596 -0.2131 -0.3382
17929TIP3    H175278   6.517   4.948  13.310  0.2222 -0.0112 -2.7413
17929TIP3    H275279   6.660   4.992  13.331 -0.1037 -0.0748 -0.1654
17930TIP3   OH275280   4.653   6.650  12.162 -0.3994  0.0409  0.2985
17930TIP3    H175281   4.583   6.605  12.115 -0.3847  0.3178  0.0073
17930TIP3    H275282   4.681   6.720  12.103 -1.0720  1.0335  1.1229
17931TIP3   OH275283   4.332   5.841  14.485 -0.0062  0.2518  0.5105
17931TIP3    H175284   4.400   5.865  14.548 -0.5107 -0.7501  1.4531
17931TIP3    H275285   4.282   5.922  14.472  0.8527  0.7874  0.4308
17932TIP3   OH275286   0.174   1.290   5.766 -0.5132  0.1041 -0.9292
17932TIP3    H175287   0.139   1.373   5.800 -0.0506 -0.0837  0.0425
17932TIP3    H275288   0.268   1.296   5.780 -0.6801 -1.7810  2.0526
17933TIP3   OH275289   3.072   3.815   4.555 -0.2352 -0.4219  0.1472
17933TIP3    H175290   2.980   3.806   4.532 -0.0036 -0.9228 -0.6148
17933TIP3    H275291   3.106   3.881   4.495 -0.1757  0.0338  0.6725
17934TIP3   OH275292   1.118   6.175  12.457 -0.6677 -0.0825 -0.8325
17934TIP3    H175293   1.134   6.168  12.363  0.0686  0.7854 -0.7920
17934TIP3    H275294   1.205   6.168  12.497 -0.7918  0.9726 -0.3262
17935TIP3   OH275295   6.495   4.797   3.742  0.4112 -0.0885  0.0088
17935TIP3    H175296   6.482   4.741   3.665 -0.2078 -0.9191  0.7062
17935TIP3    H275297   6.583   4.834   3.729  0.3845 -0.3391 -1.0129
17936TIP3   OH275298   2.407   2.721   1.635  0.1306 -0.0962 -0.5698
17936TIP3    H175299   2.480   2.779   1.654  0.4160 -0.4790 -0.4879
17936TIP3    H275300   2.334   2.780   1.615  0.2478  0.3035  0.1299
17937TIP3   OH275301   2.336   3.363   6.645 -0.2288 -0.0142 -0.1791
17937TIP3    H175302   2.252   3.407   6.635 -0.1850 -0.0602 -0.7884
17937TIP3    H275303   2.365   3.385   6.734 -0.3602  0.9233 -0.3643
17938TIP3   OH275304   1.210   3.798  13.324  0.0008 -0.2170  0.1220
17938TIP3    H175305   1.176   3.767  13.408  0.2710  0.4246  0.4787
17938TIP3    H275306   1.165   3.744  13.259  0.0186 -0.9327  0.6860
17939TIP3   OH275307   3.577   1.332  13.810  0.2780 -0.7362 -0.3422
17939TIP3    H175308   3.524   1.407  13.786  1.8022  0.9327  1.1947
17939TIP3    H275309   3.658   1.342  13.760  0.6967 -1.0426  0.2521
17940TIP3   OH275310   3.691   2.751  11.895  0.1764 -0.2828 -0.3268
17940TIP3    H175311   3.696   2.748  11.991  2.1316  0.3417 -0.3663
17940TIP3    H275312   3.598   2.735  11.875 -0.6917  1.6680  1.7507
17941TIP3   OH275313   0.130   4.015   2.045 -0.1919 -0.3317 -0.1016
17941TIP3    H175314   0.160   4.092   1.997 -0.6125 -0.3732 -0.4400
17941TIP3    H275315   0.117   3.948   1.977  0.3875 -0.7744  0.2114
17942TIP3   OH275316   4.266   5.652   0.759 -0.7580 -0.2688 -0.1189
17942TIP3    H175317   4.258   5.741   0.793  0.3342 -0.4957  0.7957
17942TIP3    H275318   4.316   5.662   0.678 -1.4362  0.0324 -0.5129
17943TIP3   OH275319   1.173   1.752   5.408 -0.7055 -0.2776 -0.1896
17943TIP3    H175320   1.091   1.745   5.358 -1.5072  1.0106  0.8657
17943TIP3    H275321   1.146   1.787   5.493  1.0605  1.2971 -0.2064
17944TIP3   OH275322   1.740   3.964   3.026  0.1110  0.1385 -0.0816
17944TIP3    H175323   1.825   3.942   3.064 -0.5942 -0.1188  1.4394
17944TIP3    H275324   1.753   4.049   2.986  0.9378  0.3877  0.6801
17945TIP3   OH275325   3.521   0.958   4.959 -0.1600 -0.3474 -0.3852
17945TIP3    H175326   3.593   0.988   5.015 -0.6803  2.2996 -0.9954
17945TIP3    H275327   3.442   0.973   5.012 -0.6272  1.8819 -1.5621
17946TIP3   OH275328   3.587   1.415   0.155  0.2712 -0.1767 -0.2451
17946TIP3    H175329   3.586   1.490   0.214 -0.9765  0.3293 -0.8770
17946TIP3    H275330   3.669   1.425   0.106  0.4397  0.3927  0.1446
17947TIP3   OH275331   2.193   4.293   5.835  0.7290  0.4126 -0.0334
17947TIP3    H175332   2.271   4.238   5.844 -0.0200 -0.5627  0.6903
17947TIP3    H275333   2.143   4.276   5.914  0.1644  1.6596 -0.1072
17948TIP3   OH275334   5.365   1.606   5.760 -0.2508 -0.2017 -0.1676
17948TIP3    H175335   5.347   1.611   5.667 -1.7882  1.2281  0.1578
17948TIP3    H275336   5.348   1.515   5.784  0.0623 -0.5506 -1.2571
17949TIP3   OH275337   2.800   0.244  16.639  0.1197 -0.8954  0.0469
17949TIP3    H175338   2.867   0.275  16.578 -0.8847  2.7073  0.5075
17949TIP3    H275339   2.717   0.266  16.596 -0.6725 -1.7144  1.1209
17950TIP3   OH275340   5.263   4.624  10.884 -0.2801  0.0599 -0.3580
17950TIP3    H175341   5.312   4.703  10.860  1.0363 -0.5566  0.2523
17950TIP3    H275342   5.330   4.559  10.906 -1.3646 -0.7404  0.7186
17951TIP3   OH275343   2.893   2.344  13.093  0.1682 -0.0229 -0.3186
17951TIP3    H175344   2.940   2.380  13.017 -1.5995  0.4357 -1.2667
17951TIP3    H275345   2.888   2.250  13.076  2.6591 -0.4633  0.9432
17952TIP3   OH275346   3.331   6.486   1.288 -0.6936 -0.2252 -0.8261
17952TIP3    H175347   3.358   6.554   1.226  0.2368  0.5940  0.4169
17952TIP3    H275348   3.335   6.529   1.374 -0.1713 -1.8099 -0.0079
17953TIP3   OH275349   5.450   4.617  11.494 -0.6224  0.2852  0.0203
17953TIP3    H175350   5.421   4.527  11.482 -1.2426  0.7204 -2.1087
17953TIP3    H275351   5.417   4.663  11.417  0.4553  2.1415  0.6214
17954TIP3   OH275352   6.677   2.063  11.552 -0.2332 -0.5093  0.5148
17954TIP3    H175353   6.686   1.994  11.485 -0.3316  0.8514 -0.9593
17954TIP3    H275354   6.597   2.109  11.528  0.3655  0.7448  0.8758
17955TIP3   OH275355   0.548   3.322  15.197 -0.3273  0.1123  0.4979
17955TIP3    H175356   0.551   3.229  15.217 -0.2759  0.3843  1.8474
17955TIP3    H275357   0.499   3.361  15.269 -0.7462  1.0817 -0.2789
17956TIP3   OH275358   0.763   3.654   4.691  0.5393  0.0220  0.3154
17956TIP3    H175359   0.848   3.627   4.728  0.2549 -1.7176 -0.2004
17956TIP3    H275360   0.761   3.613   4.605 -0.5147  0.6937  0.0072
17957TIP3   OH275361   1.910   5.777   1.513  0.0070  0.3781 -0.5730
17957TIP3    H175362   1.836   5.793   1.573  0.5727  1.9805 -0.2507
17957TIP3    H275363   1.870   5.778   1.426 -0.5467 -0.1015 -0.3314
17958TIP3   OH275364   6.040   2.670   2.743 -0.5498  0.2004  0.1372
17958TIP3    H175365   6.093   2.736   2.699 -0.2261  0.6142  1.1142
17958TIP3    H275366   6.104   2.610   2.782 -0.8350 -0.3325 -0.2050
17959TIP3   OH275367   4.268   4.938  14.041 -0.2021  0.2337 -0.2548
17959TIP3    H175368   4.192   4.994  14.030 -0.1471  0.9559  2.3514
17959TIP3    H275369   4.234   4.857  14.080  0.2075  0.0792 -0.2021
17960TIP3   OH275370   1.068   1.342   0.390  0.0567 -0.2955  0.0720
17960TIP3    H175371   1.121   1.323   0.468  3.0007  0.3042 -1.6645
17960TIP3    H275372   0.998   1.399   0.423  1.0277 -0.2893  2.3196
17961TIP3   OH275373   4.915   6.711  13.963  0.3145  0.4447  0.2132
17961TIP3    H175374   5.009   6.696  13.960  0.5765  2.0371 -0.0876
17961TIP3    H275375   4.877   6.626  13.942  1.6862  0.0339 -0.7426
17962TIP3   OH275376   4.278   5.217   5.634 -0.0850 -0.3228 -0.1353
17962TIP3    H175377   4.364   5.204   5.593 -0.5235 -1.3323 -0.7736
17962TIP3    H275378   4.219   5.162   5.583 -1.4476  1.6236 -0.7749
17963TIP3   OH275379   5.353   4.425   2.980  0.1966 -0.1217 -0.2281
17963TIP3    H175380   5.434   4.381   3.005  0.2362  0.3314  0.4798
17963TIP3    H275381   5.375   4.518   2.977 -0.7577  0.2700  2.1799
17964TIP3   OH275382   0.760   2.650  14.014 -0.0052 -0.2635  0.4207
17964TIP3    H175383   0.699   2.717  14.046 -2.5452 -2.2737  0.1740
17964TIP3    H275384   0.720   2.567  14.041  1.4211 -1.7971 -1.8478
17965TIP3   OH275385   4.619   2.485  13.754  0.2079 -0.5817  0.0541
17965TIP3    H175386   4.602   2.445  13.669 -0.8554  0.6922 -0.3826
17965TIP3    H275387   4.535   2.480  13.800  0.0212  1.1139 -0.0385
17966TIP3   OH275388   1.637   0.388   4.931 -0.2108  0.0945 -0.0431
17966TIP3    H175389   1.566   0.449   4.914  0.4048  0.7123 -0.4705
17966TIP3    H275390   1.600   0.302   4.916 -0.7404  0.4343 -0.7097
17967TIP3   OH275391   1.680   4.931  14.939  0.2004 -0.2148 -0.0968
17967TIP3    H175392   1.586   4.933  14.957  0.3682  2.0384  0.8197
17967TIP3    H275393   1.686   4.918  14.844 -0.9059 -3.5629  0.1791
17968TIP3   OH275394   0.340   6.210   3.529  0.0817  0.3915  0.2915
17968TIP3    H175395   0.311   6.248   3.612 -0.0432 -0.7647  0.8025
17968TIP3    H275396   0.393   6.135   3.555  1.6233  1.1012 -0.6561
17969TIP3   OH275397   0.869   5.087   3.641  0.1748 -0.3656  0.0241
17969TIP3    H175398   0.947   5.123   3.598 -1.5961  1.9140 -1.5705
17969TIP3    H275399   0.841   5.015   3.585  0.0490  0.1274 -0.5657
17970TIP3   OH275400   5.109   4.055   2.935  0.0920  0.2166  0.1572
17970TIP3    H175401   5.070   4.085   2.852  0.9762 -0.1829 -0.4165
17970TIP3    H275402   5.195   4.022   2.910  0.4848  0.3582  1.2913
17971TIP3   OH275403   1.377   6.623   3.071  0.2419  0.5996  0.0688
17971TIP3    H175404   1.426   6.682   3.129  1.0448  0.3596 -0.3520
17971TIP3    H275405   1.286   6.631   3.101  0.2575  2.3561 -0.2206
17972TIP3   OH275406   4.628   3.310  11.002  0.4028  0.6964  0.4767
17972TIP3    H175407   4.554   3.332  10.944  1.4328  2.9163 -0.1060
17972TIP3    H275408   4.662   3.228  10.968 -0.8780  0.4128 -0.1765
17973TIP3   OH275409   6.660   2.808  14.309  0.9271  0.0872 -0.3179
17973TIP3    H175410   6.647   2.900  14.335 -2.2130 -0.3410  0.0252
17973TIP3    H275411   6.654   2.760  14.391  0.1333 -0.5902 -0.7658
17974TIP3   OH275412   6.558   5.146  12.424 -0.1201 -0.1204 -1.0031
17974TIP3    H175413   6.523   5.182  12.342 -0.7122  0.5030 -0.4799
17974TIP3    H275414   6.503   5.070  12.442  0.2713 -0.5011 -1.3957
17975TIP3   OH275415   4.715   0.897   1.462 -0.8135  0.1437  0.1512
17975TIP3    H175416   4.646   0.938   1.410 -0.4506  1.2924  0.5470
17975TIP3    H275417   4.796   0.937   1.430 -0.1768 -1.9395 -1.0368
17976TIP3   OH275418   3.161   2.224   1.879  0.3756  0.1931 -0.1136
17976TIP3    H175419   3.226   2.155   1.863  0.8077  0.3896  0.7455
17976TIP3    H275420   3.077   2.181   1.865  0.6745  0.2558 -2.5690
17977TIP3   OH275421   4.320   0.954  11.349 -0.1496  0.2197 -0.1544
17977TIP3    H175422   4.413   0.949  11.371  0.2925  2.6071 -1.1420
17977TIP3    H275423   4.293   1.042  11.376 -2.0252 -0.2693 -0.2565
17978TIP3   OH275424   1.975   0.897   3.713  0.0096  0.1075  0.2480
17978TIP3    H175425   1.884   0.924   3.702  0.2982  0.7256 -0.7559
17978TIP3    H275426   1.994   0.912   3.805 -0.9456 -0.1644  0.4961
17979TIP3   OH275427   3.187   1.641   3.990  0.1312 -0.3470 -0.3075
17979TIP3    H175428   3.159   1.563   4.038  4.1860 -1.1025  1.2686
17979TIP3    H275429   3.195   1.611   3.899 -0.4021 -1.1537 -0.0958
17980TIP3   OH275430   0.119   3.409  11.025 -0.2015 -0.0651  0.1529
17980TIP3    H175431   0.109   3.504  11.032  0.8993 -0.0181  1.5075
17980TIP3    H275432   0.066   3.385  10.949 -1.5041  1.4646  0.5235
17981TIP3   OH275433   2.497   0.484  15.512 -0.6351  0.2297  0.8630
17981TIP3    H175434   2.504   0.567  15.560  0.4860  1.3092 -1.0522
17981TIP3    H275435   2.455   0.507  15.430  0.3278 -0.9631 -0.0018
17982TIP3   OH275436   4.103   6.646  12.900  0.4339  0.2947 -0.2961
17982TIP3    H175437   4.174   6.643  12.837  1.2889 -1.5966  0.6881
17982TIP3    H275438   4.138   6.695  12.974 -0.1460  1.4298 -0.7429
17983TIP3   OH275439   3.828   1.841  16.317  0.2735 -0.4939 -0.1803
17983TIP3    H175440   3.796   1.751  16.317  1.8277 -1.2351  3.3251
17983TIP3    H275441   3.915   1.836  16.277  0.2782 -0.5023 -0.1685
17984TIP3   OH275442   6.457   3.623   2.576 -0.4378 -0.1680  0.0950
17984TIP3    H175443   6.420   3.566   2.509 -0.4768  0.9820 -0.8863
17984TIP3    H275444   6.381   3.662   2.619 -0.4233 -1.2335  1.1279
17985TIP3   OH275445   1.863   2.707  10.962  0.0249  0.2516  0.1023
17985TIP3    H175446   1.942   2.660  10.935 -0.1979 -0.6963  1.0432
17985TIP3    H275447   1.893   2.766  11.031 -0.2372 -0.9201  1.2741
17986TIP3   OH275448   1.352   4.104  15.585  0.7096  0.3596  0.1272
17986TIP3    H175449   1.408   4.129  15.658  0.9695 -0.6995  0.2962
17986TIP3    H275450   1.270   4.077  15.626  1.0495 -0.7841  0.0836
17987TIP3   OH275451   3.172   2.161   2.223 -0.1455  0.0408 -0.1981
17987TIP3    H175452   3.089   2.174   2.179 -0.0350  0.4781 -0.2871
17987TIP3    H275453   3.157   2.089   2.284 -0.8314  0.6504  0.3785
17988TIP3   OH275454   0.770   2.305  12.690 -0.1225  0.2334  0.1223
17988TIP3    H175455   0.810   2.293  12.776  0.1694  0.1326 -0.0238
17988TIP3    H275456   0.810   2.385  12.656  0.4507 -0.2184 -0.2941
17989TIP3   OH275457   1.229   2.738   4.136 -0.8082  0.5019  0.2924
17989TIP3    H175458   1.293   2.779   4.194 -2.7135  2.5107  1.1199
17989TIP3    H275459   1.281   2.698   4.066  1.3314  1.8461  1.0419
17990TIP3   OH275460   6.313   0.034   4.063 -0.2731 -0.7703  0.2299
17990TIP3    H175461   6.244   0.079   4.113  0.5217 -0.5123  1.1413
17990TIP3    H275462   6.357   0.104   4.016  0.6689 -0.6225  1.2835
17991TIP3   OH275463   0.464   4.414   0.530  0.2931  0.0247  0.0827
17991TIP3    H175464   0.439   4.357   0.457 -0.3409  1.2856 -0.7487
17991TIP3    H275465   0.528   4.364   0.580 -0.6840 -1.6301 -0.2522
17992TIP3   OH275466   4.099   3.428   2.047 -1.2762 -0.0214  0.3357
17992TIP3    H175467   4.181   3.476   2.049 -0.7342 -0.9679  1.4558
17992TIP3    H275468   4.053   3.463   1.970 -0.9568  2.3355  1.1431
17993TIP3   OH275469   6.745   5.927   4.235 -0.4313  0.5865  0.2111
17993TIP3    H175470   6.775   5.953   4.148 -0.3854 -1.5335 -0.4477
17993TIP3    H275471   6.818   5.877   4.272 -1.2926 -0.4730  0.5321
17994TIP3   OH275472   0.936   4.328   5.755 -0.1067 -0.4453  0.6251
17994TIP3    H175473   1.002   4.364   5.814  0.0853 -1.7202  1.2081
17994TIP3    H275474   0.853   4.364   5.788  0.0813 -0.4875  1.1585
17995TIP3   OH275475   0.121   6.368  12.740 -1.0149  0.2321 -0.7877
17995TIP3    H175476   0.109   6.329  12.826 -1.1727  0.6336 -0.6237
17995TIP3    H275477   0.083   6.304  12.679  0.1409 -0.5790 -0.6714
17996TIP3   OH275478   5.948   0.550   2.747 -0.2379  0.1928 -0.1869
17996TIP3    H175479   5.927   0.617   2.682  2.1031 -0.8692 -2.1901
17996TIP3    H275480   5.903   0.471   2.715 -1.8252  0.3722  1.4015
17997TIP3   OH275481   5.805   3.737  14.185  0.0214  0.4186 -0.1276
17997TIP3    H175482   5.728   3.688  14.156 -1.7152  2.9062 -0.0211
17997TIP3    H275483   5.802   3.818  14.134  2.1806  0.9342  0.4516
17998TIP3   OH275484   4.718   2.624   2.872 -0.2707 -0.1759 -0.3555
17998TIP3    H175485   4.707   2.610   2.967 -1.3240 -0.5556 -0.5231
17998TIP3    H275486   4.778   2.698   2.866 -1.8380  1.2242  0.6285
17999TIP3   OH275487   5.457   5.558  15.222 -0.3213  0.2625  0.6515
17999TIP3    H175488   5.412   5.617  15.282  0.5914  0.5486  1.0825
17999TIP3    H275489   5.389   5.500  15.188 -1.2859  1.6893  0.0595
18000TIP3   OH275490   4.697   6.349   0.387 -0.2268 -0.5206 -0.0563
18000TIP3    H175491   4.703   6.307   0.301 -0.5803  0.9458 -0.8451
18000TIP3    H275492   4.787   6.355   0.418  0.2101  1.0535 -1.4484
18001TIP3   OH275493   6.097   4.314   3.657  0.2172  0.7024 -0.2379
18001TIP3    H175494   6.159   4.385   3.669 -0.0948  0.8584  0.5334
18001TIP3    H275495   6.149   4.242   3.621  1.4265 -0.0311  2.6996
18002TIP3   OH275496   0.341   1.145   3.388  0.1441  0.4231  0.0996
18002TIP3    H175497   0.257   1.136   3.434 -0.1385  1.0401 -0.2791
18002TIP3    H275498   0.357   1.058   3.352 -0.2621  0.2611  0.2994
18003TIP3   OH275499   6.383   0.159  16.064 -0.0245  0.2288 -0.3166
18003TIP3    H175500   6.468   0.127  16.032 -0.7640 -0.9538 -1.1814
18003TIP3    H275501   6.318   0.108  16.015 -1.2532  1.5295 -0.1050
18004TIP3   OH275502   6.082   1.383   2.964  0.2524  0.1023 -0.0237
18004TIP3    H175503   6.066   1.345   3.050 -0.4194  1.1812  0.3487
18004TIP3    H275504   6.127   1.466   2.981 -0.2219  0.5108 -0.6771
18005TIP3   OH275505   2.267   0.466   4.592  0.0631  0.3120 -0.5597
18005TIP3    H175506   2.251   0.559   4.581  2.6557  0.9091  0.1427
18005TIP3    H275507   2.235   0.446   4.680  0.8016  0.8840 -0.1535
18006TIP3   OH275508   0.296   5.577   5.283  0.0031 -0.4701 -0.2094
18006TIP3    H175509   0.345   5.508   5.326 -1.7233 -0.1888  2.4281
18006TIP3    H275510   0.235   5.532   5.224  0.1310 -1.0840  0.1312
18007TIP3   OH275511   2.228   0.639   5.841 -0.6575 -0.1361  0.4545
18007TIP3    H175512   2.204   0.721   5.883 -0.9536  0.4308 -0.7671
18007TIP3    H275513   2.314   0.655   5.803 -0.5779 -0.4946  0.4810
18008TIP3   OH275514   5.884   5.486   3.122  0.1515  0.8499  0.8573
18008TIP3    H175515   5.893   5.480   3.217 -1.6616 -1.4204  0.9821
18008TIP3    H275516   5.800   5.530   3.109 -0.3174 -0.1625  0.3664
18009TIP3   OH275517   4.836   5.479   2.318  0.5420 -0.4452  0.5276
18009TIP3    H175518   4.766   5.421   2.289  1.4869 -0.9491 -0.8878
18009TIP3    H275519   4.818   5.563   2.276  0.0762 -0.1746  1.2475
18010TIP3   OH275520   1.910   6.249  10.393  0.1383  0.0818  0.3172
18010TIP3    H175521   1.862   6.276  10.472 -0.2017  0.7227 -0.0982
18010TIP3    H275522   1.854   6.182  10.353 -0.0309  0.2611  0.2511
18011TIP3   OH275523   0.446   3.724  13.566  0.2262  0.2533  0.0090
18011TIP3    H175524   0.388   3.782  13.517 -0.0241  0.6516  0.7581
18011TIP3    H275525   0.516   3.781  13.597 -1.3151  0.7810  2.9064
18012TIP3   OH275526   6.417   1.937  15.072 -0.4268 -0.3508  0.0656
18012TIP3    H175527   6.494   1.880  15.079 -1.0320 -1.1424  0.3585
18012TIP3    H275528   6.376   1.932  15.158  0.1677  1.5107  0.5164
18013TIP3   OH275529   2.566   0.692   1.946  0.1888 -0.3909  0.0813
18013TIP3    H175530   2.478   0.731   1.946  0.4492  0.2121  0.3715
18013TIP3    H275531   2.624   0.765   1.923  0.5780 -0.8803 -0.4989
18014TIP3   OH275532   6.514   4.194   5.602  0.0373  0.0684  0.5257
18014TIP3    H175533   6.589   4.152   5.644 -1.0904 -1.1043  1.4454
18014TIP3    H275534   6.471   4.242   5.673 -0.3522  0.3514  0.1024
18015TIP3   OH275535   5.274   5.399   2.535 -0.2682 -0.0902 -0.3404
18015TIP3    H175536   5.245   5.488   2.511 -0.0732 -0.3146 -1.4371
18015TIP3    H275537   5.226   5.342   2.476 -1.3896 -0.8516  1.2189
18016TIP3   OH275538   1.328   3.547  11.493  0.3066 -0.1114 -0.3949
18016TIP3    H175539   1.324   3.613  11.562  1.3969 -0.8714  0.4154
18016TIP3    H275540   1.331   3.598  11.412  0.3531  0.8117  0.1705
18017TIP3   OH275541   4.841   5.046  15.492 -1.4702 -0.1744  0.7549
18017TIP3    H175542   4.908   5.051  15.561  0.6329  2.9951 -1.2176
18017TIP3    H275543   4.774   5.108  15.520 -1.0210  0.4884  0.3983
18018TIP3   OH275544   2.992   5.574   4.649  0.0622 -0.2072  0.2629
18018TIP3    H175545   2.917   5.610   4.602  0.3314 -0.2245 -0.1858
18018TIP3    H275546   3.060   5.563   4.582  0.8675  0.9007  0.8719
18019TIP3   OH275547   5.456   4.622   6.353 -0.0894  0.5375 -0.2081
18019TIP3    H175548   5.535   4.569   6.343  0.3643  1.0467  0.6058
18019TIP3    H275549   5.387   4.558   6.371  0.3660  0.1775  0.2970
18020TIP3   OH275550   6.280   3.524   0.416  0.1159  0.2869  0.2863
18020TIP3    H175551   6.342   3.479   0.474 -1.0777  1.1697  2.3312
18020TIP3    H275552   6.321   3.608   0.396  1.1931 -0.5950 -1.4427
18021TIP3   OH275553   1.718   1.875   3.127  0.1451  0.5892  0.1596
18021TIP3    H175554   1.653   1.836   3.069 -0.8657  1.8070  0.4534
18021TIP3    H275555   1.789   1.903   3.069  0.3469 -0.5715 -0.1815
18022TIP3   OH275556   5.193   5.598   1.310 -0.3905 -0.4180 -0.3695
18022TIP3    H175557   5.277   5.622   1.270 -0.3688 -1.0694 -0.7223
18022TIP3    H275558   5.138   5.572   1.237 -0.5932 -0.9018 -0.0497
18023TIP3   OH275559   4.743   4.935   5.766  0.2704 -0.0528 -0.3680
18023TIP3    H175560   4.794   4.865   5.724 -1.3878 -1.1329 -0.6591
18023TIP3    H275561   4.751   4.916   5.860  1.5305  0.6281 -0.3097
18024TIP3   OH275562   1.591   4.270  15.171  0.1299 -0.4462  0.2424
18024TIP3    H175563   1.672   4.257  15.121  0.2256  0.1745  0.2156
18024TIP3    H275564   1.581   4.191  15.223 -0.1028 -1.2079 -0.9382
18025TIP3   OH275565   0.658   2.812   3.484  0.0978 -0.2509  0.1057
18025TIP3    H175566   0.621   2.760   3.413 -0.1395 -1.8790  1.3610
18025TIP3    H275567   0.752   2.797   3.478  0.1745  0.3589 -0.3946
18026TIP3   OH275568   6.491   1.661   2.955  0.2605 -0.3486 -0.1342
18026TIP3    H175569   6.575   1.659   2.909 -0.0628 -1.3167 -0.7097
18026TIP3    H275570   6.515   1.667   3.048  0.9402  0.3743 -0.3398
18027TIP3   OH275571   2.426   0.511   2.947 -0.1853 -0.2222 -0.4461
18027TIP3    H175572   2.513   0.500   2.986 -0.3741 -1.4963 -0.3374
18027TIP3    H275573   2.377   0.562   3.011 -0.4719 -2.2292  1.0272
18028TIP3   OH275574   5.999   5.901   6.466 -0.0960 -0.4013 -0.0965
18028TIP3    H175575   6.083   5.933   6.432 -0.5814 -0.4404 -1.4057
18028TIP3    H275576   6.017   5.813   6.499  0.3519 -0.4612 -0.5003
18029TIP3   OH275577   4.950   4.047   5.925 -0.0363 -0.0955 -0.2517
18029TIP3    H175578   4.948   4.067   6.019  2.2933 -2.1233  0.3485
18029TIP3    H275579   4.921   3.956   5.920  1.7388 -0.6367 -1.2301
18030TIP3   OH275580   3.142   5.707  16.714 -0.9575 -0.5126  0.2843
18030TIP3    H175581   3.165   5.774  16.651 -1.3211 -0.9149 -0.2843
18030TIP3    H275582   3.192   5.730  16.793  0.7419 -0.9029 -0.6310
18031TIP3   OH275583   0.610   0.070  13.811  0.2168  0.3370 -0.4921
18031TIP3    H175584   0.538   0.113  13.764  0.0673  0.6511  0.0225
18031TIP3    H275585   0.639   0.135  13.875  1.7655  0.6883 -1.4740
18032TIP3   OH275586   0.903   0.280  15.274  0.1091  0.1738  0.0331
18032TIP3    H175587   0.824   0.226  15.270 -0.1693  0.5609 -4.1071
18032TIP3    H275588   0.975   0.218  15.277 -0.1923 -0.1837  2.5241
18033TIP3   OH275589   6.719   5.301   0.853  0.1828  0.4780 -0.0330
18033TIP3    H175590   6.736   5.338   0.939 -0.7548 -1.1918  0.9092
18033TIP3    H275591   6.788   5.237   0.840  0.1845  0.5558 -0.4311
18034TIP3   OH275592   1.189   5.637  12.901 -0.2186  0.2345  0.2269
18034TIP3    H175593   1.195   5.718  12.952 -0.9201  1.4705 -1.5791
18034TIP3    H275594   1.261   5.582  12.934 -0.5467  1.0271  2.3987
18035TIP3   OH275595   6.238   6.097   2.296 -0.4964  0.7515 -0.4535
18035TIP3    H175596   6.286   6.103   2.214  1.3026 -1.4987  0.3119
18035TIP3    H275597   6.265   6.173   2.346  0.9665  0.4213 -0.7107
18036TIP3   OH275598   5.526   1.316  11.933 -0.8818 -0.2291  0.1601
18036TIP3    H175599   5.501   1.398  11.977 -0.5778  0.1072 -0.2896
18036TIP3    H275600   5.621   1.318  11.932 -0.8703 -0.6842  0.3128
18037TIP3   OH275601   2.784   6.521   1.369  0.3327  0.2261 -0.2731
18037TIP3    H175602   2.870   6.479   1.380 -0.3025 -0.9851  0.3085
18037TIP3    H275603   2.764   6.557   1.455 -1.1595 -2.3891  0.5893
18038TIP3   OH275604   1.209   2.992  16.267  0.2802  0.3666  0.1905
18038TIP3    H175605   1.149   3.063  16.289  0.9102  0.5435  1.4434
18038TIP3    H275606   1.156   2.912  16.273  0.1258  0.5334  1.0945
18039TIP3   OH275607   6.300   2.773   4.288 -0.2425 -0.1417  0.3989
18039TIP3    H175608   6.309   2.848   4.347 -2.9850 -0.9336  1.9914
18039TIP3    H275609   6.312   2.810   4.200 -0.6027  1.9734  1.1873
18040TIP3   OH275610   2.607   1.235   5.742 -0.1928 -0.1416  0.2616
18040TIP3    H175611   2.516   1.230   5.770 -0.0847  0.9240  0.8556
18040TIP3    H275612   2.612   1.317   5.693  0.9955  1.2063  2.4603
18041TIP3   OH275613   5.374   3.091   4.040  0.5814 -0.3565 -0.4310
18041TIP3    H175614   5.400   3.163   4.097 -0.7423 -1.6537  1.9630
18041TIP3    H275615   5.456   3.060   4.002  1.6359  0.1880  1.2879
18042TIP3   OH275616   3.576   5.714   1.258 -0.4796 -0.2453 -0.3620
18042TIP3    H175617   3.556   5.807   1.257  1.5592  0.2469 -0.0809
18042TIP3    H275618   3.497   5.671   1.226 -2.4884  1.3603  2.0986
18043TIP3   OH275619   6.750   6.415   1.247 -0.0330  0.4081 -0.4713
18043TIP3    H175620   6.840   6.383   1.256  0.1627  0.2315 -2.4251
18043TIP3    H275621   6.754   6.474   1.172 -1.4832  0.6790 -0.3541
18044TIP3   OH275622   5.865   2.132   2.370 -0.3622 -0.2423 -0.7153
18044TIP3    H175623   5.881   2.186   2.448  4.3439 -0.0949 -1.4889
18044TIP3    H275624   5.860   2.196   2.299  0.1340 -0.5782 -1.0529
18045TIP3   OH275625   0.126   2.893  15.024 -0.0577 -0.6536 -0.4072
18045TIP3    H175626   0.218   2.885  15.048  0.1937 -1.7418 -1.6097
18045TIP3    H275627   0.124   2.870  14.931 -1.2723  1.2616 -0.9071
18046TIP3   OH275628   6.383   1.875   4.526  0.3890 -0.6247  0.4380
18046TIP3    H175629   6.449   1.868   4.595  1.0975  1.4655  0.0476
18046TIP3    H275630   6.381   1.968   4.504  1.6491 -1.3854 -3.7438
18047TIP3   OH275631   4.994   0.015   5.742 -0.1866 -0.1198  0.5210
18047TIP3    H175632   5.052  -0.009   5.815  3.3763 -0.4999 -2.1774
18047TIP3    H275633   4.999   0.110   5.738  0.6728 -0.1794  0.0170
18048TIP3   OH275634   6.836   3.950  10.385 -0.8384 -0.4082 -0.3644
18048TIP3    H175635   6.765   4.014  10.378 -1.4511 -1.2070 -2.0364
18048TIP3    H275636   6.915   4.003  10.390 -1.3012  0.5303 -2.1287
18049TIP3   OH275637   4.270   0.048  11.068 -0.1671  0.2859 -0.1572
18049TIP3    H175638   4.344  -0.011  11.050 -1.2342 -0.4830 -2.3814
18049TIP3    H275639   4.243   0.080  10.982 -4.1809 -1.6489  0.1767
18050TIP3   OH275640   1.213   4.691   5.427 -0.6652  0.2478 -0.2669
18050TIP3    H175641   1.239   4.781   5.446 -0.6679 -0.2334  2.4526
18050TIP3    H275642   1.283   4.637   5.464 -1.0204 -0.8802 -1.1919
18051TIP3   OH275643   4.409   3.722  12.338  0.1369 -0.8829 -0.5371
18051TIP3    H175644   4.320   3.757  12.349  0.3395 -0.4025 -0.4164
18051TIP3    H275645   4.442   3.713  12.428  0.1973 -1.1033 -0.5812
18052TIP3   OH275646   2.981   4.635  15.486  0.1007  0.1831  0.6502
18052TIP3    H175647   3.020   4.696  15.423 -0.8960  0.3087  0.1243
18052TIP3    H275648   2.887   4.640  15.468 -0.0328 -1.2587  0.8177
18053TIP3   OH275649   1.754   3.492  17.107  0.6354 -0.5445  0.0960
18053TIP3    H175650   1.833   3.477  17.159  0.9260 -1.2149 -0.5311
18053TIP3    H275651   1.743   3.413  17.054 -0.3265 -0.3680 -0.0034
18054TIP3   OH275652   5.669   0.424  15.872  0.7844  0.9035  0.4760
18054TIP3    H175653   5.598   0.359  15.870  1.5351  0.0290  1.1096
18054TIP3    H275654   5.686   0.438  15.966  2.1202  0.3203  0.3440
18055TIP3   OH275655   3.441   2.920   4.533  0.1399  0.0235  0.3580
18055TIP3    H175656   3.349   2.893   4.526 -0.3538  0.6127  3.1753
18055TIP3    H275657   3.491   2.841   4.514 -0.9029 -0.2387 -1.5306
18056TIP3   OH275658   5.339   3.350   3.505  0.0824  0.5452 -0.2903
18056TIP3    H175659   5.338   3.285   3.435  0.2792  0.6578 -0.3981
18056TIP3    H275660   5.281   3.314   3.572 -1.3055  1.1326 -1.1307
18057TIP3   OH275661   2.743   0.196  12.774  0.3533 -0.2130 -0.1886
18057TIP3    H175662   2.747   0.268  12.712 -0.3138  0.8941  0.9921
18057TIP3    H275663   2.733   0.117  12.720 -0.3659  0.7225 -1.4601
18058TIP3   OH275664   1.192   5.863  14.344  0.3451 -0.0635  0.4766
18058TIP3    H175665   1.270   5.842  14.396  1.7088  0.9647 -1.0083
18058TIP3    H275666   1.119   5.857  14.405  1.7211 -0.0276  2.2035
18059TIP3   OH275667   4.445   2.036  14.778  0.4771 -0.0866 -0.0532
18059TIP3    H175668   4.444   2.095  14.702  3.1372 -1.7698 -1.5652
18059TIP3    H275669   4.498   2.082  14.843 -3.3260  2.2067  1.7630
18060TIP3   OH275670   3.973   3.863  11.143 -0.2444  0.5488 -0.0535
18060TIP3    H175671   3.927   3.849  11.225 -0.0814 -2.6194 -0.3913
18060TIP3    H275672   4.061   3.828  11.159 -1.0361 -2.9017 -2.2982
18061TIP3   OH275673   2.273   1.819   2.775  0.3138  0.1886 -0.1288
18061TIP3    H175674   2.307   1.806   2.864 -1.5769  1.7279  0.9030
18061TIP3    H275675   2.220   1.741   2.758  2.1817 -1.0278 -0.7510
18062TIP3   OH275676   2.601   2.475  12.968  0.2944 -0.1933 -0.0477
18062TIP3    H175677   2.578   2.567  12.955  1.5817 -0.1057 -2.4441
18062TIP3    H275678   2.522   2.427  12.944 -0.2538  0.2745  0.8030
18063TIP3   OH275679   6.833   6.104   3.258 -0.4766 -0.3165  0.7954
18063TIP3    H175680   6.912   6.088   3.207 -0.4994  0.4891  0.4843
18063TIP3    H275681   6.853   6.071   3.345  0.7617  1.1912  1.1255
18064TIP3   OH275682   5.864   4.726   1.251  0.2300  0.2392 -0.1223
18064TIP3    H175683   5.910   4.666   1.193  0.8211  0.4286  0.1458
18064TIP3    H275684   5.869   4.684   1.337 -0.3000  0.1492 -0.1338
18065TIP3   OH275685   3.053   1.329  12.110 -0.1320 -0.3463 -0.1417
18065TIP3    H175686   3.025   1.240  12.129 -0.3466 -0.1000  0.7510
18065TIP3    H275687   2.997   1.384  12.165  1.0581  0.2400  0.5217
18066TIP3   OH275688   3.840   3.388   6.048 -0.2771  0.3956 -0.4101
18066TIP3    H175689   3.846   3.402   5.954 -1.4428 -1.8980 -0.8750
18066TIP3    H275690   3.768   3.444   6.076  0.0269  1.0259 -0.8626
18067TIP3   OH275691   4.128   6.307   0.600  0.1341 -0.0061  0.7013
18067TIP3    H175692   4.217   6.277   0.620 -0.3370 -2.0179 -0.0319
18067TIP3    H275693   4.096   6.246   0.535 -2.1841  0.0437  1.6982
18068TIP3   OH275694   0.499   5.529   1.878  0.2848  0.0564  0.1759
18068TIP3    H175695   0.465   5.446   1.843  1.2857 -0.6051  0.7186
18068TIP3    H275696   0.421   5.576   1.908 -0.4740  0.0370 -1.5981
18069TIP3   OH275697   1.415   4.955  14.954  0.5858 -0.1373  0.1007
18069TIP3    H175698   1.391   5.047  14.944  1.4565 -0.0208 -1.1076
18069TIP3    H275699   1.335   4.906  14.934  0.2855  0.3381  0.1297
18070TIP3   OH275700   4.353   5.634   2.454  0.8232 -0.1386  0.4611
18070TIP3    H175701   4.390   5.550   2.429 -0.6465 -1.2637  1.7938
18070TIP3    H275702   4.258   5.623   2.442  0.6568  1.7001 -0.3073
18071TIP3   OH275703   6.099   4.755   2.537 -0.5094 -0.4241 -0.7121
18071TIP3    H175704   6.024   4.808   2.509 -0.9922  0.1230  1.4589
18071TIP3    H275705   6.098   4.760   2.632  1.1735 -1.9928 -0.5539
18072TIP3   OH275706   2.907   6.142  11.275  0.4873  0.3491 -0.0562
18072TIP3    H175707   2.951   6.200  11.338 -1.7736  1.4890  0.5868
18072TIP3    H275708   2.955   6.154  11.193  0.3193  2.9726  0.1330
18073TIP3   OH275709   5.005   0.830   4.467 -0.2656 -0.5737 -0.7257
18073TIP3    H175710   5.002   0.770   4.393  0.6217 -0.0658 -1.1847
18073TIP3    H275711   5.074   0.893   4.445  1.9490 -1.9682  1.6873
18074TIP3   OH275712   6.492   1.096   3.173  0.0170  0.7527  0.1726
18074TIP3    H175713   6.433   1.139   3.110  0.0322  0.4428 -0.0507
18074TIP3    H275714   6.580   1.114   3.139  0.0259  0.6069  0.1188
18075TIP3   OH275715   4.669   4.306   1.287 -0.4640  0.0808  0.0700
18075TIP3    H175716   4.660   4.346   1.200  0.6641 -0.9717 -0.5582
18075TIP3    H275717   4.738   4.357   1.330  0.7895 -0.9787 -0.6333
18076TIP3   OH275718   1.813   2.746  11.613  0.1824  0.4960 -0.0305
18076TIP3    H175719   1.842   2.834  11.589 -1.3488  1.4659  1.4368
18076TIP3    H275720   1.870   2.721  11.686  0.1193  0.6071  0.0582
18077TIP3   OH275721   3.141   6.163   2.297 -0.0518  0.0567  0.0771
18077TIP3    H175722   3.213   6.124   2.347  0.4263 -0.9184 -1.3181
18077TIP3    H275723   3.135   6.253   2.330  1.9068  0.2019  0.1239
18078TIP3   OH275724   1.180   4.534   1.423  0.1765  0.0722 -0.6334
18078TIP3    H175725   1.275   4.535   1.413  0.1168 -1.0927 -1.6153
18078TIP3    H275726   1.159   4.441   1.436 -0.9799  0.0536 -2.3522
18079TIP3   OH275727   5.272   1.552  15.899 -0.2174  0.5692  0.1888
18079TIP3    H175728   5.279   1.609  15.822 -1.0253  0.0742 -0.2648
18079TIP3    H275729   5.192   1.501  15.884 -1.0570  1.2835  1.9229
18080TIP3   OH275730   2.811   3.367   4.269 -0.9304 -0.2824 -0.1205
18080TIP3    H175731   2.862   3.331   4.342 -0.4239 -1.3924 -0.9982
18080TIP3    H275732   2.824   3.462   4.277  0.1583 -0.4557  0.4913
18081TIP3   OH275733   3.520   4.280  16.489  0.4592  0.0550  0.3276
18081TIP3    H175734   3.598   4.298  16.438 -0.0033  1.3116  0.0349
18081TIP3    H275735   3.546   4.297  16.580  0.4358  0.8490  0.1939
18082TIP3   OH275736   5.982   3.650   3.074  0.0733  0.2190 -0.1869
18082TIP3    H175737   5.946   3.593   3.142 -1.4319 -0.3396 -1.3832
18082TIP3    H275738   6.060   3.688   3.113 -0.1259 -0.9446  1.4433
18083TIP3   OH275739   4.634   5.195  14.567  0.2974 -0.3156  0.0875
18083TIP3    H175740   4.602   5.188  14.657  1.4941  0.1626  0.5735
18083TIP3    H275741   4.578   5.261  14.527  0.4351  0.2796  0.8298
18084TIP3   OH275742   5.365   6.819   1.904  0.1386  0.3176  0.2638
18084TIP3    H175743   5.422   6.855   1.837  1.1165  1.8962  1.8626
18084TIP3    H275744   5.333   6.895   1.953  0.1681 -0.8050  2.1338
18085TIP3   OH275745   3.299   4.954   1.814  0.3929 -0.0556  0.0770
18085TIP3    H175746   3.302   4.871   1.767 -3.2791 -0.0605 -0.4105
18085TIP3    H275747   3.310   5.020   1.746 -0.7321 -0.1304 -0.1975
18086TIP3   OH275748   2.314   6.433   0.772  0.7009  0.4289  0.0247
18086TIP3    H175749   2.251   6.449   0.702  0.6289  0.9511  0.1997
18086TIP3    H275750   2.377   6.371   0.735 -0.0031 -0.2240 -0.0963
18087TIP3   OH275751   3.565   5.467   3.657  0.5517 -0.0210 -0.0350
18087TIP3    H175752   3.480   5.433   3.629  0.2709  0.2963  0.4192
18087TIP3    H275753   3.567   5.453   3.751 -0.0218  2.1324  0.3477
18088TIP3   OH275754   1.832   1.543  13.647  0.0148 -0.1205  0.4864
18088TIP3    H175755   1.917   1.565  13.609 -0.3689  2.8178  1.0818
18088TIP3    H275756   1.833   1.448  13.654  2.0618 -0.4156 -2.2046
18089TIP3   OH275757   4.353   6.483  14.652 -0.2755  0.3943  0.9289
18089TIP3    H175758   4.429   6.528  14.688 -0.2066  0.2870  0.9189
18089TIP3    H275759   4.320   6.541  14.584  2.2510 -1.3296 -2.0439
18090TIP3   OH275760   6.033   2.655  16.862  0.1814  0.5857 -0.5940
18090TIP3    H175761   6.061   2.742  16.836 -0.7000  0.5819 -1.6425
18090TIP3    H275762   5.993   2.618  16.783  0.7627 -0.8647 -0.2395
18091TIP3   OH275763   3.238   2.539   4.722  0.4156 -0.2133  0.0270
18091TIP3    H175764   3.307   2.548   4.788 -1.4462 -0.4457  2.1387
18091TIP3    H275765   3.239   2.445   4.699  0.6910 -0.2411  0.1490
18092TIP3   OH275766   5.523   1.187  12.699 -0.3582  0.9855 -0.2376
18092TIP3    H175767   5.584   1.212  12.768  0.4111 -0.9188 -0.1585
18092TIP3    H275768   5.571   1.122  12.647 -1.2394  1.6997 -2.0372
18093TIP3   OH275769   5.561   4.417   1.258 -0.6772 -0.1893  0.2599
18093TIP3    H175770   5.589   4.468   1.183  0.0476 -0.7029  0.1777
18093TIP3    H275771   5.557   4.480   1.330  1.1742 -0.1821  0.3876
18094TIP3   OH275772   3.766   3.756  13.655  0.2080  0.2492 -0.6753
18094TIP3    H175773   3.766   3.852  13.656  0.9775  0.3221  2.2763
18094TIP3    H275774   3.681   3.732  13.693  0.4354 -0.2055 -0.4494
18095TIP3   OH275775   6.597   2.742  12.414 -0.1425  0.4651 -0.0380
18095TIP3    H175776   6.679   2.694  12.408 -0.2204  0.3400 -0.1081
18095TIP3    H275777   6.621   2.834  12.399  0.4523  0.9031  2.9533
18096TIP3   OH275778   3.048   4.105   3.655 -0.3646  0.8272 -0.3956
18096TIP3    H175779   3.078   4.018   3.629  1.0897  0.2945  2.5911
18096TIP3    H275780   3.042   4.100   3.750 -0.4264  3.9563 -0.1465
18097TIP3   OH275781   2.827   5.043  11.411 -0.1991  0.2852 -0.1069
18097TIP3    H175782   2.842   5.001  11.496 -0.0054  1.1204  0.2841
18097TIP3    H275783   2.822   4.971  11.349 -0.2703 -0.3364  0.6054
18098TIP3   OH275784   2.948   4.135   4.830 -0.2511 -0.1925 -0.3654
18098TIP3    H175785   2.981   4.175   4.750  1.4746  0.3953  0.5812
18098TIP3    H275786   2.995   4.180   4.900 -3.0994  0.6623  1.1396
18099TIP3   OH275787   1.907   4.689   1.371  0.2786 -0.2268 -0.0232
18099TIP3    H175788   1.864   4.614   1.413 -0.1461  0.2364  0.3835
18099TIP3    H275789   1.935   4.656   1.286  0.6474 -1.0263  0.3886
18100TIP3   OH275790   3.306   6.534   3.652  1.0551  0.4969  0.1372
18100TIP3    H175791   3.289   6.459   3.595  2.6873 -0.3109  0.6403
18100TIP3    H275792   3.267   6.609   3.606 -1.4159 -0.7370  0.0389
18101TIP3   OH275793   1.270   3.894  10.926 -0.5185 -0.2435  0.2979
18101TIP3    H175794   1.366   3.899  10.920 -0.3488 -2.7577  0.0193
18101TIP3    H275795   1.251   3.800  10.922 -3.0605  0.2484 -0.4821
18102TIP3   OH275796   6.550   1.986  15.974  0.1796 -0.1380 -0.3799
18102TIP3    H175797   6.603   2.062  15.997  0.0599 -0.2471  0.2876
18102TIP3    H275798   6.464   2.004  16.012  0.0897 -0.5136 -0.3955
18103TIP3   OH275799   1.254   3.369  16.402  0.0380  0.1403 -0.0886
18103TIP3    H175800   1.159   3.367  16.392  0.2140  0.3471 -2.2426
18103TIP3    H275801   1.287   3.380  16.313  2.1609 -2.5694  0.2208
18104TIP3   OH275802   2.078   5.255  10.729 -0.5648  0.0984  0.4937
18104TIP3    H175803   2.040   5.331  10.772  2.3105  0.7235  2.2392
18104TIP3    H275804   2.097   5.284  10.640 -1.0914  0.8098  0.6062
18105TIP3   OH275805   5.333   1.528   4.825 -0.1736 -0.0818  0.3342
18105TIP3    H175806   5.331   1.583   4.903  1.2439  1.1815 -0.4717
18105TIP3    H275807   5.426   1.512   4.808 -0.5048 -1.4832 -0.3269
18106TIP3   OH275808   0.047   1.741  15.792 -0.1835 -0.2805 -0.1590
18106TIP3    H175809   0.012   1.665  15.840 -0.4486 -1.0393 -1.4968
18106TIP3    H275810   0.060   1.709  15.703  3.0145  0.2571  0.0072
18107TIP3   OH275811   5.911   4.487  10.565 -0.1790  0.0032 -0.7132
18107TIP3    H175812   5.830   4.539  10.568  0.6935  1.3839 -0.2519
18107TIP3    H275813   5.967   4.525  10.633  0.7689 -1.1161 -0.8296
18108TIP3   OH275814   4.953   5.467   4.420 -0.3426 -0.2376  0.0552
18108TIP3    H175815   4.998   5.470   4.335 -0.8727 -0.8328 -0.2519
18108TIP3    H275816   4.907   5.551   4.426  1.9727  1.0647  1.0446
18109TIP3   OH275817   1.444   5.218  15.940 -0.1762  0.7190 -0.4969
18109TIP3    H175818   1.538   5.199  15.935 -0.4523 -0.2616 -2.6362
18109TIP3    H275819   1.441   5.306  15.978  1.7625  1.8016 -2.5761
18110TIP3   OH275820   4.031   0.668   3.435 -0.0202  0.3296 -0.1895
18110TIP3    H175821   4.016   0.675   3.529  1.8015  2.5370  0.0406
18110TIP3    H275822   3.963   0.609   3.404 -0.8741 -0.2096  2.4526
18111TIP3   OH275823   6.435   2.423   4.855 -0.0852 -0.7223 -0.1247
18111TIP3    H175824   6.513   2.476   4.871 -0.7170 -0.0078  0.6765
18111TIP3    H275825   6.366   2.465   4.906 -0.6533 -2.2312  0.4221
18112TIP3   OH275826   3.706   3.798  12.349  0.1297  0.5463  0.2880
18112TIP3    H175827   3.662   3.881  12.329 -0.3321  0.0872 -0.7313
18112TIP3    H275828   3.790   3.804  12.304 -0.3738  0.0295 -0.7665
18113TIP3   OH275829   5.106   6.251  14.132 -0.0406  0.1049  0.6635
18113TIP3    H175830   5.123   6.264  14.226 -1.1349 -2.6500  1.3235
18113TIP3    H275831   5.043   6.180  14.129  0.3778 -0.2286 -2.2236
18114TIP3   OH275832   1.008   3.120  12.667  0.0567 -0.6136  0.4852
18114TIP3    H175833   0.991   3.154  12.579 -0.9395 -0.5663  0.6882
18114TIP3    H275834   1.020   3.199  12.720 -1.7875 -0.5581  0.8630
18115TIP3   OH275835   0.523   5.677   4.635  0.0641  0.0908 -0.3946
18115TIP3    H175836   0.525   5.766   4.669 -0.2675  0.2796 -0.8463
18115TIP3    H275837   0.584   5.628   4.690 -2.1425 -0.1827  2.0298
18116TIP3   OH275838   2.395   1.069  13.067  0.1764 -0.1343 -0.4841
18116TIP3    H175839   2.453   1.123  13.013 -0.1046  0.8752  0.1918
18116TIP3    H275840   2.440   1.062  13.151 -1.6990  2.8026  0.9501
18117TIP3   OH275841   2.612   4.076   6.461 -0.0578 -0.0403  0.3489
18117TIP3    H175842   2.642   4.139   6.396 -0.6177  1.3342  1.3930
18117TIP3    H275843   2.521   4.058   6.437 -0.6332  1.3659  1.4094
18118TIP3   OH275844   2.505   2.252  13.347 -0.3862 -0.4496  0.2353
18118TIP3    H175845   2.563   2.177  13.355 -0.6361 -0.4888  1.8910
18118TIP3    H275846   2.547   2.322  13.398 -0.4247  0.3951 -0.8355
18119TIP3   OH275847   3.322   3.113  15.145  0.6598  0.4532  0.5582
18119TIP3    H175848   3.293   3.205  15.147  1.2645  0.6656 -0.0528
18119TIP3    H275849   3.417   3.118  15.146  0.6961 -0.1719  0.4938
18120TIP3   OH275850   0.139   1.047  12.936 -0.2785  0.2428 -0.0915
18120TIP3    H175851   0.184   1.009  13.012  1.1877 -0.9388 -1.4913
18120TIP3    H275852   0.049   1.016  12.943 -0.0488 -0.2389  0.8955
18121TIP3   OH275853   0.380   0.714   1.352 -0.1260  0.0620 -0.0923
18121TIP3    H175854   0.451   0.768   1.319 -0.3756  1.1138  1.0330
18121TIP3    H275855   0.421   0.654   1.414 -0.2264  0.8066  0.7129
18122TIP3   OH275856   1.605   6.715  11.092 -0.6600 -0.4360  0.1235
18122TIP3    H175857   1.639   6.805  11.096 -1.5117 -0.1402  1.0854
18122TIP3    H275858   1.643   6.672  11.168  0.7975 -1.3001 -1.0494
18123TIP3   OH275859   1.005   0.747   0.552  0.1654 -0.3959 -0.7958
18123TIP3    H175860   1.016   0.653   0.560 -2.1343 -0.7371 -1.0094
18123TIP3    H275861   0.925   0.767   0.602  1.1752  1.6111  0.1598
18124TIP3   OH275862   3.637   5.175   0.165 -0.6275  0.0195 -0.1987
18124TIP3    H175863   3.692   5.229   0.222 -1.3636  0.8573 -0.2724
18124TIP3    H275864   3.548   5.195   0.192 -1.1096  1.7584 -2.7398
18125TIP3   OH275865   6.129   0.056  17.129  0.2363  0.0146 -0.4299
18125TIP3    H175866   6.173  -0.028  17.117 -0.6157 -0.9522  2.3873
18125TIP3    H275867   6.036   0.034  17.130 -0.0017  1.0057  0.2205
18126TIP3   OH275868   3.496   2.847   2.713  0.4611  0.2273  0.0765
18126TIP3    H175869   3.529   2.848   2.803  2.7809  0.5400 -0.7149
18126TIP3    H275870   3.454   2.933   2.702 -1.7895 -0.6121  1.4599
18127TIP3   OH275871   1.160   4.681  12.604 -0.1815 -0.0693  0.6812
18127TIP3    H175872   1.130   4.772  12.601 -0.1581 -0.0380  1.2266
18127TIP3    H275873   1.082   4.632  12.630 -1.0063 -0.6126 -2.4267
18128TIP3   OH275874   4.404   1.087   2.205  0.4797  0.5895 -0.4399
18128TIP3    H175875   4.438   0.998   2.216 -0.4687  0.2177 -0.3530
18128TIP3    H275876   4.341   1.079   2.133  0.2704  1.1537 -0.3228
18129TIP3   OH275877   4.158   1.582  15.196 -0.4641  0.0271 -0.2351
18129TIP3    H175878   4.085   1.640  15.177 -0.5269 -0.7596 -2.6729
18129TIP3    H275879   4.120   1.513  15.252 -0.9370  0.9729  0.6506
18130TIP3   OH275880   0.815   0.831   3.994  0.0428 -0.0108 -0.1544
18130TIP3    H175881   0.736   0.783   3.970 -2.0430  1.8291  2.4004
18130TIP3    H275882   0.830   0.891   3.921 -1.0256 -0.2529 -0.5853
18131TIP3   OH275883   4.998   2.284   1.604  0.3749  0.2742  0.2039
18131TIP3    H175884   5.022   2.318   1.690  0.1226  0.2852  0.2706
18131TIP3    H275885   4.914   2.325   1.585  0.3185  0.0878  0.0542
18132TIP3   OH275886   6.439   5.212  11.634  0.1736  0.3686  0.2661
18132TIP3    H175887   6.449   5.164  11.552 -0.0675  1.3248 -0.3297
18132TIP3    H275888   6.488   5.160  11.698  0.1354 -0.5303 -0.4138
18133TIP3   OH275889   3.782   1.462   5.072 -0.1028 -0.3313  0.0916
18133TIP3    H175890   3.798   1.418   5.155 -0.4544 -1.0058 -0.1877
18133TIP3    H275891   3.706   1.517   5.088 -0.2106 -0.5109  0.1979
18134TIP3   OH275892   6.176   0.124  13.590 -0.2761 -0.0631  0.1829
18134TIP3    H175893   6.204   0.198  13.643  0.5301  0.4154 -0.8701
18134TIP3    H275894   6.101   0.158  13.540  1.4601  0.8409 -1.9877
18135TIP3   OH275895   6.595   0.308   5.300  0.2409  0.3784 -0.4496
18135TIP3    H175896   6.500   0.302   5.303  0.1527  1.5312 -0.7404
18135TIP3    H275897   6.622   0.319   5.391  0.1628 -0.6836 -0.2855
18136TIP3   OH275898   2.270   4.974   6.450 -0.3948  0.2268  0.2056
18136TIP3    H175899   2.221   4.903   6.492  1.0757 -0.5922  0.6046
18136TIP3    H275900   2.310   5.022   6.522  3.3327 -2.0421 -0.1057
18137TIP3   OH275901   6.267   2.975  16.867 -0.7555 -0.6520 -0.3419
18137TIP3    H175902   6.253   3.068  16.879  0.9084 -0.4662  0.4276
18137TIP3    H275903   6.189   2.944  16.821 -1.0174  1.2371 -1.2365
18138TIP3   OH275904   4.267   3.143  13.967 -0.1476 -0.4504  0.1959
18138TIP3    H175905   4.329   3.111  13.901 -1.6898  0.4715 -1.8320
18138TIP3    H275906   4.227   3.220  13.927 -1.3155  0.0487  2.1680
18139TIP3   OH275907   5.725   3.195  14.339  0.1982  0.4030  0.0350
18139TIP3    H175908   5.792   3.233  14.282 -0.7396  1.8380 -0.1946
18139TIP3    H275909   5.750   3.223  14.427 -1.0451  2.6350 -0.2249
18140TIP3   OH275910   4.461   5.118  11.222  0.0993  0.3000  0.1104
18140TIP3    H175911   4.490   5.055  11.156 -2.0215 -0.1933 -0.4604
18140TIP3    H275912   4.397   5.173  11.175 -1.2816  0.0839  1.6420
18141TIP3   OH275913   1.141   1.811   0.676  0.3577 -0.6624  0.5611
18141TIP3    H175914   1.098   1.725   0.684 -0.2028 -0.3592  0.8767
18141TIP3    H275915   1.223   1.801   0.723  0.4442 -1.1247  0.3232
18142TIP3   OH275916   4.270   6.495  15.297  0.3804  0.1025 -0.5116
18142TIP3    H175917   4.184   6.536  15.288  0.3061 -0.0871 -0.6824
18142TIP3    H275918   4.305   6.531  15.379  0.0160 -0.0394 -0.2869
18143TIP3   OH275919   1.542   5.646   3.178 -0.1268  0.9570  0.2229
18143TIP3    H175920   1.615   5.651   3.117 -0.3205 -1.5738 -0.3343
18143TIP3    H275921   1.478   5.590   3.134 -1.5640  1.5122  1.5170
18144TIP3   OH275922   4.618   2.172   4.612 -0.4820 -0.2647  0.8095
18144TIP3    H175923   4.708   2.141   4.603 -0.3653 -0.1133  1.4257
18144TIP3    H275924   4.577   2.152   4.528  0.6546  1.4440 -0.2084
18145TIP3   OH275925   1.394   1.273  14.204 -0.4696 -0.9277 -0.2237
18145TIP3    H175926   1.355   1.237  14.125  0.9501  1.4200 -2.1341
18145TIP3    H275927   1.323   1.322  14.245 -1.1006 -1.7941 -0.2558
18146TIP3   OH275928   0.031   1.880   4.658 -0.0900 -0.0473 -0.3158
18146TIP3    H175929   0.026   1.787   4.679 -2.0218 -0.4066 -2.1099
18146TIP3    H275930  -0.057   1.914   4.677  0.4928  1.3733  0.0105
18147TIP3   OH275931   2.863   2.332  12.632  0.2190 -0.1971 -0.3298
18147TIP3    H175932   2.830   2.408  12.678  0.2520 -0.2485 -0.2218
18147TIP3    H275933   2.825   2.339  12.544  0.0698 -0.1578 -0.2632
18148TIP3   OH275934   2.740   3.549   5.729  0.1115  0.3545 -0.3836
18148TIP3    H175935   2.652   3.576   5.757 -0.3054 -0.3903 -0.9641
18148TIP3    H275936   2.799   3.598   5.788 -0.6441  1.6902 -0.6864
18149TIP3   OH275937   1.297   2.494   4.990 -0.2993 -0.7136  0.3319
18149TIP3    H175938   1.354   2.418   4.986 -0.3948 -0.7781  0.2166
18149TIP3    H275939   1.208   2.459   4.985 -0.4692 -0.8436  2.8287
18150TIP3   OH275940   2.345   2.796   3.976  0.3398  0.0749 -0.5969
18150TIP3    H175941   2.343   2.711   4.020 -0.2070  0.2167 -0.3562
18150TIP3    H275942   2.301   2.856   4.035 -0.0306  0.3531 -1.1483
18151TIP3   OH275943   1.326   2.317  13.300  0.1223 -0.4927  0.3920
18151TIP3    H175944   1.287   2.392  13.344  1.4185 -0.1663  1.0428
18151TIP3    H275945   1.405   2.351  13.259  0.8919 -1.5439  0.9487
18152TIP3   OH275946   5.267   3.050   1.036  0.8595  0.0657 -0.2327
18152TIP3    H175947   5.254   3.120   1.100 -0.1320  0.8177 -1.2079
18152TIP3    H275948   5.356   3.019   1.051  1.1097  1.1428  0.6008
18153TIP3   OH275949   4.306   2.868   0.378  0.2916 -0.7454 -0.0152
18153TIP3    H175950   4.273   2.840   0.292 -1.3847  1.9367 -0.3763
18153TIP3    H275951   4.353   2.949   0.359  0.1451 -0.2710  1.5568
18154TIP3   OH275952   3.788   4.308   0.822 -0.4069 -0.4572  0.2624
18154TIP3    H175953   3.733   4.304   0.744 -1.6287 -1.7117  1.1385
18154TIP3    H275954   3.729   4.336   0.892  0.5236  0.0466  0.8713
18155TIP3   OH275955   3.711   0.858  14.122 -0.0695 -0.3653  0.5704
18155TIP3    H175956   3.730   0.835  14.031 -0.4305 -0.0488  0.4091
18155TIP3    H275957   3.616   0.846  14.131 -0.3961  1.6581  0.2752
18156TIP3   OH275958   0.752   6.776  11.345 -0.4147 -0.0296  0.3638
18156TIP3    H175959   0.746   6.763  11.250  0.0409 -0.3150  0.3714
18156TIP3    H275960   0.687   6.714  11.381  0.3071 -0.8476  0.2950
18157TIP3   OH275961   3.703   6.434  16.834 -0.2043  0.2174 -0.5758
18157TIP3    H175962   3.695   6.345  16.869  0.8069 -0.2146 -1.4034
18157TIP3    H275963   3.791   6.461  16.858 -0.5226  1.0212 -0.2954
18158TIP3   OH275964   2.768   0.736   2.662 -0.1391 -0.2641  0.1633
18158TIP3    H175965   2.817   0.812   2.629  0.5504 -0.6324  0.3124
18158TIP3    H275966   2.717   0.706   2.587  1.2242 -0.9420 -0.5372
18159TIP3   OH275967   5.282   5.733  13.722  0.3108 -0.5507  0.1364
18159TIP3    H175968   5.221   5.708  13.653  1.4703 -3.0668 -0.1080
18159TIP3    H275969   5.243   5.698  13.802  0.8095 -1.1094  0.1479
18160TIP3   OH275970   4.010   6.362  15.488 -0.2458 -1.0752  0.1055
18160TIP3    H175971   3.985   6.292  15.547  0.5015 -2.2254 -0.8847
18160TIP3    H275972   4.079   6.324  15.434  1.0422  0.8200  0.3387
18161TIP3   OH275973   0.124   6.026   2.153 -0.0798  0.7269 -0.3326
18161TIP3    H175974   0.145   5.949   2.206 -0.7947  1.0549  0.4378
18161TIP3    H275975   0.153   6.100   2.207 -1.0239  1.0720 -0.2972
18162TIP3   OH275976   0.902   5.837  12.203  0.7269 -0.2876 -0.4497
18162TIP3    H175977   0.839   5.907  12.216 -0.5151 -1.3452 -0.4879
18162TIP3    H275978   0.983   5.881  12.179  0.3657  1.1803  0.8692
18163TIP3   OH275979   5.389   0.178  16.833  0.7943  1.0454  0.7756
18163TIP3    H175980   5.473   0.224  16.839  1.0510  0.6100  0.6322
18163TIP3    H275981   5.339   0.208  16.909  0.3348  2.7648 -0.1755
18164TIP3   OH275982   0.628   3.685  15.427  0.1317  0.4767 -0.1441
18164TIP3    H175983   0.605   3.771  15.462 -0.2630  0.0035  0.8129
18164TIP3    H275984   0.602   3.688  15.335 -5.3491 -0.4467  1.0016
18165TIP3   OH275985   4.330   4.537  15.316 -0.0398 -0.2154  0.3499
18165TIP3    H175986   4.331   4.445  15.343 -0.6315 -0.0934  0.8010
18165TIP3    H275987   4.407   4.546  15.260  0.0281 -0.9850  0.3069
18166TIP3   OH275988   2.502   4.162   5.812 -0.6571 -0.5252  0.0013
18166TIP3    H175989   2.574   4.183   5.871  0.3249 -0.5916 -1.1309
18166TIP3    H275990   2.478   4.072   5.834  0.7175 -1.0893 -0.6823
18167TIP3   OH275991   4.539   0.933  12.990 -0.1058 -0.4479 -0.0428
18167TIP3    H175992   4.511   0.883  13.066 -0.3551  0.3036  0.3693
18167TIP3    H275993   4.571   0.867  12.928 -0.7905 -1.1385  0.3271
18168TIP3   OH275994   5.025   3.013  14.479  0.5822  0.5005  0.2746
18168TIP3    H175995   5.119   3.005  14.462  0.1602 -0.1989 -1.9985
18168TIP3    H275996   5.008   3.107  14.477  1.1510  0.6073  0.2599
18169TIP3   OH275997   0.040   2.863   2.886 -0.0325  0.7014  0.1575
18169TIP3    H175998   0.074   2.798   2.824  1.1462 -0.5322  2.0020
18169TIP3    H275999   0.033   2.943   2.834  2.1239  0.0664 -1.2858
18170TIP3   OH276000   4.597   3.957   5.215 -0.0459  0.2372 -0.5178
18170TIP3    H176001   4.551   4.041   5.202  0.6949  0.8796  0.8096
18170TIP3    H276002   4.689   3.981   5.217  0.3625 -0.9664 -2.5393
18171TIP3   OH276003   4.341   4.578  10.938  0.2345 -0.5734 -0.5710
18171TIP3    H176004   4.277   4.539  10.879  0.5815 -1.7479 -0.2033
18171TIP3    H276005   4.401   4.506  10.959 -0.1479 -0.3407  1.5767
18172TIP3   OH276006   4.902   3.181  15.926 -0.5680 -0.6643 -0.2961
18172TIP3    H176007   4.848   3.185  16.004  1.4672 -2.6293  1.3612
18172TIP3    H276008   4.934   3.270  15.913 -0.6980 -0.3588  1.3300
18173TIP3   OH276009   4.559   0.244  12.678 -0.1580 -0.0398 -0.0603
18173TIP3    H176010   4.528   0.212  12.594  0.6988  0.4357 -0.5761
18173TIP3    H276011   4.591   0.166  12.724 -0.7820 -0.3221 -0.0974
18174TIP3   OH276012   3.039   6.392  12.800 -0.5280 -0.0339 -0.1949
18174TIP3    H176013   3.036   6.325  12.868  0.3790 -1.6760 -1.6836
18174TIP3    H276014   3.036   6.475  12.847 -0.0121 -1.1097  1.8253
18175TIP3   OH276015   6.297   2.727   4.602 -0.1040  0.4880 -0.6011
18175TIP3    H176016   6.354   2.785   4.652 -1.1327  1.7169 -0.8131
18175TIP3    H276017   6.208   2.752   4.629 -0.5781 -1.0274 -0.6613
18176TIP3   OH276018   1.794   4.699  15.363 -0.4618 -0.2594 -0.2206
18176TIP3    H176019   1.712   4.691  15.413  0.5065  0.2891  1.5629
18176TIP3    H276020   1.798   4.619  15.312 -1.3920 -1.0089  0.8108
18177TIP3   OH276021   6.171   0.241   4.958 -0.5329 -0.1417  0.1442
18177TIP3    H176022   6.158   0.199   5.043  1.4239 -0.8885  0.1140
18177TIP3    H276023   6.083   0.245   4.920 -1.3376 -0.4873  1.8580
18178TIP3   OH276024   5.955   1.332   4.092  0.9449  0.7235  0.4279
18178TIP3    H176025   5.975   1.278   4.168  1.5500  1.1305  0.5569
18178TIP3    H276026   5.952   1.421   4.125 -0.6577  0.7440  0.3336
18179TIP3   OH276027   4.448   0.767   3.175  0.1543 -0.5222 -0.5400
18179TIP3    H176028   4.477   0.762   3.084  1.6151 -0.1934 -0.1149
18179TIP3    H276029   4.423   0.677   3.196 -0.2494 -0.5915 -1.2732
18180TIP3   OH276030   2.019   4.930   3.017 -0.2054  0.6081 -0.2890
18180TIP3    H176031   1.929   4.930   2.986 -0.0678 -1.4925 -0.8729
18180TIP3    H276032   2.045   5.022   3.017 -2.4627  1.2888  0.3165
18181TIP3   OH276033   0.924   3.273  16.787 -0.2290 -0.4861 -0.5456
18181TIP3    H176034   1.017   3.274  16.811 -0.4027  0.1748  0.1160
18181TIP3    H276035   0.894   3.186  16.814  0.3194 -0.9211 -1.2865
18182TIP3   OH276036   1.492   0.751   3.550 -0.3383  0.3621  0.7349
18182TIP3    H176037   1.540   0.669   3.542 -1.7091 -0.3457 -0.7517
18182TIP3    H276038   1.523   0.789   3.633  1.6172 -0.7652  0.5790
18183TIP3   OH276039   5.896   3.320  14.577 -0.2508  0.1749  0.6234
18183TIP3    H176040   5.834   3.310  14.649 -0.7161  1.6612  0.4803
18183TIP3    H276041   5.930   3.409  14.587  1.5174 -0.4412  0.4028
18184TIP3   OH276042   1.582   4.499   4.993 -0.3543 -0.1919  0.2873
18184TIP3    H176043   1.548   4.436   5.056 -2.2952  0.2741 -0.2412
18184TIP3    H276044   1.519   4.498   4.921  0.3731  1.2560 -0.4103
18185TIP3   OH276045   5.353   6.204  12.372  0.4175 -0.1060 -0.1016
18185TIP3    H176046   5.402   6.273  12.328 -1.5703  1.2400 -0.3246
18185TIP3    H276047   5.388   6.202  12.461  0.0862  1.6771  0.1003
18186TIP3   OH276048   6.582   6.004   2.915 -0.7018  0.1936  0.3582
18186TIP3    H176049   6.487   5.988   2.907 -0.5450 -0.4650 -0.3513
18186TIP3    H276050   6.605   5.963   2.998 -0.8863 -0.4869  0.0862
18187TIP3   OH276051   4.483   1.085   5.236 -0.3036 -0.0924 -0.3967
18187TIP3    H176052   4.559   1.028   5.252 -0.8010 -0.5635  0.3176
18187TIP3    H276053   4.412   1.025   5.216 -1.0637  0.2115  1.2784
18188TIP3   OH276054   2.418   5.952   0.325  0.2428 -0.0314 -0.6262
18188TIP3    H176055   2.415   5.977   0.233 -0.5794  3.5833  0.2370
18188TIP3    H276056   2.511   5.956   0.348  0.7181 -2.8524 -1.6071
18189TIP3   OH276057   4.348   0.155  16.526  0.0080  0.2573 -0.1622
18189TIP3    H176058   4.286   0.182  16.459 -0.5479  0.2626  0.3427
18189TIP3    H276059   4.297   0.099  16.585 -0.1054  1.8988  1.4177
18190TIP3   OH276060   5.572   3.865  15.243  0.1546 -0.4253 -0.3316
18190TIP3    H176061   5.566   3.956  15.212 -2.1734 -0.2909  0.3413
18190TIP3    H276062   5.606   3.872  15.332  1.2578 -0.3607 -0.7365
18191TIP3   OH276063   3.099   0.054   5.985 -0.0230  0.4862  0.1482
18191TIP3    H176064   3.018   0.032   5.938 -0.2047  0.6387  0.3852
18191TIP3    H276065   3.071   0.115   6.053 -0.3575 -2.1617  2.6110
18192TIP3   OH276066   0.527   6.423   0.663  0.5708  0.2046 -0.0721
18192TIP3    H176067   0.474   6.474   0.602  0.1598  0.8363  0.7954
18192TIP3    H276068   0.475   6.344   0.679  0.2432  0.4712  0.1871
18193TIP3   OH276069   6.116   6.836  16.726 -0.1220  0.2335  0.1087
18193TIP3    H176070   6.128   6.855  16.633 -3.3517 -0.1033 -0.4951
18193TIP3    H276071   6.092   6.743  16.729 -2.0120  0.6947  0.9882
18194TIP3   OH276072   4.157   1.480   4.554  0.6809 -0.4319  0.1471
18194TIP3    H176073   4.107   1.400   4.562 -0.0405 -0.0936 -0.7780
18194TIP3    H276074   4.164   1.495   4.459  2.3623 -0.3659  0.2464
18195TIP3   OH276075   1.346   3.694   2.208 -0.6986  0.0525 -0.0221
18195TIP3    H176076   1.372   3.653   2.126 -0.0891  2.3151 -1.0614
18195TIP3    H276077   1.344   3.788   2.188 -1.6726  0.5924  2.2533
18196TIP3   OH276078   0.427   0.870   3.755 -0.0877  0.4234 -0.3619
18196TIP3    H176079   0.449   0.875   3.848  2.3465 -0.4186 -0.8145
18196TIP3    H276080   0.491   0.927   3.712  0.1667 -0.7835 -1.6680
18197TIP3   OH276081   5.954   2.632  13.720 -0.1305 -0.0747  0.2228
18197TIP3    H176082   6.044   2.640  13.752 -0.1768 -0.0520  0.3497
18197TIP3    H276083   5.935   2.538  13.727 -0.1574 -0.0633  0.3118
18198TIP3   OH276084   2.646   1.342   3.396 -0.4193 -0.2681 -0.1885
18198TIP3    H176085   2.671   1.309   3.310  0.3710  1.4413 -0.6662
18198TIP3    H276086   2.638   1.437   3.383 -2.8669 -0.2448  1.0106
18199TIP3   OH276087   1.111   5.939   1.575 -0.6033 -0.2349  0.2713
18199TIP3    H176088   1.191   5.945   1.627  0.3318 -1.9058 -0.8717
18199TIP3    H276089   1.051   6.001   1.616  1.6554  1.9990  0.4521
18200TIP3   OH276090   1.497   3.052   0.429  0.3385 -0.1034 -0.2355
18200TIP3    H176091   1.576   3.046   0.483 -0.3248  0.4463  0.8435
18200TIP3    H276092   1.519   3.006   0.348  1.6194 -0.3088  0.2082
18201TIP3   OH276093   4.759   2.342  17.110  0.7003  0.3403  0.1518
18201TIP3    H176094   4.777   2.430  17.144  0.4959  0.7900 -0.8809
18201TIP3    H276095   4.706   2.300  17.178  0.8917  0.9711  0.7001
18202TIP3   OH276096   0.291   0.161  13.591 -0.7254  0.3430  0.6775
18202TIP3    H176097   0.203   0.141  13.559 -0.8720  0.8247  0.7733
18202TIP3    H276098   0.316   0.240  13.543  0.2239 -0.5859 -0.3931
18203TIP3   OH276099   1.415   4.288   5.165  0.2692 -0.3633 -0.3672
18203TIP3    H176100   1.379   4.371   5.196  1.4803  0.7366 -1.8039
18203TIP3    H276101   1.342   4.226   5.171 -0.3470  0.4906  1.7971
18204TIP3   OH276102   3.778   1.006  15.943  0.0273 -0.8899 -0.0241
18204TIP3    H176103   3.733   0.978  15.864  1.1182  1.6063 -1.6440
18204TIP3    H276104   3.713   1.056  15.991 -0.0954 -0.7847 -0.3005
18205TIP3   OH276105   5.098   0.869   5.881  0.1288 -0.0436  0.7004
18205TIP3    H176106   5.020   0.875   5.937  1.0938 -0.9413  2.2195
18205TIP3    H276107   5.111   0.959   5.849 -0.2538  0.5981  2.2308
18206TIP3   OH276108   6.318   3.352   3.437  0.0460 -0.1243 -0.8791
18206TIP3    H176109   6.319   3.258   3.415 -2.2630 -0.4006 -0.1194
18206TIP3    H276110   6.254   3.390   3.376 -0.7032  0.5085  0.2640
18207TIP3   OH276111   2.039   6.146   5.965  0.7088 -0.3711 -0.6683
18207TIP3    H176112   2.078   6.191   5.890 -0.3679 -1.8320 -2.1904
18207TIP3    H276113   1.945   6.145   5.947  0.2192  0.6150  1.5210
18208TIP3   OH276114   3.257   5.730   6.339  0.1743 -1.1078 -0.0450
18208TIP3    H176115   3.292   5.686   6.417  0.3647  0.3241  0.7107
18208TIP3    H276116   3.327   5.724   6.274  1.8354  1.4305  1.3356
18209TIP3   OH276117   1.399   5.521   6.060  0.2264  0.1311 -0.2329
18209TIP3    H176118   1.421   5.539   6.151 -0.2012  0.4669 -0.1932
18209TIP3    H276119   1.309   5.552   6.051 -0.8409 -2.6419  0.0272
18210TIP3   OH276120   5.831   5.991   1.423 -0.2255  0.0402 -0.4189
18210TIP3    H176121   5.872   5.921   1.474  0.1263  0.1197 -0.5921
18210TIP3    H276122   5.780   6.040   1.488 -0.3462 -0.2798 -0.2699
18211TIP3   OH276123   4.178   3.074  16.496  0.1587  0.2603  0.6248
18211TIP3    H176124   4.164   2.987  16.534 -0.0961 -0.3251 -0.7484
18211TIP3    H276125   4.233   3.059  16.419 -2.1807  0.8709 -1.3081
18212TIP3   OH276126   6.803   5.411   1.099 -0.4960 -0.2482 -0.3496
18212TIP3    H176127   6.716   5.419   1.137 -0.6713  1.0476 -0.9928
18212TIP3    H276128   6.857   5.471   1.151 -0.2455 -0.1624 -0.7089
18213TIP3   OH276129   3.233   2.187  11.464  0.0225 -0.6004  0.2035
18213TIP3    H176130   3.250   2.193  11.370  1.9289 -0.0150  0.5454
18213TIP3    H276131   3.161   2.248  11.479  2.0266  2.0945 -0.3968
18214TIP3   OH276132   3.872   3.553  16.969 -0.0400 -0.2707 -0.0782
18214TIP3    H176133   3.855   3.481  17.031 -1.1173  1.5041  1.8413
18214TIP3    H276134   3.966   3.551  16.955 -0.0066 -1.8452  0.1766
18215TIP3   OH276135   3.403   6.252   1.375  0.2528  0.1732 -0.5687
18215TIP3    H176136   3.346   6.225   1.447  1.5269 -0.1615  0.3622
18215TIP3    H276137   3.374   6.340   1.353 -1.1112 -0.2769 -0.6544
18216TIP3   OH276138   1.830   3.077  16.448 -0.2814 -0.1396 -0.3023
18216TIP3    H176139   1.842   3.004  16.508  0.0673  0.0674 -0.1177
18216TIP3    H276140   1.827   3.037  16.361 -2.8880 -0.6762 -0.0457
18217TIP3   OH276141   1.202   6.750   0.824  0.7322 -0.2662 -0.5372
18217TIP3    H176142   1.155   6.673   0.792 -0.3561  0.5312 -0.9341
18217TIP3    H276143   1.208   6.807   0.748  0.0818  0.7219  0.1272
18218TIP3   OH276144   3.000   6.066   6.176 -0.2517  0.4453 -0.0145
18218TIP3    H176145   2.981   6.002   6.245  2.1286 -0.4550 -0.0778
18218TIP3    H276146   3.060   6.128   6.217  0.5078  0.3873 -0.9850
18219TIP3   OH276147   5.555   3.710   1.228 -0.8537 -0.0305  0.8829
18219TIP3    H176148   5.519   3.652   1.161 -1.2658  0.5276  0.6151
18219TIP3    H276149   5.545   3.661   1.310  0.1287 -0.9334  0.4868
18220TIP3   OH276150   2.156   3.377  17.041 -0.8204 -0.0709 -0.1053
18220TIP3    H176151   2.088   3.385  17.107  0.3209  1.1482  0.9866
18220TIP3    H276152   2.111   3.342  16.964 -2.5463  0.1944  0.7364
18221TIP3   OH276153   2.372   2.373  12.634 -0.0501  0.3787 -0.1319
18221TIP3    H176154   2.356   2.302  12.571  0.9172  0.7119 -0.7830
18221TIP3    H276155   2.413   2.442  12.581 -0.7108  1.3171  0.5487
18222TIP3   OH276156   3.061   0.345  16.812 -0.4772  0.8352  0.0563
18222TIP3    H176157   3.062   0.283  16.884 -0.0395 -0.3823 -0.9634
18222TIP3    H276158   2.970   0.343  16.780 -0.0761 -0.6742 -1.1002
18223TIP3   OH276159   1.547   6.187  15.749  0.0513 -0.0805 -0.6676
18223TIP3    H176160   1.470   6.234  15.717 -0.0010  1.6057  1.6233
18223TIP3    H276161   1.616   6.253  15.752  0.2071 -0.2502  1.8569
18224TIP3   OH276162   3.913   6.794   1.377  0.0979 -0.4952  0.6674
18224TIP3    H176163   3.827   6.821   1.345  0.2953 -0.9778 -0.2792
18224TIP3    H276164   3.949   6.873   1.417  0.6040  0.7021 -1.9364
18225TIP3   OH276165   0.249   3.854  11.211  0.0238  0.3063 -0.1581
18225TIP3    H176166   0.198   3.923  11.169 -0.8372  0.5179  1.1749
18225TIP3    H276167   0.193   3.822  11.282  1.9230  0.9168  1.7251
18226TIP3   OH276168   4.202   5.530   3.594  0.0672  0.2232 -0.2360
18226TIP3    H176169   4.228   5.617   3.564 -0.8550  0.5397 -0.1772
18226TIP3    H276170   4.154   5.546   3.675  0.3497 -0.3924  0.0576
18227TIP3   OH276171   0.638   5.370   4.685  0.1033 -0.1069  0.1634
18227TIP3    H176172   0.598   5.350   4.600  1.4312 -0.1766 -0.4768
18227TIP3    H276173   0.599   5.307   4.745 -0.8707 -0.0454 -0.3787
18228TIP3   OH276174   5.542   6.642  13.792  0.1586  0.5806 -0.1319
18228TIP3    H176175   5.620   6.696  13.802  0.9332 -0.2417 -1.3273
18228TIP3    H276176   5.572   6.567  13.739 -0.3071 -2.1196  3.0702
18229TIP3   OH276177   6.537   4.691  14.674  0.0380  0.2625 -0.5480
18229TIP3    H176178   6.468   4.746  14.637  1.3017  1.4076 -1.3103
18229TIP3    H276179   6.599   4.680  14.602  2.0580  1.6745  0.8532
18230TIP3   OH276180   0.762   2.037   3.148  0.0974 -0.1631  0.1015
18230TIP3    H176181   0.839   2.032   3.091  2.4453  0.4604  3.0265
18230TIP3    H276182   0.745   1.946   3.174  0.3200 -0.2138  0.0669
18231TIP3   OH276183   2.275   1.260   2.265 -0.0071  0.0642 -0.4529
18231TIP3    H176184   2.223   1.187   2.231 -2.5618  0.8422  1.4194
18231TIP3    H276185   2.313   1.226   2.347 -0.2757  0.4645 -0.1562
18232TIP3   OH276186   5.203   3.918   1.433  0.2669 -0.5733  0.4155
18232TIP3    H176187   5.215   3.992   1.492  1.2670  0.3477 -0.8757
18232TIP3    H276188   5.274   3.858   1.456  0.5918 -0.2624  0.2448
18233TIP3   OH276189   6.768   2.051  13.021  0.5286  0.3110 -0.1752
18233TIP3    H176190   6.763   2.123  12.959 -0.2907 -1.1231 -1.8569
18233TIP3    H276191   6.718   2.082  13.097  0.9329  1.8231 -0.4947
18234TIP3   OH276192   3.461   4.553  14.555  0.0915  0.6985  0.4690
18234TIP3    H176193   3.387   4.561  14.615 -1.2489 -0.1693 -1.0045
18234TIP3    H276194   3.482   4.644  14.531 -1.1246  0.9188  0.1877
18235TIP3   OH276195   0.154   4.348  12.218  0.3300  0.0528 -0.2498
18235TIP3    H176196   0.220   4.404  12.179  0.1310  0.1889 -0.3945
18235TIP3    H276197   0.195   4.262  12.224  0.9585  0.4139  0.8222
18236TIP3   OH276198   4.139   5.274   3.486  0.2567  0.4634  0.5055
18236TIP3    H176199   4.155   5.304   3.396  0.0630 -0.0122  0.3105
18236TIP3    H276200   4.181   5.341   3.541  1.1661  0.2863  0.0425
18237TIP3   OH276201   6.281   3.113   1.324  0.2518 -0.1210 -0.4848
18237TIP3    H176202   6.205   3.089   1.376  0.1849 -1.7244 -1.2843
18237TIP3    H276203   6.275   3.209   1.317  0.2530  0.1963  2.3681
18238TIP3   OH276204   4.071   1.949   1.901 -0.2495  0.2891  0.4833
18238TIP3    H176205   4.101   2.002   1.975  2.2635  0.3997 -0.5166
18238TIP3    H276206   4.005   2.003   1.859  2.5041  3.0114 -0.7357
18239TIP3   OH276207   1.764   5.851   1.069  0.0245 -0.3846  0.1305
18239TIP3    H176208   1.728   5.837   0.981 -1.1853  2.8084 -0.0337
18239TIP3    H276209   1.704   5.805   1.127 -0.1280 -1.1374 -0.6097
18240TIP3   OH276210   3.487   5.982   3.565 -0.4875 -0.3217 -0.4264
18240TIP3    H176211   3.554   5.966   3.498  1.3073 -1.6073  1.5672
18240TIP3    H276212   3.478   5.899   3.610 -0.6153  0.8607  1.8438
18241TIP3   OH276213   0.122   3.430  13.487 -0.3927  0.6743 -1.0574
18241TIP3    H176214   0.089   3.395  13.570 -2.2656 -1.7711 -2.7063
18241TIP3    H276215   0.217   3.434  13.500 -0.5570 -0.3085  0.9666
18242TIP3   OH276216   1.699   1.293   4.218 -0.1746 -0.5564 -0.1109
18242TIP3    H176217   1.792   1.277   4.235  0.0282 -1.9588 -2.0984
18242TIP3    H276218   1.661   1.206   4.210 -1.2468 -0.0171 -1.2305
18243TIP3   OH276219   2.884   3.085   1.921  0.0258  0.3933 -0.3824
18243TIP3    H176220   2.954   3.024   1.898 -0.5066 -0.8601  1.1481
18243TIP3    H276221   2.882   3.148   1.848  3.5274  1.2460  0.0629
18244TIP3   OH276222   2.858   4.390  16.529 -0.2646  0.3107  0.3855
18244TIP3    H176223   2.880   4.459  16.593  1.5367 -0.4984  0.7256
18244TIP3    H276224   2.903   4.312  16.563 -1.4528 -0.7915 -0.5080
18245TIP3   OH276225   0.302   4.894  16.724 -0.2439 -0.3014 -0.0450
18245TIP3    H176226   0.383   4.861  16.761  1.0868  2.6138 -0.1620
18245TIP3    H276227   0.303   4.863  16.633 -0.4898 -2.2285  0.5546
18246TIP3   OH276228   3.160   1.186   0.766 -0.2982 -0.2667 -0.3921
18246TIP3    H176229   3.119   1.247   0.827 -0.8650  0.1856 -1.2033
18246TIP3    H276230   3.110   1.104   0.777  0.4381 -0.5896  0.6654
18247TIP3   OH276231   0.633   1.062  12.739  0.2568 -0.2691  0.1594
18247TIP3    H176232   0.657   1.155  12.746  1.7420 -0.5623 -0.5005
18247TIP3    H276233   0.613   1.035  12.828  0.1075  0.6073  0.4016
18248TIP3   OH276234   0.827   0.242  11.643  0.0434 -0.0279 -0.7705
18248TIP3    H176235   0.841   0.152  11.671  0.4415  0.3636  0.3549
18248TIP3    H276236   0.734   0.257  11.658  0.1993  0.0943  0.1678
18249TIP3   OH276237   2.862   3.213  11.138 -0.3299 -0.2939 -0.3904
18249TIP3    H176238   2.871   3.275  11.210  2.4154 -1.0292  0.0273
18249TIP3    H276239   2.859   3.268  11.059  0.6506  0.4221  0.0570
18250TIP3   OH276240   2.198   5.219   0.898  0.1911  0.6817  0.2016
18250TIP3    H176241   2.170   5.223   0.990  0.0602 -0.9645  0.2718
18250TIP3    H276242   2.147   5.147   0.861 -0.1724  1.6993 -1.3384
18251TIP3   OH276243   1.396   2.592  15.571  0.1494 -0.0899 -0.5600
18251TIP3    H176244   1.342   2.589  15.492 -0.1741 -0.0368 -0.3434
18251TIP3    H276245   1.340   2.633  15.636 -1.2908 -4.0757  1.0081
18252TIP3   OH276246   4.734   3.602   4.513 -0.0936  0.2939  0.0505
18252TIP3    H176247   4.758   3.686   4.473 -0.6000  0.4664  0.1052
18252TIP3    H276248   4.785   3.537   4.465 -1.7853  0.3331 -1.9003
18253TIP3   OH276249   6.398   6.759   4.577 -0.3344 -0.4738  0.4457
18253TIP3    H176250   6.315   6.805   4.590  0.3845  1.0783 -0.2116
18253TIP3    H276251   6.409   6.757   4.482 -0.7579 -2.8443  0.3933
18254TIP3   OH276252   5.313   0.243  10.808  0.1011  0.0824  0.5878
18254TIP3    H176253   5.252   0.295  10.756 -3.3347 -4.6573 -0.8293
18254TIP3    H276254   5.304   0.276  10.897 -2.9321  1.0678  0.0308
18255TIP3   OH276255   4.275   2.669   4.677 -0.3650 -0.5911 -0.3577
18255TIP3    H176256   4.248   2.593   4.728 -0.9185  0.1100  0.4340
18255TIP3    H276257   4.277   2.638   4.586 -0.0595 -1.6725  0.0102
18256TIP3   OH276258   3.750   5.152  12.635 -0.4725 -0.1034  0.6318
18256TIP3    H176259   3.682   5.093  12.600 -0.8198 -0.1075  1.2859
18256TIP3    H276260   3.804   5.095  12.691  0.1912 -0.1376 -0.0304
18257TIP3   OH276261   2.019   0.635   4.436  0.1447 -0.1078  1.0635
18257TIP3    H176262   2.028   0.697   4.364 -3.1677  1.1146  1.5045
18257TIP3    H276263   1.967   0.563   4.400  0.9623 -0.9413  1.5014
18258TIP3   OH276264   2.843   0.484  11.637 -0.1691 -0.2731 -0.4199
18258TIP3    H176265   2.854   0.492  11.542  0.9081  0.0700 -0.2790
18258TIP3    H276266   2.767   0.426  11.648 -0.7119  0.2237 -1.4816
18259TIP3   OH276267   0.330   1.695   1.550  0.1754  0.0123  0.9661
18259TIP3    H176268   0.349   1.788   1.567  1.8336  0.1944 -1.3903
18259TIP3    H276269   0.234   1.689   1.556  0.0006  1.9496  0.9249
18260TIP3   OH276270   0.653   5.214   0.960 -0.1358  0.3448 -0.3904
18260TIP3    H176271   0.575   5.254   0.999  0.5992  0.5539  0.9316
18260TIP3    H276272   0.621   5.133   0.921 -0.9521  0.2025  0.5257
18261TIP3   OH276273   0.324   5.271   0.485  0.1480 -0.0058  0.2851
18261TIP3    H176274   0.390   5.326   0.527  0.9671 -0.3417 -0.5248
18261TIP3    H276275   0.358   5.181   0.495  0.0865 -0.1360 -0.5857
18262TIP3   OH276276   4.954   1.537  14.484  0.3396  0.7139 -0.2108
18262TIP3    H176277   5.038   1.492  14.491  0.2518  0.7070  1.0069
18262TIP3    H276278   4.932   1.561  14.574 -0.6225  1.3480 -0.5958
18263TIP3   OH276279   3.932   0.305  16.119 -0.2003  0.2060 -0.0260
18263TIP3    H176280   3.960   0.320  16.029 -1.7137 -1.0973 -0.7718
18263TIP3    H276281   3.896   0.389  16.147  1.3069  0.9448 -0.1964
18264TIP3   OH276282   6.019   3.108  14.445  0.1709 -0.0370 -0.5491
18264TIP3    H176283   5.973   3.179  14.490  0.7611  1.2784 -1.9511
18264TIP3    H276284   5.950   3.046  14.422 -0.0781 -1.3172  2.9491
18265TIP3   OH276285   5.709   5.444   0.245  0.3180 -0.3567 -0.2140
18265TIP3    H176286   5.660   5.517   0.283 -0.9999 -0.5468 -1.4571
18265TIP3    H276287   5.767   5.416   0.315  0.4749  1.5257  0.4788
18266TIP3   OH276288   3.696   2.822   5.591  0.1264  0.3344 -0.4704
18266TIP3    H176289   3.602   2.838   5.597  0.1194 -0.1147  1.0803
18266TIP3    H276290   3.715   2.827   5.497 -0.9316  3.1868 -0.6494
18267TIP3   OH276291   0.007   1.271   4.523 -0.0714 -0.4046 -0.9651
18267TIP3    H176292  -0.036   1.231   4.448  0.4553 -1.7201 -0.5928
18267TIP3    H276293  -0.058   1.332   4.558 -1.1218 -1.3256 -1.2444
18268TIP3   OH276294   5.718   2.289   2.170 -0.0592  0.4373 -0.0715
18268TIP3    H176295   5.687   2.379   2.182 -0.8040 -0.0849  2.7892
18268TIP3    H276296   5.640   2.239   2.146  0.2601  0.4392 -1.1732
18269TIP3   OH276297   3.542   3.793  10.845 -0.4101  0.2109 -0.1037
18269TIP3    H176298   3.581   3.712  10.814  1.0940  1.8215 -2.7981
18269TIP3    H276299   3.616   3.846  10.874 -1.2526  1.0766  0.5331
18270TIP3   OH276300   6.176   1.732  13.226 -0.3836 -0.2509 -0.5136
18270TIP3    H176301   6.262   1.736  13.185 -0.1414  1.3435  0.0985
18270TIP3    H276302   6.187   1.673  13.300 -0.0184 -0.6434 -0.8780
18271TIP3   OH276303   5.703   1.703  11.809  0.2599  0.2187 -0.1621
18271TIP3    H176304   5.672   1.681  11.721 -0.7539  1.6325 -0.2026
18271TIP3    H276305   5.777   1.762  11.794 -0.2916  0.9514 -0.1065
18272TIP3   OH276306   6.340   5.324   2.528 -0.3930 -0.3608  0.6110
18272TIP3    H176307   6.358   5.388   2.596  0.3501 -0.4256  0.4810
18272TIP3    H276308   6.294   5.253   2.573  0.5945 -0.6633  1.1752
18273TIP3   OH276309   6.182   4.697   3.183  0.1192  0.2999 -0.2113
18273TIP3    H176310   6.161   4.699   3.276  0.2168 -1.2422 -0.1303
18273TIP3    H276311   6.228   4.614   3.170 -1.4606 -0.3736 -1.9488
18274TIP3   OH276312   3.041   3.500  12.056 -0.7026  0.3391  0.3387
18274TIP3    H176313   2.982   3.545  12.117 -2.0162 -0.5337 -0.2360
18274TIP3    H276314   2.982   3.452  11.997  0.5504 -3.5207  1.9067
18275TIP3   OH276315   2.415   3.113   0.981  0.0405  0.0770  0.3832
18275TIP3    H176316   2.394   3.183   0.918  2.5139 -0.4862 -1.1929
18275TIP3    H276317   2.362   3.039   0.952 -0.0584  0.3102 -0.0555
18276TIP3   OH276318   6.304   2.348   1.562  0.6074 -0.2932  0.2068
18276TIP3    H176319   6.302   2.309   1.649 -0.6569  4.2875  2.4873
18276TIP3    H276320   6.397   2.358   1.543  0.8987 -1.3497  0.9629
18277TIP3   OH276321   4.407   5.507  10.965  0.2084  0.4553  0.0948
18277TIP3    H176322   4.398   5.545  11.052 -0.3706  2.7643 -0.9018
18277TIP3    H276323   4.489   5.543  10.931  0.7636 -0.9291 -0.1190
18278TIP3   OH276324   4.728   3.181  16.770 -0.3835 -0.2582  0.1539
18278TIP3    H176325   4.642   3.213  16.741  0.7264  0.6226 -2.3663
18278TIP3    H276326   4.772   3.259  16.805  0.6158  0.0844 -1.7491
18279TIP3   OH276327   4.404   1.829  11.482  0.1323 -0.1249  0.2822
18279TIP3    H176328   4.372   1.899  11.426  0.5411  0.2568  0.5166
18279TIP3    H276329   4.368   1.849  11.569  0.0265 -0.3543  0.2919
18280TIP3   OH276330   2.774   1.891  14.018  0.7976 -0.2157 -0.0376
18280TIP3    H176331   2.795   1.983  14.004  2.4387 -0.7500 -1.3442
18280TIP3    H276332   2.821   1.844  13.949  0.0900 -2.0585  0.6556
18281TIP3   OH276333   0.918   5.178  16.170 -0.6256  0.3196 -0.4181
18281TIP3    H176334   0.951   5.268  16.181 -0.6571  0.1028  2.0134
18281TIP3    H276335   0.942   5.155  16.081  0.9461  2.1363 -0.5479
18282TIP3   OH276336   3.306   6.652   2.169 -0.1763  0.2144 -0.2920
18282TIP3    H176337   3.383   6.668   2.223 -0.7899  0.8883  0.4176
18282TIP3    H276338   3.261   6.737   2.166  0.5871  0.6417 -3.1365
18283TIP3   OH276339   3.946   5.392  13.595  0.2105 -1.2455  0.6142
18283TIP3    H176340   3.998   5.471  13.613 -1.9023 -0.3984  3.8740
18283TIP3    H276341   3.965   5.334  13.668 -2.9773 -1.0435  1.7593
18284TIP3   OH276342   1.486   4.239  11.301  0.3041  0.2845 -0.0972
18284TIP3    H176343   1.559   4.301  11.304  1.2370 -0.7044 -1.1614
18284TIP3    H276344   1.523   4.161  11.259 -1.9106  0.5396 -2.7883
18285TIP3   OH276345   0.119   1.888  12.925  0.3483  0.0661  0.8343
18285TIP3    H176346   0.060   1.947  12.973  0.9652 -1.0785  3.1495
18285TIP3    H276347   0.192   1.944  12.898  0.9460  0.4510  3.0144
18286TIP3   OH276348   0.403   4.627   0.774 -0.0602 -0.4008  0.1349
18286TIP3    H176349   0.379   4.717   0.795  1.7997  0.3882 -0.9004
18286TIP3    H276350   0.480   4.635   0.718 -0.8286 -2.5903 -1.3706
18287TIP3   OH276351   2.978   5.520   2.716  0.1927 -0.3193  0.2385
18287TIP3    H176352   3.000   5.427   2.712  0.0952 -0.3448  0.2726
18287TIP3    H276353   3.032   5.561   2.648  0.5095 -0.3436  0.4738
18288TIP3   OH276354   4.932   4.491  16.481 -0.0604 -0.3428 -0.3331
18288TIP3    H176355   4.950   4.545  16.557 -1.2042 -1.4991  0.8129
18288TIP3    H276356   4.943   4.549  16.406 -2.6383  1.9241  0.8760
18289TIP3   OH276357   2.974   2.535   0.244 -0.3113  0.0460  0.1024
18289TIP3    H176358   3.009   2.450   0.217 -0.2530  0.3976 -0.9982
18289TIP3    H276359   3.032   2.599   0.202 -0.7477  0.6299  0.3720
18290TIP3   OH276360   6.725   5.726  16.213  0.4648 -0.1362  0.2424
18290TIP3    H176361   6.700   5.815  16.188 -1.0942 -1.2681 -2.6805
18290TIP3    H276362   6.721   5.726  16.308 -1.4730  2.4010  0.2734
18291TIP3   OH276363   6.256   5.694   1.336 -0.3663 -0.5148  0.1461
18291TIP3    H176364   6.247   5.658   1.248  1.3436  0.9271 -0.6964
18291TIP3    H276365   6.349   5.684   1.357 -0.4234  0.6671  1.0845
18292TIP3   OH276366   2.587   6.491  13.107  0.1023 -0.2923 -0.6222
18292TIP3    H176367   2.513   6.513  13.164 -0.3179 -0.8884 -0.9218
18292TIP3    H276368   2.665   6.516  13.157 -0.2908 -0.0189 -0.1417
18293TIP3   OH276369   4.596   4.546  16.412 -0.4889  0.3799 -0.0726
18293TIP3    H176370   4.614   4.521  16.503  0.9619  0.1582 -0.3990
18293TIP3    H276371   4.583   4.641  16.416  0.8484  0.5827  0.2192
18294TIP3   OH276372   3.061   3.637  16.661 -0.5079 -0.2253  0.3500
18294TIP3    H176373   3.083   3.566  16.601 -1.6541  1.9276 -2.8777
18294TIP3    H276374   3.010   3.595  16.729 -1.3577 -2.5019 -1.5429
18295TIP3   OH276375   3.292   3.419   2.577  0.8345 -0.3049  0.3592
18295TIP3    H176376   3.338   3.470   2.644  0.7095  0.0866  0.1537
18295TIP3    H276377   3.354   3.416   2.504  1.2933 -1.4151  0.7739
18296TIP3   OH276378   4.604   3.869  16.562  0.2145 -0.0900 -0.1144
18296TIP3    H176379   4.699   3.872  16.550  0.4520 -1.2990  1.1933
18296TIP3    H276380   4.575   3.799  16.502  0.3730 -0.7989  0.6212
18297TIP3   OH276381   6.703   2.488  11.121 -0.5998  0.5795 -0.0098
18297TIP3    H176382   6.618   2.523  11.147 -0.8555 -0.9934  1.4367
18297TIP3    H276383   6.766   2.535  11.177 -0.7024  0.4824  0.1890
18298TIP3   OH276384   6.253   6.298  13.935  0.3535  0.1498  0.4545
18298TIP3    H176385   6.208   6.350  13.869 -0.4853 -3.1321 -1.8374
18298TIP3    H276386   6.344   6.293  13.904  0.0374 -1.1019 -0.3542
18299TIP3   OH276387   0.784   4.331   2.564  0.2217 -0.2613 -0.5323
18299TIP3    H176388   0.859   4.290   2.520  0.4476 -0.7211  0.2666
18299TIP3    H276389   0.787   4.423   2.535  1.8095  0.0222  0.3924
18300TIP3   OH276390   5.090   4.875  16.203 -0.4023  0.5041 -0.3976
18300TIP3    H176391   5.097   4.781  16.223  0.2111  0.7611  0.6871
18300TIP3    H276392   5.095   4.918  16.288 -0.2739  1.5448 -0.9150
18301TIP3   OH276393   5.177   6.606   2.019 -0.5036  0.2326  0.1170
18301TIP3    H176394   5.214   6.676   1.965 -2.2049  1.4724  0.4911
18301TIP3    H276395   5.110   6.648   2.071 -0.5633 -1.4179  1.4699
18302TIP3   OH276396   1.091   0.024  15.719 -0.4248  0.1651 -0.3410
18302TIP3    H176397   1.006   0.059  15.747 -0.3526 -0.1475  0.3038
18302TIP3    H276398   1.113  -0.040  15.787 -0.4175 -0.9130 -1.3260
18303TIP3   OH276399   1.103   0.271  13.727  0.6703 -0.3067 -0.4493
18303TIP3    H176400   1.072   0.336  13.790  1.1018 -0.9694  0.4616
18303TIP3    H276401   1.184   0.238  13.765  1.2210 -0.3318 -1.6195
18304TIP3   OH276402   5.603   6.271  15.101 -0.4883  0.2352 -0.1385
18304TIP3    H176403   5.513   6.252  15.073 -0.4226 -0.7112  0.2559
18304TIP3    H276404   5.655   6.265  15.022 -0.5305 -0.8788 -0.0871
18305TIP3   OH276405   5.912   0.170  13.047 -0.2996  0.3981 -0.2364
18305TIP3    H176406   5.912   0.103  12.979  0.3797  0.0825  0.0756
18305TIP3    H276407   5.836   0.225  13.025 -0.2107  0.1850 -1.1325
18306TIP3   OH276408   4.477   4.166  11.398  0.4392 -0.0142 -0.4636
18306TIP3    H176409   4.482   4.183  11.304  0.7276  0.2258 -0.4057
18306TIP3    H276410   4.526   4.238  11.438 -0.8147  0.6448 -0.0517
18307TIP3   OH276411   6.025   3.177  14.040 -0.6786 -0.2812 -0.0376
18307TIP3    H176412   5.963   3.218  14.100 -1.9560 -2.7045  0.4012
18307TIP3    H276413   6.014   3.225  13.957 -0.7027  1.4506  0.9257
18308TIP3   OH276414   2.404   1.562  17.095 -0.1330  0.1407  0.5112
18308TIP3    H176415   2.330   1.614  17.061 -0.8495 -1.2956 -0.2065
18308TIP3    H276416   2.373   1.529  17.180 -0.2439 -0.2997  0.3008
18309TIP3   OH276417   6.161   4.413   3.298  0.2167  0.0674  0.1261
18309TIP3    H176418   6.210   4.446   3.374 -0.2750  0.2946  0.3481
18309TIP3    H276419   6.133   4.325   3.325  0.8667 -0.2406 -0.1698
18310TIP3   OH276420   4.968   2.677   2.039  0.1916 -0.1096 -0.1423
18310TIP3    H176421   4.921   2.745   1.990  1.0840  0.0274 -0.8434
18310TIP3    H276422   5.049   2.719   2.067  0.6921 -0.8382 -0.4637
18311TIP3   OH276423   2.158   2.974   6.403  0.3622  0.0086 -0.2189
18311TIP3    H176424   2.248   3.007   6.396  0.1550  0.5524 -0.3359
18311TIP3    H276425   2.168   2.887   6.443  0.8588  0.5095  0.8014
18312TIP3   OH276426   0.554   4.832  11.009  0.0468 -0.3617 -0.1601
18312TIP3    H176427   0.638   4.865  10.977  0.0171 -0.0580  0.0655
18312TIP3    H276428   0.506   4.809  10.930 -0.1983  0.8097 -0.3821
18313TIP3   OH276429   1.777   3.556  14.119  0.4503 -0.4444 -0.1870
18313TIP3    H176430   1.751   3.623  14.182  3.9358 -0.6521  1.6968
18313TIP3    H276431   1.722   3.481  14.139  0.1810  0.1339  1.3531
18314TIP3   OH276432   3.190   4.003   2.711 -0.4132  0.1270 -0.4683
18314TIP3    H176433   3.117   4.023   2.653 -2.7630 -1.1974  1.8627
18314TIP3    H276434   3.177   3.912   2.736 -0.0978  0.8457  2.8099
18315TIP3   OH276435   3.786   5.882   4.958 -0.8130  0.2431  0.1275
18315TIP3    H176436   3.717   5.816   4.953  0.7194 -1.9402  3.7423
18315TIP3    H276437   3.762   5.937   5.032  0.1692  0.9347 -0.0377
18316TIP3   OH276438   2.765   4.761  14.255 -0.2019 -0.4261 -0.1340
18316TIP3    H176439   2.750   4.855  14.262 -0.2870 -0.4974  0.7255
18316TIP3    H276440   2.715   4.734  14.178  1.5844  0.5907 -1.7086
18317TIP3   OH276441   3.733   0.170   5.513 -0.8281 -0.2988 -0.7718
18317TIP3    H176442   3.674   0.095   5.517 -0.6467 -0.4332 -0.6036
18317TIP3    H276443   3.692   0.230   5.450 -2.2278  0.5109  0.8089
18318TIP3   OH276444   3.320   4.539  16.391 -0.2744  0.3197  0.0967
18318TIP3    H176445   3.269   4.611  16.355  0.4328  1.0757  0.5537
18318TIP3    H276446   3.390   4.525  16.327  0.2188  0.7852  0.5158
18319TIP3   OH276447   4.983   5.642   3.368  0.0179 -0.1608  0.4599
18319TIP3    H176448   5.021   5.643   3.456  0.8387 -0.9422  0.1258
18319TIP3    H276449   5.057   5.657   3.310 -0.7204  1.6780 -0.0558
18320TIP3   OH276450   1.992   4.846   1.693  0.1264  0.0137  0.4330
18320TIP3    H176451   1.944   4.766   1.714 -0.9680  0.7970  1.0068
18320TIP3    H276452   1.943   4.916   1.737 -0.9202  1.4596 -2.7419
18321TIP3   OH276453   4.651   4.871  17.093  0.1490 -0.1683 -0.1438
18321TIP3    H176454   4.557   4.863  17.077  0.1210 -0.3586  0.1034
18321TIP3    H276455   4.688   4.892  17.007  0.0390 -1.4266 -0.5158
18322TIP3   OH276456   6.293   5.575  16.463  0.0282  0.4159 -0.0258
18322TIP3    H176457   6.333   5.507  16.517  0.8435  0.3431 -0.7064
18322TIP3    H276458   6.309   5.547  16.373  0.5914  1.6377 -0.3255
18323TIP3   OH276459   0.269   0.862   1.567 -0.7096  0.2318 -0.1093
18323TIP3    H176460   0.290   0.820   1.484 -0.5926 -0.6285  0.3329
18323TIP3    H276461   0.277   0.791   1.632 -0.5352  0.9410  0.6645
18324TIP3   OH276462   6.329   5.864  15.273 -0.3156 -0.4112 -0.4489
18324TIP3    H176463   6.407   5.899  15.317 -1.4112 -0.1566  1.3976
18324TIP3    H276464   6.256   5.887  15.332 -1.4334 -3.3492 -0.5415
18325TIP3   OH276465   1.455   4.610   3.075  0.1547  0.2820  0.4914
18325TIP3    H176466   1.407   4.623   3.156  0.2289  0.1257  0.5617
18325TIP3    H276467   1.388   4.588   3.010  0.2383 -1.1333  0.8558
18326TIP3   OH276468   3.341   1.109   1.050  0.2048 -0.3410 -0.3990
18326TIP3    H176469   3.395   1.079   1.124 -0.7267  1.5204  1.1472
18326TIP3    H276470   3.389   1.183   1.014 -0.4900  0.3068 -0.0405
18327TIP3   OH276471   5.602   0.835  13.571  0.2986  0.1545 -0.4923
18327TIP3    H176472   5.521   0.886  13.574 -0.1041 -0.5130  0.9904
18327TIP3    H276473   5.580   0.753  13.615  2.2838  0.7593  1.8664
18328TIP3   OH276474   2.120   1.567   3.624 -0.3112 -0.0493  0.1215
18328TIP3    H176475   2.036   1.526   3.646 -0.6654 -1.2285 -2.8561
18328TIP3    H276476   2.096   1.653   3.589 -0.2958 -0.3347 -0.6074
18329TIP3   OH276477   3.463   2.845  10.884  0.0343 -0.5326 -0.1623
18329TIP3    H176478   3.454   2.922  10.939 -2.0748 -0.9800  0.2038
18329TIP3    H276479   3.406   2.862  10.809 -1.3282 -2.1651  0.4603
18330TIP3   OH276480   4.350   5.541   2.013 -0.2981 -0.6895 -0.8092
18330TIP3    H176481   4.292   5.613   2.037  1.1740  0.0033  0.8288
18330TIP3    H276482   4.316   5.466   2.062 -0.5716 -0.5926 -0.8495
18331TIP3   OH276483   6.770   1.242   6.521  0.0076  0.0672  0.0566
18331TIP3    H176484   6.701   1.298   6.486 -1.1150 -0.8056  0.7882
18331TIP3    H276485   6.804   1.291   6.596 -1.0818 -0.2541  0.7939
18332TIP3   OH276486   3.716   0.274   0.378  0.6452 -0.3510  0.8204
18332TIP3    H176487   3.691   0.182   0.372  1.1213 -0.4875  0.8529
18332TIP3    H276488   3.812   0.273   0.373  0.6251  0.1984  0.1652
18333TIP3   OH276489   3.370   3.113   3.365 -1.3908 -1.0734 -0.5535
18333TIP3    H176490   3.403   3.024   3.375 -0.4879 -0.6895 -0.0555
18333TIP3    H276491   3.285   3.112   3.409 -1.4439 -1.7171 -0.6650
18334TIP3   OH276492   6.837   5.721  10.662 -0.3066  0.1161  0.3637
18334TIP3    H176493   6.816   5.814  10.662  1.6035  0.5736  0.1111
18334TIP3    H276494   6.894   5.709  10.586  1.8342 -0.6718  1.9968
18335TIP3   OH276495   3.088   1.363   0.357  0.6088  0.1709  0.4931
18335TIP3    H176496   3.016   1.304   0.335  1.9162 -1.4510  0.3536
18335TIP3    H276497   3.145   1.312   0.414  1.8209  1.2937  0.3520
18336TIP3   OH276498   4.316   4.445  15.689  0.0735  0.6398  0.0461
18336TIP3    H176499   4.284   4.383  15.624 -2.0087 -0.8869  2.3278
18336TIP3    H276500   4.401   4.410  15.716 -0.0764  0.0210 -0.2695
18337TIP3   OH276501   1.052   3.267   1.583  0.2797  0.3758 -0.4095
18337TIP3    H176502   1.051   3.359   1.611  0.4381  0.0591  0.6971
18337TIP3    H276503   0.996   3.265   1.505  1.7118  1.7181 -1.5342
18338TIP3   OH276504   1.259   3.000   0.908  0.6614  0.1517 -0.4015
18338TIP3    H176505   1.347   3.035   0.895  1.0814  0.7074  3.0846
18338TIP3    H276506   1.202   3.077   0.902  0.9200  0.5109  1.4129
18339TIP3   OH276507   4.017   4.826   2.975 -0.0429  0.9480  0.7555
18339TIP3    H176508   4.112   4.840   2.975  0.0321  0.6947 -1.1050
18339TIP3    H276509   3.991   4.840   2.885 -1.2361 -2.4055  0.4522
18340TIP3   OH276510   3.240   3.547  15.930 -0.5143 -0.6515 -0.2431
18340TIP3    H176511   3.328   3.564  15.963  0.0022  0.4663 -2.0522
18340TIP3    H276512   3.215   3.628  15.886 -2.2173 -1.1589 -0.2744
18341TIP3   OH276513   4.355   1.718   4.769  0.1414 -0.1619  0.1663
18341TIP3    H176514   4.316   1.767   4.696  0.5063 -0.2793 -0.1062
18341TIP3    H276515   4.421   1.662   4.729 -0.9227 -1.6080  0.3452
18342TIP3   OH276516   4.091   3.760   1.348  0.0039 -0.1049 -0.2085
18342TIP3    H176517   4.012   3.715   1.318  0.1832 -1.6468  1.4169
18342TIP3    H276518   4.159   3.733   1.286 -0.2410 -0.8125 -0.1859
18343TIP3   OH276519   1.494   2.132  16.926  0.2610 -0.3749  0.1282
18343TIP3    H176520   1.482   2.048  16.971 -0.5680  0.6694  1.9908
18343TIP3    H276521   1.583   2.158  16.947  0.4000 -0.6215 -0.1542
18344TIP3   OH276522   2.549   2.711   6.083 -0.3374 -0.1424 -0.3452
18344TIP3    H176523   2.521   2.715   6.175 -1.7997 -0.1543 -0.7607
18344TIP3    H276524   2.530   2.798   6.049  3.7061  1.1906  0.2369
18345TIP3   OH276525   3.537   3.819  16.259 -0.1448 -0.4690 -0.2349
18345TIP3    H176526   3.503   3.893  16.310  1.1155  0.6755 -0.9744
18345TIP3    H276527   3.468   3.753  16.264 -0.4871 -0.0543  2.1399
18346TIP3   OH276528   1.803   6.070  13.362 -0.2820 -0.2322 -0.0229
18346TIP3    H176529   1.867   6.098  13.427  1.2455 -1.3325 -0.9895
18346TIP3    H276530   1.790   6.148  13.307  0.1059  0.0536  0.2792
18347TIP3   OH276531   3.844   4.020  13.372 -0.2326 -0.2831 -0.2664
18347TIP3    H176532   3.870   4.082  13.304  0.4312 -1.0262 -0.6988
18347TIP3    H276533   3.888   4.050  13.451  1.8494 -1.4003 -0.9375
18348TIP3   OH276534   1.375   4.264   1.070 -0.5428 -0.7875  0.0963
18348TIP3    H176535   1.369   4.266   1.166 -2.7261 -1.4334  0.0372
18348TIP3    H276536   1.288   4.292   1.040  0.4843  0.6611 -1.7496
18349TIP3   OH276537   3.912   0.669  14.523  0.3526  0.4157  0.6643
18349TIP3    H176538   3.833   0.723  14.517  0.8679  1.0539 -0.7703
18349TIP3    H276539   3.960   0.688  14.442  0.2496 -2.6786 -0.2484
18350TIP3   OH276540   0.232   3.698   0.568  0.8606 -0.7453 -0.3396
18350TIP3    H176541   0.312   3.660   0.533  1.1748 -0.6408  0.2491
18350TIP3    H276542   0.257   3.731   0.655 -0.3183 -2.6791  0.7923
18351TIP3   OH276543   1.249   6.333  13.027 -0.0615  0.0515 -0.5464
18351TIP3    H176544   1.267   6.410  13.080 -0.7603 -0.9245  1.1769
18351TIP3    H276545   1.171   6.356  12.976 -1.0444  0.0711  0.9165
18352TIP3   OH276546   1.351   2.342  13.815  0.3202  0.1376  0.3723
18352TIP3    H176547   1.403   2.265  13.839 -0.0301 -0.3838 -0.4782
18352TIP3    H276548   1.414   2.414  13.814  0.4887  0.0548  2.0393
18353TIP3   OH276549   4.357   0.577   3.574 -0.2437 -0.5401  0.1901
18353TIP3    H176550   4.305   0.589   3.654 -0.6940  0.4663 -0.2304
18353TIP3    H276551   4.420   0.649   3.576 -0.7994 -0.0012 -0.7507
18354TIP3   OH276552   2.622   1.409   4.904 -0.2906  0.3297 -0.0883
18354TIP3    H176553   2.680   1.403   4.828 -0.8513  0.4789 -0.5362
18354TIP3    H276554   2.587   1.498   4.901  1.0619  0.9522  1.3842
18355TIP3   OH276555   1.013   0.018   4.558  0.3428 -0.5229  0.6615
18355TIP3    H176556   1.076   0.027   4.487 -1.1505 -0.0596 -0.6439
18355TIP3    H276557   0.968  -0.064   4.541 -1.9693  0.9033 -0.6189
18356TIP3   OH276558   0.232   2.123   6.010  0.3593  0.3362  0.1745
18356TIP3    H176559   0.268   2.208   6.034  0.0494  0.7232 -0.6814
18356TIP3    H276560   0.142   2.125   6.042 -0.1865  1.0156 -1.2986
18357TIP3   OH276561   4.355   5.280  13.537  0.0388  0.6983  0.3712
18357TIP3    H176562   4.301   5.212  13.577 -1.0593  1.5249  0.3151
18357TIP3    H276563   4.349   5.263  13.443  0.3186  0.4753  0.3902
18358TIP3   OH276564   2.315   3.198   3.968  0.2527  0.7015  0.5855
18358TIP3    H176565   2.232   3.166   3.935  0.2696  0.9661  0.2891
18358TIP3    H276566   2.337   3.137   4.039  1.4120 -1.3615 -1.4249
18359TIP3   OH276567   1.339   1.315   1.431  0.2933  0.4599 -0.6894
18359TIP3    H176568   1.247   1.303   1.408 -0.2586  0.2082  1.3872
18359TIP3    H276569   1.348   1.273   1.517  2.0903  1.4218 -0.3450
18360TIP3   OH276570   6.011   3.082   1.402 -0.1625 -0.4092 -0.7117
18360TIP3    H176571   5.966   3.128   1.331 -0.9815 -0.3689 -0.1713
18360TIP3    H276572   5.969   3.113   1.482  1.5260  0.4404 -0.0914
18361TIP3   OH276573   4.248   1.772   1.970  0.0007  0.0199  0.5112
18361TIP3    H176574   4.334   1.808   1.948 -0.3134  0.8696  0.6323
18361TIP3    H276575   4.188   1.815   1.909 -0.1430 -1.8199 -0.7348
18362TIP3   OH276576   3.032   4.796  11.568  0.7633 -0.1426 -0.2444
18362TIP3    H176577   3.044   4.712  11.525  1.9301 -1.0694  1.7631
18362TIP3    H276578   3.104   4.850  11.536  0.1439  0.0503 -1.3617
18363TIP3   OH276579   0.762   3.777   1.274  0.4983 -0.6231 -0.3056
18363TIP3    H176580   0.667   3.763   1.279  0.2829  0.8998  1.1673
18363TIP3    H276581   0.785   3.810   1.361  1.9222  1.5074 -1.4062
18364TIP3   OH276582   6.149   6.671  11.645 -0.5959 -0.2319 -0.6369
18364TIP3    H176583   6.063   6.688  11.682 -0.2230  0.3323 -0.0066
18364TIP3    H276584   6.210   6.710  11.707  0.1611 -1.4110 -0.6092
18365TIP3   OH276585   2.017   4.296   2.429 -0.8214  0.6590  0.0533
18365TIP3    H176586   2.108   4.322   2.442 -0.4215 -0.9899  0.8238
18365TIP3    H276587   1.989   4.265   2.515 -1.1507 -1.6049 -0.7931
18366TIP3   OH276588   6.096   1.648   0.595 -0.2936 -0.1017 -0.8331
18366TIP3    H176589   6.166   1.616   0.653 -1.0913  0.2924  0.3913
18366TIP3    H276590   6.090   1.742   0.615 -2.2615 -0.4165  0.3136
18367TIP3   OH276591   5.062   5.789  11.460  0.1468  0.1324 -0.3301
18367TIP3    H176592   5.104   5.870  11.489  0.5228 -0.7980  1.9379
18367TIP3    H276593   4.989   5.776  11.521 -0.3437 -0.8630 -1.0961
18368TIP3   OH276594   5.236   4.904   2.388  0.0748 -0.1147  0.2297
18368TIP3    H176595   5.201   4.816   2.402 -2.9175  0.2973 -3.1125
18368TIP3    H276596   5.265   4.904   2.297  1.5377  1.9335  0.6226
18369TIP3   OH276597   1.489   5.436  11.446 -0.1872  0.2044  0.0804
18369TIP3    H176598   1.572   5.430  11.493  0.4121 -0.5274 -1.0447
18369TIP3    H276599   1.431   5.376  11.492  0.3751 -0.4618 -0.0630
18370TIP3   OH276600   5.323   2.266   4.931  0.2778  0.2247 -0.4260
18370TIP3    H176601   5.368   2.181   4.929  0.7344  0.4573 -0.3331
18370TIP3    H276602   5.271   2.263   5.012  0.9657  0.3587  0.0356
18371TIP3   OH276603   3.821   4.917  16.882 -0.7909 -0.7822 -0.2988
18371TIP3    H176604   3.895   4.924  16.943 -1.1485 -0.1441  0.0756
18371TIP3    H276605   3.769   4.845  16.916 -0.8224 -0.6325 -0.0219
18372TIP3   OH276606   2.885   5.015   4.028  0.1191 -0.0889 -0.2455
18372TIP3    H176607   2.849   5.092   3.985  0.1451  0.6144  0.9460
18372TIP3    H276608   2.854   4.941   3.974 -1.1796  0.6423 -0.5565
18373TIP3   OH276609   0.170   0.752   1.141  0.0578 -0.4390 -0.2224
18373TIP3    H176610   0.209   0.691   1.204 -0.0763 -0.8887 -0.5714
18373TIP3    H276611   0.129   0.696   1.075  0.2202  0.0242 -0.7281
18374TIP3   OH276612   4.600   2.263  12.940 -0.3165  0.0943 -0.1698
18374TIP3    H176613   4.591   2.174  12.975  0.3101 -0.1846 -0.7008
18374TIP3    H276614   4.596   2.252  12.845 -0.3992  0.6604 -0.2367
18375TIP3   OH276615   2.015   5.771  13.541  0.3853 -0.0997 -0.5232
18375TIP3    H176616   2.101   5.759  13.501  1.0425 -0.0325  0.8265
18375TIP3    H276617   1.990   5.684  13.571 -1.1325 -0.6196 -2.9647
18376TIP3   OH276618   2.900   5.945   1.879 -0.2057 -0.4205 -0.1183
18376TIP3    H176619   2.917   5.856   1.911 -1.7983 -0.6114  0.3193
18376TIP3    H276620   2.940   6.002   1.944 -0.2043 -0.8221  0.2398
18377TIP3   OH276621   1.748   4.442   2.532 -0.2047  0.1059  0.3504
18377TIP3    H176622   1.764   4.516   2.591 -2.2739  0.4251  0.5870
18377TIP3    H276623   1.780   4.473   2.447 -3.8420  2.6967 -0.3214
18378TIP3   OH276624   3.223   2.509  14.534 -0.3160  0.3085 -0.0850
18378TIP3    H176625   3.269   2.459  14.602 -0.4213 -0.3400 -0.4868
18378TIP3    H276626   3.174   2.576  14.582 -0.4057 -0.1609  0.4792
18379TIP3   OH276627   0.824   6.358   3.073 -0.0138  0.2286  0.0950
18379TIP3    H176628   0.874   6.282   3.043  1.3872  0.5271  1.5105
18379TIP3    H276629   0.890   6.416   3.112 -1.3048  1.2299  0.8684
18380TIP3   OH276630   4.637   2.197  14.910 -0.1933 -0.0907  0.6111
18380TIP3    H176631   4.719   2.148  14.908  1.5038  2.5824  0.1110
18380TIP3    H276632   4.653   2.269  14.971 -2.4624  0.0676  1.1036
18381TIP3   OH276633   1.593   3.744   3.083 -0.1526 -0.1186  0.3163
18381TIP3    H176634   1.652   3.814   3.053 -0.3605  0.1923  0.6287
18381TIP3    H276635   1.639   3.664   3.061  0.9572  0.1148  1.6239
18382TIP3   OH276636   1.735   2.275   5.167  0.3753 -0.4571  0.2385
18382TIP3    H176637   1.649   2.316   5.177  1.0935  0.8461  1.4744
18382TIP3    H276638   1.726   2.188   5.207 -0.2356 -0.1201  0.8471
18383TIP3   OH276639   2.353   6.055  10.781 -0.7568 -0.4210  0.0201
18383TIP3    H176640   2.324   6.029  10.694  1.8476 -1.1076 -0.7137
18383TIP3    H276641   2.336   6.149  10.785 -1.6989 -0.5377 -0.8771
18384TIP3   OH276642   3.114   2.178   1.187  0.1040  0.1907 -0.3284
18384TIP3    H176643   3.074   2.117   1.249 -2.2198  1.3574 -0.5805
18384TIP3    H276644   3.194   2.207   1.230 -0.7220 -0.1187  1.4954
18385TIP3   OH276645   4.541   5.674   3.611  0.0778 -0.0169 -0.0239
18385TIP3    H176646   4.601   5.731   3.658 -0.3342  0.6678 -0.3109
18385TIP3    H276647   4.455   5.716   3.620 -0.0653 -0.0556 -1.0778
18386TIP3   OH276648   0.991   2.597   3.288  0.5453 -0.1406 -0.1263
18386TIP3    H176649   1.073   2.624   3.247  0.2590  1.4932  0.2728
18386TIP3    H276650   0.923   2.647   3.242 -0.4296 -2.5267 -1.4087
18387TIP3   OH276651   5.812   0.094   2.800 -0.0778  0.2962 -0.0561
18387TIP3    H176652   5.834   0.143   2.878  0.7077 -1.8532  1.1652
18387TIP3    H276653   5.755   0.023   2.830  1.4592 -1.4870 -1.0912
18388TIP3   OH276654   2.073   4.370  15.952 -0.0258 -0.0097  0.1029
18388TIP3    H176655   2.149   4.411  15.910 -0.3747 -0.4691 -1.0125
18388TIP3    H276656   2.098   4.278  15.964 -0.2113 -0.0484  0.2075
18389TIP3   OH276657   2.840   1.905  14.587 -0.0158 -0.0367 -0.1730
18389TIP3    H176658   2.924   1.876  14.622  0.3064  0.2390 -0.6917
18389TIP3    H276659   2.838   1.868  14.498 -0.2710  0.2666 -0.2943
18390TIP3   OH276660   6.511   2.451   1.944 -0.2381 -0.1649 -0.1237
18390TIP3    H176661   6.604   2.471   1.951 -0.0069 -0.5793 -1.5403
18390TIP3    H276662   6.478   2.456   2.033  1.1585 -0.0947  0.4137
18391TIP3   OH276663   0.593   2.434  13.029 -0.1168 -0.3279  0.5091
18391TIP3    H176664   0.642   2.503  13.073 -0.2058  1.5901 -2.1799
18391TIP3    H276665   0.647   2.356  13.040  1.5567  0.8544  1.0246
18392TIP3   OH276666   4.408   0.162  10.773 -0.4527 -0.6302 -0.5235
18392TIP3    H176667   4.471   0.209  10.718 -0.9163  0.6989  0.0319
18392TIP3    H276668   4.323   0.198  10.748 -0.8760 -1.4679 -0.3379
18393TIP3   OH276669   2.172   5.490  16.903 -0.3640  0.5385 -0.1353
18393TIP3    H176670   2.102   5.484  16.968  0.9286  0.0937  1.2700
18393TIP3    H276671   2.253   5.492  16.955  0.6859  0.8277 -1.7137
18394TIP3   OH276672   4.263   4.664   3.157  0.7674 -0.0589  0.0147
18394TIP3    H176673   4.258   4.686   3.250 -0.1805 -1.1999  0.2605
18394TIP3    H276674   4.236   4.572   3.153  1.0685 -0.1064 -1.3618
18395TIP3   OH276675   2.411   1.962   5.892  0.1869 -0.3983 -0.0028
18395TIP3    H176676   2.369   1.883   5.925  1.2990 -0.9165  0.2094
18395TIP3    H276677   2.486   1.931   5.842  0.3508  0.5054 -0.3438
18396TIP3   OH276678   6.553   6.525  10.539  0.0263  0.3046 -0.3557
18396TIP3    H176679   6.519   6.594  10.482  0.8294  0.7108 -0.3557
18396TIP3    H276680   6.628   6.489  10.492  0.4163  0.3300  0.2319
18397TIP3   OH276681   1.624   1.269   2.974 -0.0948 -0.2719  0.3098
18397TIP3    H176682   1.608   1.182   2.936  0.7073 -0.4406  0.3336
18397TIP3    H276683   1.715   1.266   3.002 -0.6447 -0.1356  2.2288
18398TIP3   OH276684   4.011   1.425   0.253 -0.4118  0.5175 -0.4087
18398TIP3    H176685   4.069   1.454   0.323 -2.6822  1.0544  1.3822
18398TIP3    H276686   4.065   1.367   0.199  1.7687  1.0664  1.0564
18399TIP3   OH276687   2.458   5.713   6.030 -0.3803 -0.1273  0.1347
18399TIP3    H176688   2.504   5.644   6.079 -2.2650 -1.0896  0.6866
18399TIP3    H276689   2.397   5.750   6.094 -0.9002  0.5769 -0.7470
18400TIP3   OH276690   0.231   5.932   2.783  0.1480 -0.0238 -0.0214
18400TIP3    H176691   0.279   5.900   2.859 -0.2124 -1.5013 -0.3895
18400TIP3    H276692   0.159   5.983   2.820 -0.3214 -1.1550  0.6591
18401TIP3   OH276693   1.843   6.533   3.146 -0.0312 -0.6608  0.2934
18401TIP3    H176694   1.901   6.609   3.135 -0.7488 -0.3842 -2.0830
18401TIP3    H276695   1.817   6.536   3.238 -0.3102  2.2072  0.2197
18402TIP3   OH276696   4.126   2.108   4.394 -0.3115  0.3762  0.0053
18402TIP3    H176697   4.215   2.106   4.360  0.1850  2.5588  0.9499
18402TIP3    H276698   4.079   2.168   4.335 -0.5237  0.9747  0.7558
18403TIP3   OH276699   0.076   3.243   4.075 -0.5394 -0.4610 -0.0052
18403TIP3    H176700   0.111   3.332   4.084 -1.6199 -0.0861  0.7128
18403TIP3    H276701   0.044   3.239   3.984  1.4432 -0.8749 -0.7391
18404TIP3   OH276702   0.530   5.612  14.350  0.2382  0.3884  0.5285
18404TIP3    H176703   0.567   5.698  14.333  0.9904  0.1822  1.0429
18404TIP3    H276704   0.441   5.629  14.380 -0.1242  0.8966 -0.7812
18405TIP3   OH276705   6.762   4.158   5.764 -0.1826  0.1287  0.0308
18405TIP3    H176706   6.779   4.218   5.836  0.1512  0.8631 -0.6451
18405TIP3    H276707   6.779   4.209   5.685  1.0764 -1.1156 -0.5675
18406TIP3   OH276708   1.060   2.719   2.477 -0.1864  0.4239 -0.1888
18406TIP3    H176709   1.092   2.698   2.565 -0.1888 -1.4187 -0.5865
18406TIP3    H276710   1.140   2.730   2.425 -0.1733  2.2248  0.1647
18407TIP3   OH276711   2.929   0.496   5.646 -0.1322  0.2415 -0.0184
18407TIP3    H176712   3.003   0.523   5.701  0.4433  0.9283 -1.0870
18407TIP3    H276713   2.961   0.420   5.597 -0.6865 -0.4512  0.6772
18408TIP3   OH276714   4.729   3.128   4.480 -0.1866 -0.7564  0.7890
18408TIP3    H176715   4.670   3.201   4.495 -1.2727 -1.5001  0.3025
18408TIP3    H276716   4.700   3.060   4.540 -1.0826 -1.8052 -0.7585
18409TIP3   OH276717   5.885   0.722   3.062 -0.3370  0.0742  0.1315
18409TIP3    H176718   5.942   0.649   3.038 -0.1410 -0.0108  0.8379
18409TIP3    H276719   5.914   0.795   3.007  0.4728  0.0396  0.5074
18410TIP3   OH276720   5.892   6.493  15.929 -0.3234  0.5862  0.3664
18410TIP3    H176721   5.911   6.542  15.849  1.6976  1.7103  1.4491
18410TIP3    H276722   5.854   6.411  15.898 -0.7787  1.4838 -1.6614
18411TIP3   OH276723   3.485   3.921   1.739  0.7480  0.4340  0.1979
18411TIP3    H176724   3.444   3.843   1.700 -0.2195  0.5241  0.9844
18411TIP3    H276725   3.578   3.913   1.716  0.3797 -0.0333 -1.2262
18412TIP3   OH276726   4.942   4.171   3.427  0.1020  0.6201  0.5949
18412TIP3    H176727   5.030   4.195   3.395 -0.8430 -0.5856 -3.4824
18412TIP3    H276728   4.883   4.232   3.382 -1.3353 -0.3261  1.1375
18413TIP3   OH276729   0.136   0.388  11.297  0.1335  0.0956 -0.0258
18413TIP3    H176730   0.152   0.325  11.367  1.6906 -0.2371 -0.6343
18413TIP3    H276731   0.220   0.434  11.287 -0.4011  0.9024 -0.9076
18414TIP3   OH276732   5.127   4.232  15.595  0.5664 -0.6143  0.1421
18414TIP3    H176733   5.129   4.142  15.627  0.5212 -0.7744 -0.2996
18414TIP3    H276734   5.120   4.286  15.674 -0.8577 -1.0591  0.3396
18415TIP3   OH276735   0.365   3.245  12.016 -0.2980  0.1769  0.6587
18415TIP3    H176736   0.459   3.259  12.002  0.3174 -1.6785  2.4560
18415TIP3    H276737   0.346   3.163  11.973 -0.3752 -0.9493  2.7007
18416TIP3   OH276738   0.769   4.737  17.021 -0.4759  0.1159 -0.0847
18416TIP3    H176739   0.812   4.815  16.987  0.1824 -0.1854  0.0500
18416TIP3    H276740   0.699   4.719  16.958  1.3246 -1.0103 -1.8969
18417TIP3   OH276741   3.244   4.848  12.765  0.2772  0.5074 -0.9668
18417TIP3    H176742   3.160   4.811  12.792  1.3880  0.0941  2.2556
18417TIP3    H276743   3.233   4.942  12.774  0.7477  0.3808  1.7564
18418TIP3   OH276744   3.904   6.092  13.769  0.4168  0.0368  0.3000
18418TIP3    H176745   3.843   6.049  13.709 -0.6265  1.2613  0.4353
18418TIP3    H276746   3.877   6.061  13.856 -0.0019  0.5605  0.3581
18419TIP3   OH276747   4.317   4.461   0.461 -0.6386  0.1444  0.4772
18419TIP3    H176748   4.350   4.503   0.381 -0.9599  0.6933  0.6297
18419TIP3    H276749   4.380   4.485   0.528  1.5317 -3.0167 -0.1957
18420TIP3   OH276750   6.520   6.843   5.795  0.0999 -0.0094  0.0656
18420TIP3    H176751   6.457   6.771   5.785  2.1659 -1.8095 -0.8503
18420TIP3    H276752   6.503   6.878   5.883 -0.7508 -1.8294  0.6741
18421TIP3   OH276753   3.143   3.826  14.444 -0.6005 -0.4076  0.1482
18421TIP3    H176754   3.181   3.863  14.524  0.5431 -0.5743 -0.2934
18421TIP3    H276755   3.052   3.807  14.467 -0.6245  0.6734  1.0340
18422TIP3   OH276756   0.467   1.370   6.038  0.2224  0.1878  0.3117
18422TIP3    H176757   0.421   1.453   6.049 -0.2428  0.1284 -0.9881
18422TIP3    H276758   0.558   1.395   6.020 -0.1626  0.4977 -1.3510
18423TIP3   OH276759   3.848   4.163  12.485  1.1940  0.4730 -0.0304
18423TIP3    H176760   3.778   4.135  12.425  1.4621  0.4097 -0.3193
18423TIP3    H276761   3.833   4.256  12.498 -0.1557  0.0938  1.5267
18424TIP3   OH276762   3.177   2.146  11.888  0.7122  0.8560  0.3167
18424TIP3    H176763   3.212   2.094  11.816  0.1207  2.0408 -0.8790
18424TIP3    H276764   3.108   2.092  11.927 -0.4772  1.0340 -1.4474
18425TIP3   OH276765   5.376   5.522  12.961 -0.1923 -0.3036 -0.9053
18425TIP3    H176766   5.368   5.471  13.042 -0.5824  1.5312  0.2910
18425TIP3    H276767   5.381   5.613  12.991  1.5618  0.3245 -2.8761
18426TIP3   OH276768   3.758   4.150   5.373  0.0231 -0.2775  0.1854
18426TIP3    H176769   3.668   4.138   5.405  0.0298 -0.6864  0.0490
18426TIP3    H276770   3.757   4.115   5.284  0.9048 -2.5293  1.0083
18427TIP3   OH276771   4.488   1.341   2.198  0.2438 -0.1408  0.1557
18427TIP3    H176772   4.425   1.382   2.258  0.8248  2.8492 -1.1341
18427TIP3    H276773   4.446   1.259   2.173 -1.6137  0.1966  1.8716
18428TIP3   OH276774   2.735   6.569   3.835  0.6083  0.3428  0.4114
18428TIP3    H176775   2.716   6.635   3.769  2.2505 -0.2621 -0.7294
18428TIP3    H276776   2.661   6.509   3.830  0.5468  0.4793 -0.6737
18429TIP3   OH276777   5.798   1.440   5.360 -0.0174  0.1500  0.4892
18429TIP3    H176778   5.739   1.469   5.291 -0.2738 -1.1333  0.1409
18429TIP3    H276779   5.883   1.429   5.317 -0.2886 -1.1203  0.2424
18430TIP3   OH276780   1.838   3.272   3.975  0.2212 -0.6962  0.4138
18430TIP3    H176781   1.792   3.307   4.051 -1.4009  0.9240 -1.2112
18430TIP3    H276782   1.893   3.345   3.945 -0.4122 -0.7242 -0.8892
18431TIP3   OH276783   4.166   0.120  13.353 -0.6212 -0.3279  0.0676
18431TIP3    H176784   4.145   0.030  13.377 -3.9687  0.6109  1.1712
18431TIP3    H276785   4.102   0.143  13.286 -1.1935  1.7931  1.2395
18432TIP3   OH276786   0.951   3.817   1.089 -0.0386  0.1764  0.3141
18432TIP3    H176787   0.882   3.798   1.151  0.3050  0.5563  0.8167
18432TIP3    H276788   1.013   3.872   1.137  0.4829  0.0560 -0.2029
18433TIP3   OH276789   3.981   2.936  12.649 -0.2994 -0.1875 -0.0616
18433TIP3    H176790   3.926   2.990  12.592  0.0827  0.7916  0.4733
18433TIP3    H276791   4.043   2.894  12.589 -0.3403  0.2876 -0.4476
18434TIP3   OH276792   1.743   5.559   2.153  0.9407  0.8711  0.3427
18434TIP3    H176793   1.768   5.474   2.191  1.2072  1.5991  1.8612
18434TIP3    H276794   1.648   5.563   2.165  1.0494  1.1871  1.1550
18435TIP3   OH276795   0.038   2.849   1.424 -0.8388 -0.0872  0.4319
18435TIP3    H176796   0.033   2.917   1.357 -0.9547 -1.8619 -1.4487
18435TIP3    H276797   0.056   2.897   1.505 -0.6535  2.1380 -0.8413
18436TIP3   OH276798   4.694   3.370   3.280 -0.2046 -0.1369 -0.1317
18436TIP3    H176799   4.773   3.321   3.259  1.2642  1.1127  2.0063
18436TIP3    H276800   4.694   3.444   3.219 -0.5575 -0.9061 -1.0901
18437TIP3   OH276801   4.727   3.879   2.985  0.0262  0.2445 -0.1632
18437TIP3    H176802   4.709   3.912   3.073 -0.1522 -1.8418  0.6433
18437TIP3    H276803   4.805   3.825   2.995  1.6109  2.0590 -1.8622
18438TIP3   OH276804   2.374   2.550   2.046 -0.0876 -0.3471  0.5268
18438TIP3    H176805   2.462   2.558   2.008 -0.3571 -1.1500 -0.3077
18438TIP3    H276806   2.390   2.523   2.137  0.5353 -1.4259  0.1287
18439TIP3   OH276807   1.706   0.927  14.141 -0.3772 -0.5328  0.1852
18439TIP3    H176808   1.723   0.839  14.106  1.2746 -0.1537 -0.0317
18439TIP3    H276809   1.706   0.984  14.064  0.8920 -0.0255  0.5429
18440TIP3   OH276810   0.413   1.003   1.788 -0.0512  0.2365 -0.0478
18440TIP3    H176811   0.446   0.916   1.810 -0.1154  0.2174 -0.0278
18440TIP3    H276812   0.373   0.992   1.701 -0.6885  0.0839  0.2555
18441TIP3   OH276813   1.762   4.822  14.252 -0.0735  0.4343  0.1834
18441TIP3    H176814   1.725   4.874  14.181  1.7657  1.6610  0.0362
18441TIP3    H276815   1.821   4.760  14.208  1.9699  1.9674  0.6154
18442TIP3   OH276816   0.817   3.044  16.876  0.4060  0.5054 -0.0657
18442TIP3    H176817   0.831   2.984  16.803 -1.5415  0.6529 -0.6004
18442TIP3    H276818   0.724   3.036  16.898  0.4211  2.1990  0.8499
18443TIP3   OH276819   4.149   2.401  15.782 -0.8881 -0.1575 -0.0205
18443TIP3    H176820   4.093   2.361  15.849 -2.3869 -2.1256 -2.2663
18443TIP3    H276821   4.090   2.457  15.733  0.1573  1.1332  0.1678
18444TIP3   OH276822   2.816   2.924   2.255 -0.3083  0.7599 -0.4877
18444TIP3    H176823   2.781   2.916   2.166 -2.9866 -2.3419  0.6267
18444TIP3    H276824   2.745   2.964   2.305 -0.9119 -1.9818  1.0672
18445TIP3   OH276825   1.880   2.363  12.557 -0.1533  0.3778  0.4194
18445TIP3    H176826   1.965   2.320  12.565 -0.1665  0.0810 -0.7916
18445TIP3    H276827   1.824   2.319  12.622  0.3385 -0.1506  0.4922
18446TIP3   OH276828   3.191   6.110  10.866 -0.0458 -0.2106 -0.0654
18446TIP3    H176829   3.102   6.140  10.888  0.7559  1.7959  0.7176
18446TIP3    H276830   3.188   6.016  10.879 -2.4232 -0.4100 -1.3595
18447TIP3   OH276831   5.298   2.920   2.352  0.0596 -0.6035  0.4194
18447TIP3    H176832   5.368   2.858   2.331 -0.5842 -1.6657  1.3178
18447TIP3    H276833   5.313   2.993   2.292  0.3197 -1.9903 -1.3232
18448TIP3   OH276834   1.409   4.812  11.449 -0.3697 -0.4423  0.2648
18448TIP3    H176835   1.375   4.883  11.395  3.5837  1.3410 -0.2201
18448TIP3    H276836   1.421   4.850  11.536  1.6539 -0.4401  0.0396
18449TIP3   OH276837   0.868   4.937  14.483 -0.5424  0.1388  0.6211
18449TIP3    H176838   0.785   4.890  14.482 -0.2424 -0.5700  2.8322
18449TIP3    H276839   0.847   5.021  14.523 -0.3603  0.3345  0.3081
18450TIP3   OH276840   5.667   6.031   0.252 -0.3111  0.1778  0.5022
18450TIP3    H176841   5.747   5.983   0.273  0.4242  0.1859 -1.9024
18450TIP3    H276842   5.677   6.053   0.159 -2.3401  1.6999  0.5861
18451TIP3   OH276843   0.385   1.985  14.845  0.6173 -0.7403 -0.3103
18451TIP3    H176844   0.381   2.080  14.835  0.1614 -0.7916 -0.6637
18451TIP3    H276845   0.479   1.966  14.852  0.7644 -0.3378 -1.0063
18452TIP3   OH276846   2.833   5.138  15.089  0.2559 -0.0787  0.2058
18452TIP3    H176847   2.844   5.119  15.182  0.8394 -0.3651  0.0778
18452TIP3    H276848   2.808   5.231  15.087  1.4008  0.2486  0.5776
18453TIP3   OH276849   5.840   1.347  16.088  0.1088 -1.1401 -0.1308
18453TIP3    H176850   5.804   1.259  16.096 -0.1680 -1.0581 -0.4777
18453TIP3    H276851   5.764   1.405  16.086  0.3161 -0.7949  1.1865
18454TIP3   OH276852   2.955   1.682  12.264  0.1160 -0.3171  0.3635
18454TIP3    H176853   2.950   1.703  12.170 -0.3508  0.2864  0.5200
18454TIP3    H276854   2.952   1.766  12.308 -2.1730 -0.6690  1.0186
18455TIP3   OH276855   6.497   6.577   3.623 -0.0385 -0.5688 -0.0923
18455TIP3    H176856   6.478   6.489   3.654  2.6092 -1.4382 -0.6706
18455TIP3    H276857   6.563   6.611   3.683 -2.0427  1.6910  1.0171
18456TIP3   OH276858   4.883   3.843  11.340  0.3617 -0.2019 -0.0947
18456TIP3    H176859   4.915   3.780  11.404  0.2315 -0.5740 -0.3914
18456TIP3    H276860   4.954   3.906  11.331  1.4938 -1.5919 -1.5325
18457TIP3   OH276861   2.821   2.122  13.886  0.4627 -0.1152 -0.2712
18457TIP3    H176862   2.888   2.140  13.820  0.5238 -0.5856 -0.3398
18457TIP3    H276863   2.831   2.193  13.950  2.4245 -1.3155  0.8326
18458TIP3   OH276864   1.528   6.171   0.536  0.5439 -0.0930 -0.0666
18458TIP3    H176865   1.532   6.265   0.550  1.2634 -0.4727  2.9746
18458TIP3    H276866   1.436   6.153   0.515  0.2110  1.1753  0.2364
18459TIP3   OH276867   4.126   3.340   4.433  0.2996  0.1738  0.2104
18459TIP3    H176868   4.140   3.430   4.462 -1.5792  0.2510  0.9820
18459TIP3    H276869   4.096   3.349   4.343  1.8165  0.1730 -0.3377
18460TIP3   OH276870   2.127   4.550   2.645 -0.3796 -0.6645 -0.1758
18460TIP3    H176871   2.032   4.560   2.641 -0.2259  1.5605  0.3565
18460TIP3    H276872   2.142   4.496   2.722 -1.1948  0.1826  0.6143
18461TIP3   OH276873   1.504   1.837  14.104 -0.2298 -0.4345  0.2467
18461TIP3    H176874   1.441   1.882  14.046 -0.2904  0.3042  0.8733
18461TIP3    H276875   1.485   1.872  14.191  1.0191 -0.2464  0.4562
18462TIP3   OH276876   4.086   6.658  12.525 -0.8625 -0.0755 -0.0678
18462TIP3    H176877   4.012   6.641  12.466 -2.5431  1.2095  1.5535
18462TIP3    H276878   4.111   6.572  12.557 -1.8454 -0.5120 -0.4285
18463TIP3   OH276879   4.228   2.460  12.379 -0.0828 -0.3365 -0.2007
18463TIP3    H176880   4.320   2.476  12.402 -0.3792  0.2707  0.5766
18463TIP3    H276881   4.194   2.545  12.352 -0.2555 -0.6811 -1.1159
18464TIP3   OH276882   5.078   0.201   3.935  0.1746 -0.2468  0.3602
18464TIP3    H176883   5.172   0.196   3.954  0.2432  0.8892  0.3581
18464TIP3    H276884   5.042   0.254   4.006 -0.5282 -0.9642  0.5486
18465TIP3   OH276885   1.065   0.879  14.718  0.0303  0.0713 -0.4627
18465TIP3    H176886   0.978   0.915  14.735  0.9358  1.4469  1.5911
18465TIP3    H276887   1.052   0.785  14.713 -1.6686  0.3028 -0.9302
18466TIP3   OH276888   4.640   3.171   1.260  0.5995 -0.0689 -0.0154
18466TIP3    H176889   4.666   3.159   1.169 -0.2216 -0.9913 -0.1366
18466TIP3    H276890   4.712   3.132   1.311 -0.8585 -3.5569 -0.3563
18467TIP3   OH276891   6.498   5.160   0.793  0.0146 -0.3409 -0.5833
18467TIP3    H176892   6.438   5.222   0.752 -0.2959  0.3371  0.8325
18467TIP3    H276893   6.584   5.202   0.787 -0.2050  0.2647  0.4283
18468TIP3   OH276894   3.674   2.283  13.508  0.0709 -0.3290  0.5285
18468TIP3    H176895   3.694   2.245  13.422  2.2661 -2.0503  1.7070
18468TIP3    H276896   3.725   2.364  13.511 -0.6584  0.1718 -0.0531
18469TIP3   OH276897   1.663   3.311  14.187  0.1065 -0.1800 -0.0075
18469TIP3    H176898   1.580   3.268  14.205  0.3079 -0.4543  0.2818
18469TIP3    H276899   1.711   3.307  14.270 -0.2011  1.3831  0.2753
18470TIP3   OH276900   4.300   2.592  11.691  0.2792 -0.1722  0.3888
18470TIP3    H176901   4.205   2.578  11.685  0.3903 -0.8373  0.0575
18470TIP3    H276902   4.318   2.663  11.630 -0.2924  1.4983  2.0504
18471TIP3   OH276903   2.012   2.748  16.041  0.0737 -0.1895 -0.2111
18471TIP3    H176904   1.929   2.700  16.035 -0.4111  0.5860  0.0009
18471TIP3    H276905   2.036   2.767  15.950 -0.0326 -0.3461 -0.2716
18472TIP3   OH276906   1.266   2.581  10.878  0.1496 -0.4649  0.5373
18472TIP3    H176907   1.189   2.637  10.874 -0.9643 -1.9810 -2.6601
18472TIP3    H276908   1.340   2.640  10.865 -0.8231  0.5713 -0.5307
18473TIP3   OH276909   6.673   3.985  13.960 -0.7030 -0.1814 -0.4794
18473TIP3    H176910   6.693   3.994  13.867  1.0766 -2.5102 -0.4082
18473TIP3    H276911   6.609   3.914  13.964  0.0617 -0.8508  0.1164
18474TIP3   OH276912   3.749   5.051  12.999 -0.0571  0.6035 -0.2051
18474TIP3    H176913   3.724   4.959  12.999  1.1731  0.2362 -1.6831
18474TIP3    H276914   3.672   5.097  13.033 -1.4462 -0.7881 -1.3539
18475TIP3   OH276915   6.787   4.133  13.456  0.3265 -0.2214  0.0955
18475TIP3    H176916   6.870   4.137  13.410  0.5397 -0.6065  0.4332
18475TIP3    H276917   6.764   4.224  13.474  0.4451 -0.0928 -0.4043
18476TIP3   OH276918   3.881   1.415   3.945 -0.0565  0.1139 -0.6111
18476TIP3    H176919   3.818   1.486   3.953  1.4686  1.4558  0.2937
18476TIP3    H276920   3.950   1.450   3.889 -0.2023 -1.4125 -1.8093
18477TIP3   OH276921   5.513   0.189   3.341  0.0865 -0.4830 -0.0702
18477TIP3    H176922   5.596   0.141   3.334 -0.7379 -1.7310 -2.6465
18477TIP3    H276923   5.457   0.130   3.392  0.1963 -0.5706 -0.0487
18478TIP3   OH276924   1.814   2.719  13.714 -0.3100 -0.1455  0.3056
18478TIP3    H176925   1.779   2.781  13.778  0.2762 -0.1084  0.5967
18478TIP3    H276926   1.908   2.716  13.732 -0.0305  0.3519 -0.9739
18479TIP3   OH276927   3.859   4.247   2.294 -0.3472 -0.0942  0.2927
18479TIP3    H176928   3.769   4.229   2.267 -0.1447 -0.0887 -0.3937
18479TIP3    H276929   3.870   4.198   2.375 -1.0231  0.0476  0.4778
18480TIP3   OH276930   2.042   5.722   1.206 -0.2302  0.3880 -0.7370
18480TIP3    H176931   1.959   5.719   1.158  0.0862 -0.1806 -1.2671
18480TIP3    H276932   2.076   5.810   1.191 -0.2173  0.2697 -1.4252
18481TIP3   OH276933   6.426   6.680  13.244 -0.3252 -0.4169  0.0649
18481TIP3    H176934   6.338   6.662  13.277 -0.2221 -1.4669 -0.1913
18481TIP3    H276935   6.417   6.759  13.192 -1.6384 -1.7862 -1.9282
18482TIP3   OH276936   6.700   0.985   3.422  0.4992  0.0045 -0.0507
18482TIP3    H176937   6.718   0.894   3.402 -0.8161 -0.2031 -0.3881
18482TIP3    H276938   6.674   0.986   3.514  1.1698  0.1417  0.1390
18483TIP3   OH276939   0.832   5.217  15.607 -0.6404 -0.2283 -0.2653
18483TIP3    H176940   0.757   5.226  15.665 -0.7213 -0.6237 -0.3096
18483TIP3    H276941   0.841   5.123  15.593 -2.5908 -0.0864 -3.4558
18484TIP3   OH276942   1.506   5.944   1.487 -0.3110  0.7170  0.2220
18484TIP3    H176943   1.511   6.033   1.520  1.2602  1.0823 -0.8995
18484TIP3    H276944   1.414   5.919   1.498 -0.9402  2.7421 -0.1361
18485TIP3   OH276945   2.402   6.306   5.132 -0.1782 -0.1600 -0.5454
18485TIP3    H176946   2.390   6.343   5.045  1.4304  0.9907 -0.3266
18485TIP3    H276947   2.480   6.252   5.125 -1.0885 -1.5602 -0.2386
18486TIP3   OH276948   1.054   0.601  11.636  0.0214  0.1446  0.5237
18486TIP3    H176949   1.020   0.549  11.563  2.5614 -1.4810  0.3641
18486TIP3    H276950   1.007   0.569  11.713  0.8618 -1.8202  0.2845
18487TIP3   OH276951   2.817   2.958   3.836  0.1552 -0.1217 -0.0199
18487TIP3    H176952   2.814   2.866   3.812  0.5897 -0.3733  0.8431
18487TIP3    H276953   2.892   2.993   3.788 -0.0901 -0.1896 -0.4501
18488TIP3   OH276954   3.562   4.608   2.528 -0.6995  0.2465  0.5218
18488TIP3    H176955   3.526   4.566   2.450 -0.9161  0.6531  0.4000
18488TIP3    H276956   3.651   4.573   2.535 -0.9820 -0.4832  0.6130
18489TIP3   OH276957   3.167   2.234  13.239 -0.1055 -0.1102 -0.3404
18489TIP3    H176958   3.089   2.289  13.249  0.2583  0.2319  0.6890
18489TIP3    H276959   3.206   2.231  13.326 -0.4008 -2.4405 -0.2221
18490TIP3   OH276960   3.006   2.692   1.167 -0.3075 -0.2124  0.6806
18490TIP3    H176961   2.926   2.682   1.218 -0.9744 -0.9956 -0.4746
18490TIP3    H276962   3.042   2.604   1.162  1.0153  0.2292  1.7426
18491TIP3   OH276963   0.614   3.160  13.208 -0.2156 -0.3733  0.1504
18491TIP3    H176964   0.679   3.172  13.138  0.3881 -1.2074  0.5498
18491TIP3    H276965   0.587   3.068  13.199 -1.5195  0.0148 -0.1470
18492TIP3   OH276966   5.727   1.056  10.921  0.2513  0.2937  0.1300
18492TIP3    H176967   5.708   1.104  10.840 -0.3681 -0.8653 -0.4347
18492TIP3    H276968   5.795   0.993  10.896  0.1714  0.0325  0.5592
18493TIP3   OH276969   4.896   1.602  12.768  0.7783 -0.6441 -0.1149
18493TIP3    H176970   4.985   1.566  12.769  1.4038  0.7522  2.0200
18493TIP3    H276971   4.909   1.697  12.759 -0.4404 -0.3546  0.9471
18494TIP3   OH276972   5.740   1.134  14.939  0.0148 -0.2368  0.1826
18494TIP3    H176973   5.786   1.089  15.010  0.8737 -1.2924 -1.0203
18494TIP3    H276974   5.697   1.208  14.983  2.4801  0.5791  1.4365
18495TIP3   OH276975   0.160   2.834  10.894  0.0961  0.3810 -0.2592
18495TIP3    H176976   0.109   2.879  10.827 -2.7820 -1.6105  0.3970
18495TIP3    H276977   0.202   2.762  10.848  0.1236  0.4472 -0.3377
18496TIP3   OH276978   6.528   1.766  14.376  0.6851 -0.2436 -0.0020
18496TIP3    H176979   6.503   1.701  14.310  0.0282 -1.0857  1.0459
18496TIP3    H276980   6.447   1.786  14.423  1.3280 -0.4894  1.2575
18497TIP3   OH276981   2.962   4.444  10.941 -0.6371  0.5546 -0.5050
18497TIP3    H176982   2.899   4.513  10.922 -1.4792 -0.2514 -0.7272
18497TIP3    H276983   3.022   4.446  10.866 -3.0387 -1.5736 -2.6915
18498TIP3   OH276984   4.055   5.727  16.678 -0.1836 -0.7567  0.4716
18498TIP3    H176985   4.123   5.789  16.705 -2.9443  2.2427  1.1078
18498TIP3    H276986   4.086   5.694  16.593  1.3164  1.7590 -0.0714
18499TIP3   OH276987   5.655   0.612  16.866  0.0259 -0.4325 -0.2385
18499TIP3    H176988   5.635   0.626  16.958  0.5320  0.4997 -0.2607
18499TIP3    H276989   5.744   0.578  16.866 -0.7493 -2.6289 -0.2655
18500TIP3   OH276990   5.200   5.020   3.052 -0.2783 -0.2144 -0.3145
18500TIP3    H176991   5.115   5.060   3.070 -0.6822 -1.6346  1.2169
18500TIP3    H276992   5.247   5.026   3.136 -0.7035 -3.5766  0.2999
18501TIP3   OH276993   2.166   1.221  11.847 -0.8063 -0.5086  0.1920
18501TIP3    H176994   2.107   1.263  11.909  0.0207 -0.5092  1.0091
18501TIP3    H276995   2.134   1.131  11.840 -2.6520  0.1913 -1.6496
18502TIP3   OH276996   3.331   5.353   2.562 -0.5348  0.2243 -0.3846
18502TIP3    H176997   3.382   5.300   2.501 -1.7848 -0.2582 -1.0638
18502TIP3    H276998   3.278   5.410   2.505 -2.0680 -0.5570  0.1932
18503TIP3   OH276999   3.712   0.166   3.817 -0.5081  0.0047 -0.2791
18503TIP3    H177000   3.664   0.092   3.855 -1.1573  0.7439  0.4024
18503TIP3    H277001   3.780   0.186   3.881 -0.2681 -0.0662 -0.5103
18504TIP3   OH277002   4.947   1.187  16.963  0.0409 -0.1392 -0.4368
18504TIP3    H177003   4.932   1.257  16.899 -0.3498 -1.8107 -2.2476
18504TIP3    H277004   4.885   1.205  17.033 -0.7167  0.7905 -1.3224
18505TIP3   OH277005   5.674   1.787   0.299  0.5779  0.0520 -0.7614
18505TIP3    H177006   5.729   1.754   0.228  1.1888 -1.0906  0.1868
18505TIP3    H277007   5.661   1.711   0.356  2.4519  1.4541  1.8225
18506TIP3   OH277008   0.942   4.205  16.401 -0.1986  0.0475 -0.4623
18506TIP3    H177009   1.016   4.218  16.341 -0.0035 -0.1734 -0.2722
18506TIP3    H277010   0.865   4.206  16.344  0.0642 -1.3645 -0.8922
18507TIP3   OH277011   2.954   0.995  12.122  0.3528 -0.3141  0.3195
18507TIP3    H177012   2.991   0.914  12.158 -0.6968 -1.8815 -1.8566
18507TIP3    H277013   2.860   0.989  12.142  0.4090  0.9618  1.0992
18508TIP3   OH277014   1.634   4.168   1.101 -0.1857 -0.3089  0.2397
18508TIP3    H177015   1.670   4.116   1.029  0.5907 -1.1205  1.1872
18508TIP3    H277016   1.544   4.185   1.076  0.3656  0.3235 -1.4098
18509TIP3   OH277017   3.827   5.397   1.779  0.0479 -0.6608 -0.1066
18509TIP3    H177018   3.818   5.475   1.833 -1.7173 -1.0929  0.3123
18509TIP3    H277019   3.786   5.327   1.830 -4.1344 -0.6037 -2.8286
18510TIP3   OH277020   3.408   3.438  15.430  0.7164 -0.8177 -0.2213
18510TIP3    H177021   3.319   3.418  15.404  0.3883 -0.2831  0.4545
18510TIP3    H277022   3.458   3.438  15.349 -0.1402  0.1116 -0.7552
18511TIP3   OH277023   1.111   6.107  15.858 -0.1509  0.2241 -0.5880
18511TIP3    H177024   1.047   6.037  15.846  2.5342 -2.6350  0.3975
18511TIP3    H277025   1.195   6.066  15.839  1.5717  3.3799 -0.4243
18512TIP3   OH277026   4.159   5.047  11.502  0.1540  0.1626 -0.3088
18512TIP3    H177027   4.143   5.082  11.414  1.9143 -0.5150 -0.9516
18512TIP3    H277028   4.212   4.969  11.487  0.1659 -0.1810  1.3441
18513TIP3   OH277029   4.379   6.819   1.054 -0.2083 -0.7359 -0.1563
18513TIP3    H177030   4.299   6.777   1.086  0.5254 -1.0046  1.4279
18513TIP3    H277031   4.436   6.745   1.031 -0.0676 -0.5580 -0.3780
18514TIP3   OH277032   3.633   1.164  12.554 -0.7286  0.3539  0.0084
18514TIP3    H177033   3.726   1.182  12.558 -0.4005 -1.0008 -0.9798
18514TIP3    H277034   3.595   1.221  12.621  0.6857  1.5445 -0.1536
18515TIP3   OH277035   4.920   0.168   4.282  0.2304 -0.1864  0.2320
18515TIP3    H177036   4.839   0.154   4.330 -0.0211  0.3428 -0.0353
18515TIP3    H277037   4.951   0.079   4.261 -0.1697 -0.3933  0.5071
18516TIP3   OH277038   4.083   1.978  13.739 -0.5112 -0.2900  0.1019
18516TIP3    H177039   4.045   2.058  13.776 -2.3156 -0.6829 -0.7766
18516TIP3    H277040   4.056   1.979  13.648  1.9708 -0.4595 -0.7120
18517TIP3   OH277041   6.398   0.147  13.893  0.1258  0.1403 -0.2751
18517TIP3    H177042   6.380   0.225  13.842 -0.0472  0.0835 -0.2999
18517TIP3    H277043   6.421   0.180  13.980  1.0420  0.2690 -0.5582
18518TIP3   OH277044   5.257   2.005   3.749 -0.0038  0.0799 -0.2399
18518TIP3    H177045   5.167   2.024   3.775  0.2874 -0.3065  1.1655
18518TIP3    H277046   5.255   1.914   3.719 -0.3563  0.5507 -1.7449
18519TIP3   OH277047   2.335   5.076   0.078  0.3494  0.0846  0.6115
18519TIP3    H177048   2.351   5.014   0.149 -0.8885  1.0723  1.7974
18519TIP3    H277049   2.361   5.029  -0.001  0.7821 -1.4210  1.6112
18520TIP3   OH277050   3.832   3.809   3.885  0.1559  0.2164  0.0787
18520TIP3    H177051   3.738   3.813   3.902 -0.1502 -1.8759 -0.8294
18520TIP3    H277052   3.839   3.803   3.790  1.0361 -2.1312  0.2358
18521TIP3   OH277053   2.173   6.288  15.673  0.2620 -0.0922  0.1574
18521TIP3    H177054   2.249   6.249  15.715  0.6153  0.3687 -0.0474
18521TIP3    H277055   2.187   6.383  15.680  0.0767 -0.0067 -0.5419
18522TIP3   OH277056   3.111   1.898  11.772  0.1214  0.4968 -0.2992
18522TIP3    H177057   3.033   1.894  11.828 -0.5700  1.4634 -1.1525
18522TIP3    H277058   3.168   1.829  11.805 -1.6952 -1.2092 -0.5682
18523TIP3   OH277059   4.545   2.570   1.721 -0.0086  0.3530 -0.2102
18523TIP3    H177060   4.614   2.504   1.714 -1.0110 -0.6786 -0.5605
18523TIP3    H277061   4.480   2.545   1.656 -0.0689  2.1495 -0.9219
18524TIP3   OH277062   4.706   1.911  14.730  0.0609  0.0580 -0.1447
18524TIP3    H177063   4.718   1.994  14.684  1.1338  0.9771  1.6578
18524TIP3    H277064   4.695   1.936  14.822 -2.6363 -1.6555  0.1055
18525TIP3   OH277065   1.070   3.016   2.544  0.7486  0.2695 -0.1742
18525TIP3    H177066   1.163   3.001   2.559  0.3898  0.0425  2.3545
18525TIP3    H277067   1.051   3.096   2.594 -0.3166  0.6176 -1.1016
18526TIP3   OH277068   6.354   6.797   3.026 -0.2260 -0.1779  0.4549
18526TIP3    H177069   6.341   6.748   2.945 -1.6538 -0.2022  0.6753
18526TIP3    H277070   6.285   6.863   3.025  1.2634  1.4507  0.4680
18527TIP3   OH277071   1.330   6.678   5.432 -0.5189 -0.1955  0.4705
18527TIP3    H177072   1.405   6.721   5.392  0.5210 -0.4871  2.0301
18527TIP3    H277073   1.262   6.745   5.435  0.3678  0.7031  0.9213
18528TIP3   OH277074   5.888   2.771   2.972 -0.1758 -0.2126 -0.1161
18528TIP3    H177075   5.899   2.702   3.038  1.5495  0.8414  0.7991
18528TIP3    H277076   5.929   2.736   2.893 -0.0126 -0.5459  0.1164
18529TIP3   OH277077   0.597   3.948   4.279  0.4499  0.1940 -1.0003
18529TIP3    H177078   0.608   3.975   4.370 -0.1470  0.7339 -1.0771
18529TIP3    H277079   0.647   3.867   4.271 -1.5094 -1.2485  0.4554
18530TIP3   OH277080   5.624   1.808  13.021  0.5790  0.0608  0.2373
18530TIP3    H177081   5.583   1.794  12.935 -0.1866  0.1865  0.5769
18530TIP3    H277082   5.714   1.833  13.000 -0.3395  2.9925 -0.6527
18531TIP3   OH277083   6.834   5.066  11.030  0.1584  0.3591  0.1139
18531TIP3    H177084   6.747   5.068  10.990 -0.2168  0.3023  0.9098
18531TIP3    H277085   6.890   5.111  10.967 -0.9623  2.9610  0.8184
18532TIP3   OH277086   2.781   0.125  13.259 -0.2385  0.7271  0.0964
18532TIP3    H177087   2.738   0.117  13.173 -3.7382  1.3056  1.6226
18532TIP3    H277088   2.828   0.208  13.254 -1.0038  1.1264 -1.0424
18533TIP3   OH277089   1.575   5.580  13.545  0.0188  0.4817  0.5776
18533TIP3    H177090   1.637   5.547  13.480  1.2638  0.6954  1.6056
18533TIP3    H277091   1.600   5.672  13.558 -1.0219  0.7996  0.4657
18534TIP3   OH277092   0.828   3.698   3.784 -0.4541  0.4963 -0.1769
18534TIP3    H177093   0.782   3.676   3.865 -2.9338  0.8479 -1.3952
18534TIP3    H277094   0.845   3.613   3.742 -3.9481  0.3623 -1.6816
18535TIP3   OH277095   0.019   0.165  16.065 -0.2297 -0.1650  0.2650
18535TIP3    H177096   0.013   0.176  16.160 -0.9161 -1.0406  0.3406
18535TIP3    H277097   0.061   0.244  16.034 -0.6792  0.4724  1.2269
18536TIP3   OH277098   3.563   4.757   1.936  0.0982  0.0405 -0.0926
18536TIP3    H177099   3.533   4.835   1.982  1.2392 -0.5389  1.7150
18536TIP3    H277100   3.523   4.764   1.849  1.4291  3.4311 -0.5676
18537TIP3   OH277101   4.859   0.163  12.656 -0.3571  0.4478  0.0052
18537TIP3    H177102   4.879   0.163  12.562  2.6448  0.3739  0.5243
18537TIP3    H277103   4.868   0.254  12.683  1.3859  0.1438  0.6013
18538TIP3   OH277104   1.883   0.280  14.240 -0.5509 -0.2089  0.1700
18538TIP3    H177105   1.813   0.286  14.306 -1.0257 -0.4914 -0.3013
18538TIP3    H277106   1.862   0.200  14.191  0.2352 -0.4250  0.1734
18539TIP3   OH277107   3.774   4.701   0.722 -0.1638 -0.1131  0.5185
18539TIP3    H177108   3.699   4.654   0.686  0.0611 -0.3448  0.3474
18539TIP3    H277109   3.738   4.753   0.794 -0.3425 -0.9378  1.0504
18540TIP3   OH277110   1.305   5.318  15.360 -0.3723  0.0261 -0.1876
18540TIP3    H177111   1.244   5.267  15.308 -1.6666  3.0910 -1.9110
18540TIP3    H277112   1.280   5.301  15.451 -2.2247 -0.6194 -0.7877
18541TIP3   OH277113   1.159   2.571   1.091  0.1042 -0.2671  0.2938
18541TIP3    H177114   1.202   2.526   1.164 -0.6112  0.4599  1.2072
18541TIP3    H277115   1.231   2.604   1.038  0.6381 -1.8118  0.0096
18542TIP3   OH277116   2.007   4.483  11.049 -0.1958  0.3820 -0.4850
18542TIP3    H177117   1.918   4.469  11.017  0.2986  1.3922 -2.4793
18542TIP3    H277118   1.996   4.536  11.128 -1.3810  0.3216 -0.5975
18543TIP3   OH277119   4.035   0.940  16.102 -0.4872 -0.2236  0.2791
18543TIP3    H177120   3.946   0.953  16.068 -0.3910 -0.8654 -0.2336
18543TIP3    H277121   4.091   0.987  16.040 -0.2857 -1.6259 -0.6595
18544TIP3   OH277122   3.988   3.423  16.652  0.1745 -0.1163 -0.0689
18544TIP3    H177123   4.015   3.512  16.629 -0.8232 -0.3022 -2.2553
18544TIP3    H277124   4.057   3.391  16.710 -0.5402  2.8091  2.6937
18545TIP3   OH277125   3.303   1.643   4.900 -0.2355 -0.3898 -0.9178
18545TIP3    H177126   3.316   1.703   4.973 -1.3057 -0.3668 -0.7417
18545TIP3    H277127   3.221   1.671   4.859 -0.1103 -0.9570 -1.5882
18546TIP3   OH277128   0.214   0.627   2.895 -0.0784  0.4746 -0.2960
18546TIP3    H177129   0.123   0.610   2.920  0.0853  0.7746  0.5223
18546TIP3    H277130   0.212   0.632   2.799 -1.1041  1.4766 -0.2391
18547TIP3   OH277131   0.946   3.746  15.466 -0.1469  0.5430  0.7703
18547TIP3    H177132   0.982   3.829  15.432  0.4318  0.1581  0.4188
18547TIP3    H277133   0.884   3.773  15.533  0.1170  1.2650  0.7405
18548TIP3   OH277134   4.735   4.236   4.897 -0.0675  0.2773  0.3702
18548TIP3    H177135   4.711   4.170   4.832  2.0548  1.1673 -1.4445
18548TIP3    H277136   4.661   4.297   4.898 -0.8079 -0.5875 -0.0373
18549TIP3   OH277137   0.399   3.448  13.580 -0.0242 -0.3360 -0.0656
18549TIP3    H177138   0.402   3.543  13.582  0.3124 -0.3468  1.9828
18549TIP3    H277139   0.417   3.425  13.489 -1.4754  1.5797 -0.9046
18550TIP3   OH277140   0.307   4.586  16.150  0.1114  0.0396  0.2419
18550TIP3    H177141   0.349   4.672  16.159  0.5109 -0.1756  0.4384
18550TIP3    H277142   0.283   4.581  16.058  0.2090  0.3093  0.2007
18551TIP3   OH277143   1.328   3.030   5.584 -0.6001 -0.2295 -0.8082
18551TIP3    H177144   1.321   3.072   5.498  2.7199 -0.1073 -1.1349
18551TIP3    H277145   1.372   2.946   5.567  0.3849 -0.0785  0.7689
18552TIP3   OH277146   6.805   0.937   6.114 -0.0134 -0.4242  0.2478
18552TIP3    H177147   6.848   0.853   6.098  0.3976 -0.4489  1.3527
18552TIP3    H277148   6.777   0.932   6.206 -1.1793  0.1268 -0.0653
18553TIP3   OH277149   0.454   2.283   5.552  0.4509 -0.5933  0.5045
18553TIP3    H177150   0.436   2.218   5.485 -1.6601 -0.7405  1.1161
18553TIP3    H277151   0.431   2.240   5.634 -2.0987  1.1480  0.8529
18554TIP3   OH277152   2.047   3.358   5.865  0.2410 -0.4180 -0.3768
18554TIP3    H177153   2.079   3.444   5.838 -0.3651 -0.3923 -1.0617
18554TIP3    H277154   2.125   3.302   5.864  0.5886  0.0620 -0.1937
18555TIP3   OH277155   5.565   3.645  14.095 -0.2511  0.2804 -0.0624
18555TIP3    H177156   5.575   3.705  14.021 -0.7670 -0.7586 -0.9894
18555TIP3    H277157   5.471   3.645  14.114 -0.5263 -1.4740 -1.1690
18556TIP3   OH277158   2.331   4.316   2.410  0.2204 -0.3522  0.4833
18556TIP3    H177159   2.314   4.276   2.325 -1.0873  1.7216 -0.2832
18556TIP3    H277160   2.409   4.370   2.397  0.3100 -0.4147  0.7438
18557TIP3   OH277161   1.808   1.052   3.178  0.0722  0.3489 -0.1179
18557TIP3    H177162   1.803   1.129   3.235  1.6993 -0.5601  1.3616
18557TIP3    H277163   1.717   1.029   3.160 -0.4505  1.8543  0.4527
18558TIP3   OH277164   5.294   3.868   0.044  0.4383  0.2985 -0.0724
18558TIP3    H177165   5.298   3.952  -0.003 -1.4199  0.4135 -0.1215
18558TIP3    H277166   5.380   3.829   0.031  0.9982  1.7277 -0.9433
18559TIP3   OH277167   5.547   4.169  13.148  0.1361  0.1900  0.1923
18559TIP3    H177168   5.489   4.147  13.220  0.7658  1.7579  1.2441
18559TIP3    H277169   5.631   4.130  13.172  0.4840  1.1552  0.6013
18560TIP3   OH277170   0.878   3.830  13.207 -0.1426  0.1641 -0.6769
18560TIP3    H177171   0.863   3.779  13.287  0.7467  0.0277 -0.5940
18560TIP3    H277172   0.908   3.915  13.238  1.6230 -0.3482 -0.8607
18561TIP3   OH277173   4.863   0.612  13.251 -0.3783  0.8587  0.1150
18561TIP3    H177174   4.849   0.703  13.224  1.4148  0.4687 -2.4651
18561TIP3    H277175   4.817   0.560  13.185 -1.9506 -0.1917  1.9268
18562TIP3   OH277176   0.726   4.279  15.337  0.0541 -0.7768  0.5573
18562TIP3    H177177   0.781   4.210  15.374  0.1229 -0.7917  0.4280
18562TIP3    H277178   0.709   4.251  15.247 -0.0129 -0.6814  0.5396
18563TIP3   OH277179   5.732   2.258   5.714 -0.3669 -0.0288  0.4259
18563TIP3    H177180   5.703   2.266   5.805  0.5892 -1.2850  0.8702
18563TIP3    H277181   5.780   2.175   5.712 -0.9419 -0.3530 -1.3882
18564TIP3   OH277182   1.068   1.978  16.444 -0.2652  0.1919  0.2541
18564TIP3    H177183   0.989   2.027  16.466 -0.8556 -0.5665 -0.1186
18564TIP3    H277184   1.055   1.892  16.484  0.0793 -0.1513 -0.3561
18565TIP3   OH277185   1.872   6.608   5.025  0.3278 -0.3484 -0.1187
18565TIP3    H177186   1.780   6.632   5.039  0.6172 -0.1661  1.7747
18565TIP3    H277187   1.909   6.605   5.113  1.8343 -1.6840 -0.7605
18566TIP3   OH277188   5.046   4.531   3.248  0.5244  0.3040 -0.1941
18566TIP3    H177189   4.980   4.554   3.182 -0.5504 -1.4870  0.1755
18566TIP3    H277190   5.102   4.467   3.204  2.7439  2.5785 -0.8455
18567TIP3   OH277191   4.580   3.773   6.177 -0.3624  0.3841  0.3725
18567TIP3    H177192   4.560   3.703   6.239 -2.0452  1.6600  1.3745
18567TIP3    H277193   4.675   3.778   6.176 -0.1882 -1.8741  0.2592
18568TIP3   OH277194   1.982   3.383   2.536 -0.2570  0.2505 -0.2360
18568TIP3    H177195   2.046   3.415   2.599  2.2098  0.6694 -2.7537
18568TIP3    H277196   1.897   3.400   2.577  1.1767  0.9825  2.6580
18569TIP3   OH277197   6.579   2.405   3.907 -0.2152 -0.0775 -0.0882
18569TIP3    H177198   6.640   2.478   3.896 -0.0457 -0.3367 -0.9251
18569TIP3    H277199   6.510   2.421   3.843 -0.7166 -0.1079  0.4395
18570TIP3   OH277200   3.795   2.606  12.838  0.1133  0.1605 -0.6119
18570TIP3    H177201   3.762   2.695  12.838 -1.3677 -0.3561 -0.0192
18570TIP3    H277202   3.722   2.553  12.804  0.3656 -0.9958  0.5527
18571TIP3   OH277203   5.925   2.113   4.766 -0.5007 -0.1836 -0.0006
18571TIP3    H177204   6.019   2.121   4.781 -0.7820  0.9709  1.4566
18571TIP3    H277205   5.889   2.198   4.793 -2.0125 -0.7892  0.0210
18572TIP3   OH277206   2.366   1.555   0.503  0.5928  0.2894 -0.5673
18572TIP3    H177207   2.399   1.642   0.480  1.5611  0.6507  1.8848
18572TIP3    H277208   2.444   1.499   0.502  0.6227  0.2341  1.1352
18573TIP3   OH277209   1.865   6.527  11.581 -0.2843  0.6789  0.3934
18573TIP3    H177210   1.916   6.607  11.591  0.4147  0.2514  0.3165
18573TIP3    H277211   1.864   6.488  11.668  0.7354 -0.0256  0.1087
18574TIP3   OH277212   5.335   6.513   4.232 -0.2511 -0.0805 -0.0786
18574TIP3    H177213   5.254   6.525   4.183 -0.6349 -1.2574  0.2513
18574TIP3    H277214   5.393   6.466   4.171 -1.0134 -2.2989  0.7997
18575TIP3   OH277215   1.345   4.757  15.230 -0.3286  0.6972  0.3043
18575TIP3    H177216   1.373   4.816  15.160  0.2701 -0.8233 -0.8050
18575TIP3    H277217   1.250   4.768  15.235 -0.3453  1.0405 -0.5536
18576TIP3   OH277218   5.499   5.117   5.939  0.2120  0.2274  0.2771
18576TIP3    H177219   5.543   5.052   5.994  0.3832  0.0866 -0.0289
18576TIP3    H277220   5.546   5.198   5.956 -0.0760  0.3007  0.7496
18577TIP3   OH277221   4.763   2.572  15.647  0.5900 -0.4805 -0.5752
18577TIP3    H177222   4.841   2.590  15.596  0.4221  0.4690 -0.5210
18577TIP3    H277223   4.786   2.496  15.701  2.0127  0.6876  0.5570
18578TIP3   OH277224   6.654   4.322   3.045 -0.0369  0.6866  0.2137
18578TIP3    H177225   6.662   4.234   3.081 -0.5740  0.9412  1.0021
18578TIP3    H277226   6.689   4.316   2.956 -0.3298 -0.3834  0.1616
18579TIP3   OH277227   1.437   1.385  11.492 -0.1874  0.3024 -0.0098
18579TIP3    H177228   1.519   1.356  11.454 -0.8270  1.4221 -2.4028
18579TIP3    H277229   1.392   1.431  11.421 -1.4437  2.5982  2.1164
18580TIP3   OH277230   4.546   3.932   4.334 -0.0133 -0.3595 -0.1667
18580TIP3    H177231   4.537   3.873   4.260 -0.3748 -0.9488  0.3364
18580TIP3    H277232   4.458   3.964   4.351  0.1925  0.4073 -0.4941
18581TIP3   OH277233   6.085   3.451   0.802 -1.0470 -0.3857  0.4164
18581TIP3    H177234   6.025   3.415   0.867 -0.3107 -0.4722  1.0533
18581TIP3    H277235   6.162   3.394   0.806  0.9508  2.2024  2.7640
18582TIP3   OH277236   6.126   3.128   1.932  0.7872  0.0921 -0.1665
18582TIP3    H177237   6.036   3.139   1.961 -0.0699 -0.3798 -2.4623
18582TIP3    H277238   6.173   3.202   1.972 -0.6998  0.6702  0.5967
18583TIP3   OH277239   3.432   5.285   2.040 -0.0008  0.0540 -0.2816
18583TIP3    H177240   3.394   5.328   1.963 -0.5098 -0.6818 -0.4516
18583TIP3    H277241   3.392   5.330   2.115  0.4783  0.7561 -0.4427
18584TIP3   OH277242   4.523   1.003   6.959  0.1638 -0.4061  0.4324
18584TIP3    H177243   4.455   0.936   6.950 -0.1161  0.0133 -0.6285
18584TIP3    H277244   4.605   0.954   6.957 -0.0831 -0.8930  1.5147
18585TIP3   OH277245   5.747   3.014   1.848 -0.1021 -0.1942  0.5328
18585TIP3    H177246   5.763   3.051   1.935 -2.1468 -0.6438  1.1639
18585TIP3    H277247   5.671   2.956   1.861 -0.2296 -0.5392 -1.4837
18586TIP3   OH277248   1.885   0.287  12.189  0.2363  0.5357  0.2144
18586TIP3    H177249   1.951   0.326  12.132 -0.9449  0.1735 -1.4800
18586TIP3    H277250   1.812   0.267  12.131 -1.5273  1.2458  2.0477
18587TIP3   OH277251   1.845   5.538   0.154  0.3220 -0.6714  0.2617
18587TIP3    H177252   1.782   5.525   0.225 -0.5497  3.9674  0.6318
18587TIP3    H277253   1.908   5.602   0.188  0.8167  0.4977 -2.5385
18588TIP3   OH277254   6.037   4.824  11.836  0.1310  0.6903 -0.1272
18588TIP3    H177255   6.127   4.823  11.806  0.0633  3.1106 -0.5636
18588TIP3    H277256   6.036   4.763  11.910  1.4859 -1.3130 -1.6434
18589TIP3   OH277257   2.369   3.347   5.450 -0.6560 -0.4039 -0.1600
18589TIP3    H177258   2.394   3.437   5.472 -1.4846 -0.2621  0.2190
18589TIP3    H277259   2.419   3.293   5.511 -1.0424 -0.1393  0.3940
18590TIP3   OH277260   2.885   0.605   4.941 -0.7802 -0.0059  0.6477
18590TIP3    H177261   2.830   0.527   4.940 -0.8605  0.0056  2.1170
18590TIP3    H277262   2.834   0.671   4.894  0.2106 -1.3609 -2.6171
18591TIP3   OH277263   4.144   5.019  12.618  0.0253 -0.2434 -0.0071
18591TIP3    H177264   4.066   4.971  12.592  0.5752 -1.1982  0.0455
18591TIP3    H277265   4.141   5.100  12.567  0.2873 -1.3774 -1.9299
18592TIP3   OH277266   5.969   4.441   3.106 -0.4220 -0.2755 -0.2335
18592TIP3    H177267   5.970   4.357   3.060  0.5781 -0.0515 -0.6553
18592TIP3    H277268   6.047   4.439   3.161 -1.0267 -0.0942  0.6574
18593TIP3   OH277269   5.703   3.472  15.396 -0.2421 -0.0328 -0.0749
18593TIP3    H177270   5.758   3.542  15.430 -1.5792  1.6320 -1.1804
18593TIP3    H277271   5.710   3.480  15.300 -4.1445  1.8776 -0.4204
18594TIP3   OH277272   6.079   4.441  11.796  0.4758 -0.5404  0.2184
18594TIP3    H177273   6.010   4.455  11.860  1.0026  2.6827  0.2320
18594TIP3    H277274   6.033   4.438  11.712  0.2082  0.7189  0.3027
18595TIP3   OH277275   3.605   4.214  13.505 -0.1492  0.0682  0.0702
18595TIP3    H177276   3.550   4.210  13.427 -0.6861 -0.2255  0.4528
18595TIP3    H277277   3.692   4.189  13.475 -0.3783 -0.1774 -0.4064
18596TIP3   OH277278   1.168   3.087  16.642 -0.1364  0.2788 -0.3289
18596TIP3    H177279   1.100   3.023  16.665 -0.2666  0.6733  0.4192
18596TIP3    H277280   1.243   3.061  16.695 -1.2676  2.8160  2.8218
18597TIP3   OH277281   5.911   1.738   5.333 -0.0571  0.5411 -0.3778
18597TIP3    H177282   5.936   1.652   5.298 -1.5821  0.1564 -0.5966
18597TIP3    H277283   5.958   1.745   5.416 -0.6767 -0.9674  0.1439
18598TIP3   OH277284   5.380   6.661   3.886 -0.3023  0.5118 -0.0550
18598TIP3    H177285   5.352   6.571   3.871 -1.4012  0.8443 -0.1284
18598TIP3    H277286   5.319   6.714   3.834  0.6795  1.2710 -0.4647
18599TIP3   OH277287   6.405   4.130  14.160 -0.5059 -0.2099  0.0308
18599TIP3    H177288   6.468   4.064  14.189 -2.3405 -1.6620  0.9381
18599TIP3    H277289   6.455   4.189  14.104  0.9073 -3.1996 -2.0452
18600TIP3   OH277290   4.240   4.355  14.297  0.4564 -0.5166 -0.1862
18600TIP3    H177291   4.321   4.309  14.319 -0.0106 -0.8147  0.9668
18600TIP3    H277292   4.209   4.390  14.381  0.7589  1.8696 -0.9908
18601TIP3   OH277293   2.321   5.361   5.534  0.6471 -0.2962  0.0961
18601TIP3    H177294   2.338   5.445   5.491  1.1986  0.1103  1.0719
18601TIP3    H277295   2.402   5.311   5.522  0.2074 -0.8116 -0.7513
18602TIP3   OH277296   5.595   0.651   2.987 -1.1313 -0.2689  0.7061
18602TIP3    H177297   5.531   0.679   3.053  0.3466 -0.4438  2.2830
18602TIP3    H277298   5.665   0.716   2.993 -1.0443 -0.1877 -0.8553
18603TIP3   OH277299   0.789   5.071  10.996  0.2089  0.4998 -0.0970
18603TIP3    H177300   0.815   4.983  10.971 -1.6514  0.2124 -1.2117
18603TIP3    H277301   0.798   5.122  10.916 -0.1344  0.9779  0.1627
18604TIP3   OH277302   4.003   3.010  15.082  0.3371 -0.3302  0.4029
18604TIP3    H177303   4.067   2.954  15.126  1.8640  1.4477  0.5873
18604TIP3    H277304   4.013   2.991  14.989  0.4060 -0.7658  0.4973
18605TIP3   OH277305   6.646   3.924   2.994  0.7157  0.2367 -0.4595
18605TIP3    H177306   6.640   3.837   2.956 -2.5236  1.2005 -2.5492
18605TIP3    H277307   6.724   3.962   2.954  1.1828 -1.0823 -0.8608
18606TIP3   OH277308   1.205   0.822  12.184  0.1826 -0.4716 -0.3284
18606TIP3    H177309   1.125   0.852  12.140 -0.4155  0.3763  1.2463
18606TIP3    H277310   1.203   0.727  12.175 -0.3557 -0.3714 -1.3756
18607TIP3   OH277311   3.481   1.902   6.775  0.3741 -0.1729  0.3682
18607TIP3    H177312   3.535   1.974   6.743  0.8587  0.4806  2.4531
18607TIP3    H277313   3.544   1.836   6.805  0.0629  0.1295  1.8015
18608TIP3   OH277314   5.106   0.643  15.991 -0.3011 -0.1238 -0.6068
18608TIP3    H177315   5.047   0.627  15.917  0.7827  1.8384 -1.9690
18608TIP3    H277316   5.191   0.611  15.961 -0.1750 -0.8691  0.4778
18609TIP3   OH277317   1.310   0.180   4.601  0.0063  0.2714  0.2965
18609TIP3    H177318   1.237   0.198   4.660  0.6938 -2.6249  2.2457
18609TIP3    H277319   1.275   0.114   4.540  0.0869  1.3195 -0.9371
18610TIP3   OH277320   5.158   5.980  11.623  0.3911  0.1049  0.4306
18610TIP3    H177321   5.196   6.063  11.593 -0.0067  0.0697 -0.2042
18610TIP3    H277322   5.234   5.925  11.644  0.6753  0.3704  0.1168
18611TIP3   OH277323   0.886   4.576  11.787  0.0970 -0.5852 -0.0173
18611TIP3    H177324   0.893   4.484  11.761 -0.8928 -1.2745  1.9034
18611TIP3    H277325   0.797   4.584  11.820  0.5968  0.7092  1.0795
18612TIP3   OH277326   0.650   2.362   0.976 -0.0510  0.4064  1.0187
18612TIP3    H177327   0.690   2.339   1.060 -1.0638  0.6166  1.5667
18612TIP3    H277328   0.582   2.426   0.999 -0.8088 -0.0654  0.1151
18613TIP3   OH277329   4.700   2.055  11.485  0.0791 -0.2022  0.4334
18613TIP3    H177330   4.666   2.008  11.561 -0.4271 -0.9807 -0.2639
18613TIP3    H277331   4.792   2.028  11.480  0.0568 -0.3229  0.6329
18614TIP3   OH277332   1.527   1.470   0.196 -0.0524 -0.7909  0.2731
18614TIP3    H177333   1.600   1.442   0.141 -0.5064 -0.4329 -0.5248
18614TIP3    H277334   1.558   1.550   0.238  0.3376 -1.1286  0.6456
18615TIP3   OH277335   5.918   0.137   6.350 -0.3580  0.1921  0.2889
18615TIP3    H177336   5.829   0.156   6.319 -0.8208 -1.7650  0.3083
18615TIP3    H277337   5.970   0.211   6.319 -2.0292  1.5447  0.5272
18616TIP3   OH277338   3.892   1.248  15.134 -0.4556 -0.0872  0.0834
18616TIP3    H177339   3.911   1.249  15.040 -0.3453  1.1626  0.1013
18616TIP3    H277340   3.803   1.214  15.141 -1.9011  3.0840 -0.8067
18617TIP3   OH277341   3.015   5.357   5.669 -0.4116  0.4037 -1.0597
18617TIP3    H177342   2.985   5.302   5.596 -0.2472 -0.5890 -0.3898
18617TIP3    H277343   3.091   5.403   5.634 -0.7758  0.4864 -1.7514
18618TIP3   OH277344   1.827   2.361   1.467  0.0787 -0.2037 -0.5443
18618TIP3    H177345   1.764   2.390   1.534  0.1797 -1.1349 -0.0312
18618TIP3    H277346   1.783   2.380   1.384 -1.7109 -2.4918 -0.2135
18619TIP3   OH277347   0.442   0.095   1.125 -0.4033  0.1491 -0.1087
18619TIP3    H177348   0.372   0.160   1.136 -0.4444 -0.0631  1.0560
18619TIP3    H277349   0.420   0.050   1.044 -2.2616 -0.6565  0.7968
18620TIP3   OH277350   5.434   2.532   2.142  0.4014 -0.0329  0.1114
18620TIP3    H177351   5.407   2.564   2.056 -0.4542  0.5145  0.5619
18620TIP3    H277352   5.373   2.460   2.160  0.5599 -0.1270  0.2675
18621TIP3   OH277353   1.210   0.506   2.860 -0.6175 -0.5702  0.2454
18621TIP3    H177354   1.169   0.498   2.774  0.2705 -2.2463 -0.0700
18621TIP3    H277355   1.143   0.474   2.921 -0.0845 -2.6717 -0.2015
18622TIP3   OH277356   4.714   6.624   6.034 -0.1725  0.5688 -0.0601
18622TIP3    H177357   4.664   6.623   6.115 -0.1852 -1.0458 -0.0654
18622TIP3    H277358   4.803   6.602   6.061 -0.4698 -1.5527 -0.6187
18623TIP3   OH277359   6.064   6.560   4.725  0.6149  0.9004  0.5513
18623TIP3    H177360   6.115   6.584   4.803  1.9874  0.2585 -0.1073
18623TIP3    H277361   6.125   6.572   4.652 -0.8969  2.3017 -0.5546
18624TIP3   OH277362   1.379   6.278   2.534  0.1963 -0.0663 -0.2546
18624TIP3    H177363   1.397   6.353   2.591 -1.3585 -1.1359  1.7834
18624TIP3    H277364   1.316   6.310   2.470 -2.1654 -0.0683  1.9289
18625TIP3   OH277365   3.054   1.136  13.056 -0.1584 -0.3841  0.7437
18625TIP3    H177366   3.137   1.149  13.010  0.0657  1.6462  1.6211
18625TIP3    H277367   3.080   1.122  13.148 -0.7852  0.3915  1.0428
18626TIP3   OH277368   4.512   1.050   4.024 -0.1267 -0.0975  0.5838
18626TIP3    H177369   4.425   1.013   4.009 -0.0472 -0.8128  1.7445
18626TIP3    H277370   4.496   1.142   4.045 -0.8077 -0.5980  2.5072
18627TIP3   OH277371   6.481   2.362  12.078 -0.0014  0.2291 -0.2449
18627TIP3    H177372   6.422   2.375  12.004 -0.0863  1.2412 -0.0227
18627TIP3    H277373   6.446   2.419  12.146 -0.5736 -1.4971  0.9820
18628TIP3   OH277374   2.088   6.763  10.534  0.2059 -1.0073 -0.4131
18628TIP3    H177375   2.152   6.693  10.525  0.0973 -1.3267  0.9853
18628TIP3    H277376   2.003   6.719  10.528  0.1314 -1.1402  1.1165
18629TIP3   OH277377   1.779   3.418   0.444 -0.3328 -1.0880 -0.6085
18629TIP3    H177378   1.702   3.378   0.486 -1.0137  1.6131  0.9846
18629TIP3    H277379   1.741   3.482   0.384  0.6955 -0.9258 -1.0906
18630TIP3   OH277380   0.808   1.964  15.674 -0.0029 -0.4992  0.6010
18630TIP3    H177381   0.900   1.939  15.676  0.3462  0.4693 -1.1323
18630TIP3    H277382   0.778   1.942  15.585 -0.9235  0.8556  0.5358
18631TIP3   OH277383   5.424   5.243   4.897  0.3358  0.0747  0.3236
18631TIP3    H177384   5.444   5.325   4.851 -1.1133  0.9121  1.1056
18631TIP3    H277385   5.346   5.210   4.853  1.4716 -1.4424 -0.6260
18632TIP3   OH277386   6.488   5.119   1.493 -0.2433  0.3502  0.1559
18632TIP3    H177387   6.465   5.207   1.463 -0.1952  0.3939  0.2491
18632TIP3    H277388   6.471   5.063   1.417 -0.3700  0.4255  0.1297
18633TIP3   OH277389   3.813   4.300  16.704 -0.2866 -0.0538 -0.0031
18633TIP3    H177390   3.796   4.216  16.663 -0.4555 -0.6916  1.3419
18633TIP3    H277391   3.850   4.279  16.790 -3.7590  1.0963  1.9857
18634TIP3   OH277392   5.766   0.406  14.470  0.6142 -0.4093  0.2742
18634TIP3    H177393   5.804   0.493  14.483  1.4149 -0.6840 -0.1399
18634TIP3    H277394   5.840   0.352  14.442 -0.0189 -1.0503 -0.1918
18635TIP3   OH277395   4.781   1.857   5.244  0.1504 -0.2390  0.3030
18635TIP3    H177396   4.696   1.822   5.273 -1.1319  1.7390 -0.8987
18635TIP3    H277397   4.759   1.922   5.177  2.6341  0.3172 -0.0533
18636TIP3   OH277398   0.169   5.930  13.514 -0.1202  0.1366 -0.1576
18636TIP3    H177399   0.074   5.916  13.519 -0.5655  2.7388  0.2459
18636TIP3    H277400   0.204   5.846  13.485 -2.4956 -1.0359  0.0952
18637TIP3   OH277401   1.510   3.575  12.196 -0.2251 -0.1464  0.4040
18637TIP3    H177402   1.592   3.581  12.245  0.3599  0.1609 -0.5978
18637TIP3    H277403   1.463   3.655  12.217 -0.6712 -0.7196  1.6696
18638TIP3   OH277404   5.087   1.910   4.532 -0.3953  0.3794  0.2635
18638TIP3    H177405   5.078   1.984   4.592  0.1442 -0.2074  1.0865
18638TIP3    H277406   5.056   1.835   4.581 -0.0512 -0.0966 -0.2359
18639TIP3   OH277407   4.935   6.722   0.230 -0.4265  0.2519 -0.1878
18639TIP3    H177408   4.873   6.699   0.161 -0.6125 -1.2854  0.4688
18639TIP3    H277409   4.899   6.802   0.268 -1.6111 -0.2028 -0.3109
18640TIP3   OH277410   4.129   4.116  12.446  0.1356 -0.0049 -0.1640
18640TIP3    H177411   4.040   4.148  12.463  0.3402  0.6410 -0.2599
18640TIP3    H277412   4.150   4.149  12.359  1.2065  1.5642  0.6380
18641TIP3   OH277413   1.895   6.155   2.392  0.3850  0.0145  0.0590
18641TIP3    H177414   1.808   6.136   2.427 -0.3444  2.3889 -0.2807
18641TIP3    H277415   1.903   6.099   2.315 -0.2799 -1.1575  0.7991
18642TIP3   OH277416   1.456   4.155  13.840  0.0231 -0.0422  0.3588
18642TIP3    H177417   1.395   4.084  13.818  0.2591 -0.1257 -0.0501
18642TIP3    H277418   1.521   4.115  13.897 -0.0746 -0.0528  0.4627
18643TIP3   OH277419   4.342   5.233  13.281 -0.3060  0.0366  0.7152
18643TIP3    H177420   4.397   5.222  13.204 -2.0267 -2.7585 -0.2678
18643TIP3    H277421   4.285   5.308  13.259  0.6645  0.6509  0.2383
18644TIP3   OH277422   1.183   4.455  16.133 -0.8462 -0.5489 -0.1640
18644TIP3    H177423   1.263   4.474  16.084 -1.8617 -0.8413 -2.0233
18644TIP3    H277424   1.192   4.363  16.158  0.5157  0.0751  1.9467
18645TIP3   OH277425   5.704   0.948   0.641  0.2761 -0.5952 -0.2903
18645TIP3    H177426   5.626   0.996   0.614  0.1911  0.4925  1.6938
18645TIP3    H277427   5.770   0.971   0.576 -0.5555 -0.0785 -0.9755
18646TIP3   OH277428   6.069   6.027   5.514  0.1755  0.6143  0.0125
18646TIP3    H177429   6.046   5.942   5.551  3.6795 -0.6547 -0.3690
18646TIP3    H277430   6.107   6.076   5.587  0.2375  0.9787 -0.2601
18647TIP3   OH277431   1.268   0.576   6.353  0.2797 -0.4020  0.0230
18647TIP3    H177432   1.319   0.656   6.368  1.4929 -1.4613  2.0403
18647TIP3    H277433   1.226   0.559   6.437 -1.3304 -1.0061 -0.8607
18648TIP3   OH277434   2.108   4.968   0.742 -0.3715  0.0228 -0.0510
18648TIP3    H177435   2.151   4.885   0.721  1.2916  0.8369 -0.0075
18648TIP3    H277436   2.063   4.992   0.661  1.2198  0.2954 -0.8912
18649TIP3   OH277437   3.683   5.214   0.491 -0.5185 -0.1100 -0.1574
18649TIP3    H177438   3.623   5.147   0.458 -1.0495  0.2767  0.0278
18649TIP3    H277439   3.710   5.182   0.577 -1.1151  0.1291  0.1201
18650TIP3   OH277440   5.733   0.560   2.117  0.3972  0.2527  0.3301
18650TIP3    H177441   5.682   0.496   2.066 -1.1966  1.8023 -0.1204
18650TIP3    H277442   5.705   0.645   2.083  2.4340  1.2240  0.9329
18651TIP3   OH277443   0.705   0.562   4.244  0.3479  0.2178  0.1402
18651TIP3    H177444   0.727   0.469   4.242  1.6687  0.4981  0.8956
18651TIP3    H277445   0.762   0.600   4.310 -1.7851  1.1899  1.5360
18652TIP3   OH277446   0.186   6.145   3.762  0.0809 -0.5071  0.3021
18652TIP3    H177447   0.101   6.175   3.792  0.6908 -1.9321  3.9544
18652TIP3    H277448   0.246   6.216   3.785  0.0956  0.1420 -1.5239
18653TIP3   OH277449   4.464   5.661  14.798 -0.1598  0.3394 -0.2407
18653TIP3    H177450   4.498   5.733  14.745  1.1988 -0.6707 -0.8117
18653TIP3    H277451   4.543   5.614  14.827 -1.0108 -1.8057 -1.1704
18654TIP3   OH277452   5.302   5.914   0.102  0.4074 -0.1157  0.1122
18654TIP3    H177453   5.372   5.867   0.057 -0.1584 -1.0595  0.1869
18654TIP3    H277454   5.347   5.985   0.149  1.3272 -0.7806  0.2725
18655TIP3   OH277455   2.777   4.052  13.186  0.3591  0.7048 -0.0282
18655TIP3    H177456   2.842   3.981  13.186  1.6498  1.8381  0.0935
18655TIP3    H277457   2.758   4.068  13.278  2.2404  2.3496  0.1586
18656TIP3   OH277458   2.850   1.019   1.249 -0.3216  0.3704  0.0145
18656TIP3    H177459   2.937   1.027   1.212  0.3978  0.3561  1.6129
18656TIP3    H277460   2.791   1.029   1.174  0.8971  4.3827 -0.6631
18657TIP3   OH277461   1.505   5.726  15.740  0.2700 -0.0081  0.0360
18657TIP3    H177462   1.569   5.791  15.713  1.8249 -0.6680  1.8949
18657TIP3    H277463   1.433   5.777  15.777  0.8235  0.6887  0.1690
18658TIP3   OH277464   6.384   1.696   3.846 -0.6185  0.6196 -0.4014
18658TIP3    H177465   6.404   1.639   3.772 -1.3556 -0.4022  0.1412
18658TIP3    H277466   6.291   1.716   3.835 -0.7086  0.5362  0.1783
18659TIP3   OH277467   5.420   6.412   1.765  0.3209  0.1835  0.5126
18659TIP3    H177468   5.343   6.470   1.768  0.8111  0.9154 -0.4247
18659TIP3    H277469   5.477   6.452   1.699  1.8886  0.1090  1.7650
18660TIP3   OH277470   0.373   3.254  12.301 -0.2247 -0.4471  0.1743
18660TIP3    H177471   0.320   3.330  12.327 -0.8263 -0.3482 -1.2483
18660TIP3    H277472   0.368   3.254  12.205 -0.1940 -2.2570  0.1489
18661TIP3   OH277473   4.455   4.627   2.282  0.4064 -0.3483 -0.5491
18661TIP3    H177474   4.413   4.638   2.197 -0.0072  0.8968 -0.2034
18661TIP3    H277475   4.544   4.599   2.262 -0.2012 -1.8585 -1.3267
18662TIP3   OH277476   3.483   0.672  11.687  0.6205  0.5130  0.2843
18662TIP3    H177477   3.438   0.611  11.745  1.9225 -0.1925  0.5837
18662TIP3    H277478   3.415   0.700  11.624 -0.2365 -0.4541  0.7524
18663TIP3   OH277479   1.005   2.826   0.647 -0.4081 -0.5147 -0.5872
18663TIP3    H177480   0.988   2.735   0.622 -3.7895 -0.0703 -0.4023
18663TIP3    H277481   0.963   2.878   0.578 -1.8152  0.8093  1.1652
18664TIP3   OH277482   5.295   1.346  11.395 -0.2398 -0.3666 -0.0723
18664TIP3    H177483   5.332   1.414  11.338 -1.4866  0.7238  0.3538
18664TIP3    H277484   5.234   1.298  11.338  0.3327 -0.8628 -0.2687
18665TIP3   OH277485   5.538   1.544  14.820 -0.2917  0.4541 -0.0128
18665TIP3    H177486   5.466   1.599  14.851  0.4762  0.4733  1.8800
18665TIP3    H277487   5.584   1.599  14.757 -1.2054  0.8866 -0.3243
18666TIP3   OH277488   0.299   6.551  15.939  0.3108 -0.1096 -0.3312
18666TIP3    H177489   0.299   6.573  15.846 -2.3549  1.4621 -0.0780
18666TIP3    H277490   0.227   6.603  15.976 -0.4097 -2.5971  2.1209
18667TIP3   OH277491   5.145   2.336   0.319 -0.1540 -0.3093 -0.1366
18667TIP3    H177492   5.224   2.298   0.355 -0.0428  0.7456  0.7791
18667TIP3    H277493   5.129   2.414   0.372 -0.9743  0.3195 -1.2513
18668TIP3   OH277494   0.882   5.082  13.214  0.3650  0.1488 -0.0815
18668TIP3    H177495   0.938   5.025  13.268 -1.5759 -0.8870  0.9828
18668TIP3    H277496   0.872   5.162  13.266 -0.8688 -0.5395  0.7900
18669TIP3   OH277497   2.880   1.334   2.226  0.4767  0.0399 -0.6020
18669TIP3    H177498   2.867   1.429   2.223 -1.3050 -0.1830 -1.2130
18669TIP3    H277499   2.970   1.323   2.256  0.3720  1.9002  0.5651
18670TIP3   OH277500   5.420   3.752   1.940 -0.2084  0.7518  0.5556
18670TIP3    H177501   5.376   3.737   2.024  3.0847  0.5438  2.4185
18670TIP3    H277502   5.410   3.846   1.925 -0.1553  0.9461  1.6227
18671TIP3   OH277503   5.701   2.919  15.853  0.8671  0.2743 -0.1983
18671TIP3    H177504   5.708   2.834  15.809  1.2138 -0.1688  0.6895
18671TIP3    H277505   5.726   2.983  15.786 -0.2177 -0.2378 -1.1311
18672TIP3   OH277506   0.901   4.917  11.434  0.4908  0.4431  0.4240
18672TIP3    H177507   0.842   4.860  11.483  0.5133  0.4034  0.4047
18672TIP3    H277508   0.917   4.991  11.492 -1.6561  1.7586 -0.5353
18673TIP3   OH277509   0.373   1.119  13.120 -0.5310 -0.0475  0.5020
18673TIP3    H177510   0.451   1.137  13.173  0.0767 -2.0032  0.3632
18673TIP3    H277511   0.405   1.064  13.049 -2.0056 -0.7515  0.3463
18674TIP3   OH277512   1.671   4.037   0.686 -0.0087 -0.3386  0.4544
18674TIP3    H177513   1.740   4.090   0.646 -0.3032  0.2528  0.7049
18674TIP3    H277514   1.700   4.025   0.777  0.6107 -1.5930  0.1129
18675TIP3   OH277515   3.654   6.271   4.035  0.4988 -0.6792 -0.5752
18675TIP3    H177516   3.596   6.266   4.111  0.0254 -1.2092 -0.9592
18675TIP3    H277517   3.610   6.333   3.976  1.4430  0.6307  0.0530
18676TIP3   OH277518   3.343   2.806  15.670  0.0536 -0.9436 -0.1920
18676TIP3    H177519   3.248   2.798  15.682  0.0437 -0.1091  0.3932
18676TIP3    H277520   3.375   2.837  15.755  0.7303 -0.2792 -0.6831
18677TIP3   OH277521   5.898   1.769   2.152  0.1239 -0.2045 -0.5220
18677TIP3    H177522   5.803   1.774   2.169  0.1402 -0.3824 -0.3764
18677TIP3    H277523   5.912   1.831   2.081  0.1376  0.9789  0.4712
18678TIP3   OH277524   3.658   0.078  16.216 -0.5263  0.4423  0.3359
18678TIP3    H177525   3.586   0.118  16.265 -0.3317  3.4583 -1.5761
18678TIP3    H277526   3.666   0.132  16.137  0.2687 -3.1168 -2.2622
18679TIP3   OH277527   0.334   0.852  14.714 -0.7685 -0.3168  0.0409
18679TIP3    H177528   0.301   0.919  14.774  1.3831  1.0890 -0.2054
18679TIP3    H277529   0.404   0.809  14.764  0.0566 -0.1146 -0.9090
18680TIP3   OH277530   4.784   1.989   0.474 -0.0894 -0.2871  0.3731
18680TIP3    H177531   4.828   1.905   0.484  1.8961  0.5500 -0.7358
18680TIP3    H277532   4.734   1.980   0.392  1.4411  0.1005 -0.6444
18681TIP3   OH277533   3.610   5.036  10.658 -0.5682  0.0008 -0.3212
18681TIP3    H177534   3.561   5.092  10.720 -0.1878 -0.1748  0.1481
18681TIP3    H277535   3.547   4.969  10.632 -0.4664 -0.4550  0.5827
18682TIP3   OH277536   1.678   1.172  15.306 -0.7565  0.3804 -0.6357
18682TIP3    H177537   1.615   1.166  15.235 -0.4672  0.6366 -0.9200
18682TIP3    H277538   1.756   1.126  15.273 -0.3720  1.1091 -0.7715
18683TIP3   OH277539   3.658   3.620  15.291 -0.6473  0.0153 -0.7307
18683TIP3    H177540   3.570   3.654  15.280 -1.0784 -0.6150  0.4572
18683TIP3    H277541   3.706   3.650  15.215 -1.8022  0.6549 -1.2302
18684TIP3   OH277542   5.877   6.499  14.058  0.0834 -0.4278 -0.5449
18684TIP3    H177543   5.915   6.420  14.096 -0.0390 -0.8547 -1.2916
18684TIP3    H277544   5.934   6.570  14.089  1.5260 -1.0516 -1.6376
18685TIP3   OH277545   0.001   5.527   0.596 -0.6257  0.0728 -0.2213
18685TIP3    H177546  -0.042   5.546   0.680 -0.4436 -0.5819  0.0275
18685TIP3    H277547   0.037   5.439   0.608 -0.7733 -0.1035 -1.0655
18686TIP3   OH277548   4.070   1.898  14.101  0.1281 -0.0085 -0.4083
18686TIP3    H177549   4.096   1.855  14.182 -0.3398  1.1122  0.3535
18686TIP3    H277550   4.147   1.889  14.043  1.2928  1.0154  0.9001
18687TIP3   OH277551   3.860   2.259   2.203 -0.1571  0.0029 -0.4755
18687TIP3    H177552   3.823   2.258   2.292 -1.0156 -1.5313 -0.8162
18687TIP3    H277553   3.784   2.265   2.145  0.4109  1.2778 -1.1334
18688TIP3   OH277554   4.419   2.842  14.995 -0.1299 -0.4015  0.4814
18688TIP3    H177555   4.512   2.817  14.998 -0.5423 -2.0002  1.2745
18688TIP3    H277556   4.393   2.845  15.087 -0.7399  0.6009  0.2849
18689TIP3   OH277557   3.323   6.268   3.886 -0.1841  0.9730 -0.4121
18689TIP3    H177558   3.340   6.314   3.968 -0.6344 -1.7053  1.3152
18689TIP3    H277559   3.232   6.290   3.866 -0.6954  0.1559  0.8941
18690TIP3   OH277560   5.009   3.373   2.635 -0.1829 -0.4767 -0.0203
18690TIP3    H177561   5.103   3.395   2.635 -0.3999  0.5809  1.0822
18690TIP3    H277562   4.982   3.386   2.544  0.8591 -1.4311 -0.5010
18691TIP3   OH277563   5.753   3.605  12.237 -0.2228 -0.4746 -0.1779
18691TIP3    H177564   5.701   3.683  12.215  0.0722 -0.0522  0.5966
18691TIP3    H277565   5.840   3.623  12.201 -0.6465 -1.2887 -1.6942
18692TIP3   OH277566   0.197   6.679  16.831 -0.0850  0.6054 -0.3876
18692TIP3    H177567   0.162   6.631  16.906  1.1348  1.8094  1.0124
18692TIP3    H277568   0.247   6.751  16.869  1.0563  0.9389 -2.3496
18693TIP3   OH277569   1.145   5.260   0.982 -0.7254 -0.0650  0.1215
18693TIP3    H177570   1.061   5.221   1.008 -1.6290  1.2006 -0.7894
18693TIP3    H277571   1.178   5.202   0.913 -1.2940 -0.0902 -0.1362
18694TIP3   OH277572   2.455   3.023  13.165  0.3886  0.1586  0.2804
18694TIP3    H177573   2.447   3.103  13.217  0.0692  0.7041 -0.5797
18694TIP3    H277574   2.389   2.964  13.200  1.4832 -0.2314  1.7773
18695TIP3   OH277575   5.110   3.123  17.041 -0.1231  0.5837 -0.6831
18695TIP3    H177576   5.139   3.184  17.108  0.2746  2.6680 -2.6419
18695TIP3    H277577   5.151   3.039  17.066  2.5776  1.9914 -0.0159
18696TIP3   OH277578   4.151   5.062  17.118  0.4086 -0.1916  0.0537
18696TIP3    H177579   4.068   5.057  17.164  1.1354 -1.9032  1.3199
18696TIP3    H277580   4.136   5.013  17.037 -0.2504  0.9229 -0.5182
18697TIP3   OH277581   3.760   0.538   3.392  0.3911 -0.1449 -0.4860
18697TIP3    H177582   3.686   0.479   3.376 -0.3137  0.7900 -0.7124
18697TIP3    H277583   3.752   0.606   3.326  0.5928  0.7839  0.4226
18698TIP3   OH277584   4.942   3.734   2.940  0.5857  0.3727 -0.1849
18698TIP3    H177585   5.012   3.754   3.001  1.3485 -0.5533 -0.7370
18698TIP3    H277586   4.986   3.723   2.855 -0.1713 -0.5424 -0.4777
18699TIP3   OH277587   2.456   3.924   6.061  0.3064 -0.2921 -0.1591
18699TIP3    H177588   2.460   3.835   6.025  0.6251  0.3598 -1.8097
18699TIP3    H277589   2.542   3.936   6.101  0.7523 -0.2731 -1.0958
18700TIP3   OH277590   0.798   1.064   3.272 -0.5052 -0.7838  0.3418
18700TIP3    H177591   0.763   0.996   3.329  1.6666 -0.6569  1.9651
18700TIP3    H277592   0.785   1.030   3.183 -1.8813 -2.0651  0.9938
18701TIP3   OH277593   4.128   6.019  15.075  0.0420 -0.0431 -0.0931
18701TIP3    H177594   4.182   5.961  15.128 -0.5445  1.0039  1.7599
18701TIP3    H277595   4.187   6.054  15.009  2.0675  1.9343  2.5374
18702TIP3   OH277596   0.598   5.626  15.294 -0.1649  0.0502 -0.0745
18702TIP3    H177597   0.649   5.572  15.355  0.4880  1.7160  0.9229
18702TIP3    H277598   0.631   5.602  15.208  0.4745 -0.7619  0.3743
18703TIP3   OH277599   2.104   2.540   0.341  0.4412 -0.2761  0.2271
18703TIP3    H177600   2.118   2.588   0.423  0.7385 -0.4285  0.2659
18703TIP3    H277601   2.192   2.518   0.310  0.2965 -1.5774  0.6800
18704TIP3   OH277602   2.675   6.643   1.152 -0.3989 -0.1317  0.3430
18704TIP3    H177603   2.634   6.572   1.104  0.8706  0.7395 -2.2214
18704TIP3    H277604   2.712   6.602   1.230 -3.0376 -1.5075  0.9812
18705TIP3   OH277605   4.331   2.941   0.833  0.3827  0.0178  0.3572
18705TIP3    H177606   4.261   2.968   0.773  0.5003 -2.5271 -1.0753
18705TIP3    H277607   4.400   3.006   0.819  0.1152 -0.0683 -1.8363
18706TIP3   OH277608   3.816   1.263  15.503  0.3895 -0.0526 -0.4018
18706TIP3    H177609   3.768   1.321  15.562  0.2729 -2.5155  2.0842
18706TIP3    H277610   3.749   1.216  15.454  0.3506 -0.9292  0.4812
18707TIP3   OH277611   0.337   4.340  14.981 -0.0678  0.0005  0.1529
18707TIP3    H177612   0.293   4.258  15.006 -0.0605 -0.5812 -1.6089
18707TIP3    H277613   0.271   4.387  14.929  0.6886  0.0521 -0.7751
18708TIP3   OH277614   1.630   6.439  12.422 -0.3935 -0.7860 -1.0239
18708TIP3    H177615   1.661   6.409  12.507 -0.3534 -2.4360 -1.5753
18708TIP3    H277616   1.708   6.439  12.366  0.3865  3.7392 -0.3117
18709TIP3   OH277617   6.715   0.682  14.538  0.3252  0.1950  0.4928
18709TIP3    H177618   6.651   0.693  14.608  0.1987 -1.2219  0.6344
18709TIP3    H277619   6.783   0.747  14.557 -0.5351  0.9812  0.9489
18710TIP3   OH277620   1.211   4.500   1.752  0.2523 -0.3264  0.4031
18710TIP3    H177621   1.120   4.471   1.747 -0.6986  2.2958  0.7291
18710TIP3    H277622   1.262   4.420   1.748 -2.0598 -1.8837  0.0706
18711TIP3   OH277623   0.650   3.534  11.026  0.0379  0.2545  0.1745
18711TIP3    H177624   0.568   3.569  11.061 -1.4572 -0.7211 -2.1168
18711TIP3    H277625   0.712   3.607  11.035 -1.8832  2.1310 -0.7239
18712TIP3   OH277626   4.617   0.985   3.753  0.4477 -0.4562  0.4206
18712TIP3    H177627   4.620   0.964   3.846  0.3336 -1.5859  0.1853
18712TIP3    H277628   4.592   1.077   3.749  0.1203 -0.4936  1.4934
18713TIP3   OH277629   5.898   1.734  14.077 -0.3748 -0.0837 -0.3284
18713TIP3    H177630   5.924   1.791  14.004 -1.8516 -0.0084 -0.8196
18713TIP3    H277631   5.883   1.649  14.035 -3.2352  0.4338 -0.5366
18714TIP3   OH277632   1.727   4.949   1.509  0.7565  0.2955  0.5758
18714TIP3    H177633   1.694   5.015   1.570  0.7436 -0.3447  1.2818
18714TIP3    H277634   1.651   4.895   1.488  0.7788  0.4630  0.0466
18715TIP3   OH277635   6.680   3.612   3.100 -0.0972 -0.0735  0.4865
18715TIP3    H177636   6.746   3.669   3.059  0.5184 -0.4989  0.8720
18715TIP3    H277637   6.624   3.672   3.149  0.4104  0.2311  0.7096
18716TIP3   OH277638   1.687   6.608   0.015 -0.2280 -0.2460  0.0867
18716TIP3    H177639   1.758   6.594  -0.048 -0.2511  0.3162 -0.0645
18716TIP3    H277640   1.732   6.617   0.099  0.0274  1.7094 -0.2174
18717TIP3   OH277641   2.510   1.735   2.141 -0.7020  0.6537  0.3646
18717TIP3    H177642   2.463   1.773   2.068 -1.0930  0.0832  0.3107
18717TIP3    H277643   2.566   1.668   2.101 -0.8015  0.4465  0.5705
18718TIP3   OH277644   3.772   5.053   3.853 -0.2861  0.4322 -0.5898
18718TIP3    H177645   3.785   4.984   3.789  1.3998 -0.0335  0.2125
18718TIP3    H277646   3.833   5.122   3.828  0.7918  0.0242  0.7595
18719TIP3   OH277647   3.150   3.882  14.904 -0.5360  0.4185  0.0807
18719TIP3    H177648   3.123   3.834  14.826  0.9984  0.6169 -0.5980
18719TIP3    H277649   3.133   3.974  14.882 -0.7802  0.4180  0.2655
18720TIP3   OH277650   5.021   0.650   4.083 -0.4245  0.9939  0.1539
18720TIP3    H177651   4.946   0.595   4.061 -0.9711  2.2087 -1.2276
18720TIP3    H277652   5.088   0.589   4.113 -0.9380 -0.4659 -1.5034
18721TIP3   OH277653   4.750   3.337   1.982  0.1749  0.3110 -0.2369
18721TIP3    H177654   4.793   3.277   2.043  1.4699  1.3925 -0.0399
18721TIP3    H277655   4.661   3.303   1.973  0.2696 -0.4678  1.4395
18722TIP3   OH277656   0.833   5.818  16.460  0.0023  0.1185  0.1342
18722TIP3    H177657   0.754   5.864  16.487 -0.1051 -0.4000  0.7130
18722TIP3    H277658   0.904   5.881  16.473 -0.4017  0.9026 -1.2336
18723TIP3   OH277659   1.649   2.892  14.864  0.3867  0.1280 -0.1151
18723TIP3    H177660   1.721   2.926  14.917 -0.4009  0.2980  0.8698
18723TIP3    H277661   1.624   2.811  14.908 -1.8706  1.4684  1.2507
18724TIP3   OH277662   1.717   1.924  13.712 -0.6120 -0.0088  0.1534
18724TIP3    H177663   1.797   1.879  13.684 -1.3343 -0.7210 -0.7930
18724TIP3    H277664   1.663   1.856  13.752 -0.4941  0.5984  1.4100
18725TIP3   OH277665   1.743   4.758  14.509  0.9771  0.8695 -0.6384
18725TIP3    H177666   1.737   4.765  14.413 -0.8329  1.2558 -0.5296
18725TIP3    H277667   1.687   4.684  14.531 -1.3876  2.8230  0.3464
18726TIP3   OH277668   4.422   0.718  15.185  0.2564  0.3732  0.0650
18726TIP3    H177669   4.340   0.752  15.149 -1.7932 -1.0982  2.9180
18726TIP3    H277670   4.441   0.775  15.259  0.7656 -0.3757  0.5230
18727TIP3   OH277671   4.030   2.995  14.313  0.4338  1.2248 -0.1109
18727TIP3    H177672   3.981   3.015  14.393 -0.4480 -0.1508 -0.2952
18727TIP3    H277673   4.078   2.915  14.333 -0.6404  0.2529 -1.3056
18728TIP3   OH277674   6.240   5.010  11.384  0.0391 -0.1313  0.3907
18728TIP3    H177675   6.154   5.049  11.370 -0.5253 -0.7345  1.9103
18728TIP3    H277676   6.225   4.942  11.449  1.6772 -0.2276  0.7197
18729TIP3   OH277677   5.049   3.871  10.768  0.3906  0.2227  0.3098
18729TIP3    H177678   5.020   3.893  10.857 -1.8191  1.2650 -0.5961
18729TIP3    H277679   4.969   3.873  10.715  1.6454 -0.3573 -1.7253
18730TIP3   OH277680   6.541   5.976   1.091 -0.2221 -0.0008  0.5558
18730TIP3    H177681   6.527   6.052   1.147  1.2853  1.2074 -0.6128
18730TIP3    H277682   6.632   5.952   1.105 -0.6200 -1.5062  0.7553
18731TIP3   OH277683   2.658   2.854   3.212 -0.0539  0.4066  0.4051
18731TIP3    H177684   2.596   2.791   3.175 -0.0756  1.3636 -1.3356
18731TIP3    H277685   2.605   2.911   3.266 -0.3940  0.1905  0.3066
18732TIP3   OH277686   0.851   0.615  10.873 -0.5049 -0.3203  0.1419
18732TIP3    H177687   0.896   0.532  10.857 -0.6156 -0.5476  0.9910
18732TIP3    H277688   0.815   0.639  10.788 -1.9291 -2.0079  0.2213
18733TIP3   OH277689   3.929   6.241   4.060 -0.2539  0.3289 -0.0736
18733TIP3    H177690   3.843   6.223   4.023 -0.0770 -0.1255 -0.2690
18733TIP3    H277691   3.918   6.229   4.155 -0.1871 -0.6294 -0.1818
18734TIP3   OH277692   2.161   5.634   5.874  0.1199 -0.6756 -0.2461
18734TIP3    H177693   2.204   5.569   5.928  0.9259 -1.1558 -1.4267
18734TIP3    H277694   2.126   5.585   5.800 -0.3384  0.0580 -0.5281
18735TIP3   OH277695   6.074   3.884  13.187 -0.2531  0.0916 -0.5261
18735TIP3    H177696   6.153   3.831  13.180 -0.2730  0.1581 -1.4282
18735TIP3    H277697   6.097   3.953  13.250  0.9644  1.0100 -1.8840
18736TIP3   OH277698   0.836   3.387  15.978  0.2351  0.0855 -0.1956
18736TIP3    H177699   0.765   3.323  15.982 -0.0444  0.4443  0.7655
18736TIP3    H277700   0.804   3.463  16.027  1.2264  0.3057  0.1500
18737TIP3   OH277701   2.592   3.731   4.005  0.1717  0.4071 -0.2676
18737TIP3    H177702   2.498   3.737   3.986  0.1688  0.1286 -0.3508
18737TIP3    H277703   2.618   3.646   3.968  1.1728  1.9095 -3.4099
18738TIP3   OH277704   3.549   1.574   0.540 -0.2665 -0.5686  0.1926
18738TIP3    H177705   3.581   1.656   0.578 -2.2345 -0.2102  1.2006
18738TIP3    H277706   3.593   1.506   0.591  1.7711 -0.2080 -0.9757
18739TIP3   OH277707   5.592   5.141  13.658 -0.3062  0.0918  0.5144
18739TIP3    H177708   5.635   5.166  13.741 -0.2351 -1.5838  1.0076
18739TIP3    H277709   5.514   5.197  13.655  1.9325  3.5271 -0.6071
18740TIP3   OH277710   3.933   0.886  10.258  0.2463 -0.2567 -0.0073
18740TIP3    H177711   3.993   0.820  10.226 -1.6157 -2.6517  1.0964
18740TIP3    H277712   3.988   0.950  10.302  2.1516 -0.8668 -1.3769
18741TIP3   OH277713   1.863   2.044  15.853  0.4037  0.7523 -0.0517
18741TIP3    H177714   1.857   2.000  15.938  1.1126  0.9288  0.1031
18741TIP3    H277715   1.776   2.036  15.815  0.1395  0.4721  0.5967
18742TIP3   OH277716   4.451   2.988   1.842  0.6983 -0.1857 -0.7384
18742TIP3    H177717   4.377   2.954   1.791 -2.0090  4.0145 -0.0712
18742TIP3    H277718   4.436   2.955   1.930 -0.8413  1.1538 -0.4689
18743TIP3   OH277719   6.041   5.082   1.460 -0.2019  0.0633  0.1841
18743TIP3    H177720   6.083   5.166   1.478 -0.2158  0.0803  0.1377
18743TIP3    H277721   6.023   5.045   1.546 -1.6244  0.8085  0.2361
18744TIP3   OH277722   2.964   1.130  13.853  0.0849  0.3335 -0.0175
18744TIP3    H177723   2.955   1.203  13.791 -1.8094 -0.7823 -1.1498
18744TIP3    H277724   2.877   1.119  13.891  0.5669 -0.7148  0.8440
18745TIP3   OH277725   6.645   5.264   3.228 -0.3878 -0.1277 -0.4747
18745TIP3    H177726   6.723   5.236   3.181 -0.1395 -1.3043  0.5768
18745TIP3    H277727   6.616   5.185   3.275 -1.8707  0.4352 -0.3925
18746TIP3   OH277728   2.030   5.781   5.001  0.1814  0.7846 -0.1060
18746TIP3    H177729   1.943   5.754   4.973  0.8530 -0.6129 -0.9708
18746TIP3    H277730   2.031   5.876   4.990 -1.8076  1.0763  1.6633
18747TIP3   OH277731   5.185   3.644   1.752 -0.3177 -0.0232  0.0386
18747TIP3    H177732   5.127   3.664   1.825 -1.5914 -0.5499 -0.8010
18747TIP3    H277733   5.255   3.709   1.759 -0.2949 -0.2063  1.8368
18748TIP3   OH277734   4.816   2.516  14.291  0.1295  0.2712 -0.2474
18748TIP3    H177735   4.859   2.517  14.376 -0.5621  1.3020  0.1049
18748TIP3    H277736   4.886   2.538  14.229  0.6379 -0.4951  0.0333
18749TIP3   OH277737   2.958   2.058   0.694  0.7496 -0.1288  0.5661
18749TIP3    H177738   2.922   2.034   0.779  1.7060 -0.9528  0.7614
18749TIP3    H277739   2.933   1.986   0.636 -0.3212  0.6653  0.0081
18750TIP3   OH277740   4.506   1.045   3.047 -0.1676 -0.6196 -0.0316
18750TIP3    H177741   4.444   1.032   3.119  1.4011 -1.6685  1.2092
18750TIP3    H277742   4.591   1.055   3.090  0.6049  0.3573 -1.6920
18751TIP3   OH277743   4.440   4.277   3.297  0.1070  0.6293 -0.1575
18751TIP3    H177744   4.346   4.264   3.287  0.4919 -2.1333 -0.8555
18751TIP3    H277745   4.463   4.339   3.227 -1.1363  1.2674 -0.0373
18752TIP3   OH277746   6.643   0.564   2.137  0.1835  0.4355 -0.4200
18752TIP3    H177747   6.581   0.620   2.091  0.0392 -0.7634 -1.7633
18752TIP3    H277748   6.729   0.602   2.117  0.0027  1.0847  0.0006
18753TIP3   OH277749   3.163   5.385  11.893  0.2900 -0.3330 -0.1148
18753TIP3    H177750   3.197   5.371  11.805 -1.1862 -1.2517 -0.5748
18753TIP3    H277751   3.070   5.402  11.880 -0.1277 -1.3399  1.3089
18754TIP3   OH277752   0.018   3.422  16.868 -0.3600  0.1200  0.0830
18754TIP3    H177753  -0.004   3.413  16.775  2.3300  0.1404 -0.6163
18754TIP3    H277754   0.112   3.410  16.872 -0.4996 -0.6962  2.9607
18755TIP3   OH277755   4.547   2.134   3.528 -0.2015 -0.4275  0.5469
18755TIP3    H177756   4.471   2.189   3.510 -0.4214 -1.2774 -1.3008
18755TIP3    H277757   4.601   2.142   3.450 -0.3352 -2.9551  0.1273
18756TIP3   OH277758   3.060   4.992   5.384  0.0043 -0.1396  0.1619
18756TIP3    H177759   3.084   4.911   5.429 -0.5610 -1.4282 -1.7149
18756TIP3    H277760   3.140   5.020   5.340  0.7065  1.4196  2.2534
18757TIP3   OH277761   4.171   1.455  11.723 -0.4559 -0.4314  0.2476
18757TIP3    H177762   4.106   1.494  11.780  0.2278 -0.2480  0.9202
18757TIP3    H277763   4.128   1.378  11.686 -0.9135 -0.5602  1.0265
18758TIP3   OH277764   4.008   5.739   5.594 -0.0274  0.3292 -0.1883
18758TIP3    H177765   4.067   5.739   5.519  1.2556  1.3308  0.7906
18758TIP3    H277766   4.058   5.697   5.664 -0.4554  1.2041  0.6593
18759TIP3   OH277767   2.425   5.983   2.290 -0.3634 -0.4629  0.0646
18759TIP3    H177768   2.503   6.027   2.326 -1.5741 -0.4669  3.0045
18759TIP3    H277769   2.373   6.053   2.252  0.2649 -0.2055 -0.3352
18760TIP3   OH277770   6.142   0.099   2.928  0.0565  0.1448  0.1015
18760TIP3    H177771   6.095   0.071   2.849  1.7098  1.1276 -1.2947
18760TIP3    H277772   6.073   0.133   2.985 -1.0938  0.5569 -1.4353
18761TIP3   OH277773   3.171   2.280  16.887  0.0989  0.9083 -0.5549
18761TIP3    H177774   3.150   2.370  16.912  1.3546  0.7939  1.1024
18761TIP3    H277775   3.185   2.235  16.970  1.4519 -0.3220 -1.4029
18762TIP3   OH277776   2.543   4.809  11.093  0.0640  0.7111  0.1989
18762TIP3    H177777   2.510   4.770  11.012  1.2974  1.6830 -0.8234
18762TIP3    H277778   2.560   4.735  11.150 -1.2501  0.0283 -0.2433
18763TIP3   OH277779   6.438   3.835   6.264  0.4901  0.3739  0.0548
18763TIP3    H177780   6.472   3.747   6.249 -1.5573 -0.3955 -0.3364
18763TIP3    H277781   6.489   3.868   6.337  1.9677 -0.7461 -0.4230
18764TIP3   OH277782   0.001   3.064  12.869 -0.9889  0.0363  0.1690
18764TIP3    H177783  -0.074   3.075  12.810 -1.7895  0.3277  1.2061
18764TIP3    H277784   0.075   3.047  12.811 -1.7042  0.5449 -0.9251
18765TIP3   OH277785   5.337   4.440   5.635 -0.5973  0.5833 -0.1134
18765TIP3    H177786   5.296   4.526   5.648  1.2123  1.2557  1.8833
18765TIP3    H277787   5.376   4.445   5.548  0.6031  2.3602  0.4667
18766TIP3   OH277788   0.070   0.178  11.900  0.4417 -0.5034 -0.6978
18766TIP3    H177789   0.156   0.199  11.862  0.3842 -1.0836 -1.1595
18766TIP3    H277790   0.013   0.165  11.825 -0.4054  1.2020 -0.4016
18767TIP3   OH277791   0.207   3.612   5.801  0.2725 -0.0284 -0.0463
18767TIP3    H177792   0.190   3.556   5.725 -0.0798 -0.6738  0.4992
18767TIP3    H277793   0.273   3.674   5.771 -0.4791  0.2695 -1.1431
18768TIP3   OH277794   1.960   6.804  11.477 -0.7320  0.1722  0.4362
18768TIP3    H177795   1.993   6.850  11.400  0.5754  0.0483  0.8934
18768TIP3    H277796   1.891   6.861  11.511  0.1236  1.2961  0.3652
18769TIP3   OH277797   5.143   4.003  13.378 -0.0298 -0.4053 -0.4163
18769TIP3    H177798   5.198   3.991  13.456 -0.8917 -1.3113  0.0862
18769TIP3    H277799   5.059   4.033  13.412 -0.6665 -1.5493 -0.8919
18770TIP3   OH277800   0.504   3.757   3.291  0.7931 -0.3717  0.6490
18770TIP3    H177801   0.529   3.771   3.199 -0.7894 -2.8690 -0.3014
18770TIP3    H277802   0.578   3.711   3.330  0.9153 -0.5617  0.1990
18771TIP3   OH277803   5.283   6.742  17.079  0.0014  0.6506  0.1110
18771TIP3    H177804   5.234   6.758  17.159 -1.6324  2.0950 -1.0918
18771TIP3    H277805   5.307   6.829  17.047  1.1853  0.0781 -0.6508
18772TIP3   OH277806   3.216   5.090   2.270 -0.0778  0.1711 -0.4684
18772TIP3    H177807   3.135   5.140   2.261 -0.6865 -0.8598 -0.8518
18772TIP3    H277808   3.239   5.063   2.181  1.1402  1.1106 -0.4738
18773TIP3   OH277809   4.018   1.295  16.078 -0.0372 -0.0215 -0.1644
18773TIP3    H177810   4.013   1.204  16.051 -0.6428  0.0533 -0.3287
18773TIP3    H277811   3.986   1.345  16.003 -2.3751  0.1493  0.8369
18774TIP3   OH277812   3.799   5.891   0.826 -0.2007 -0.3156 -0.4578
18774TIP3    H177813   3.764   5.943   0.898 -1.7104 -0.2495 -1.2110
18774TIP3    H277814   3.860   5.830   0.868 -1.0441 -0.2779  0.8728
18775TIP3   OH277815   2.922   4.840   1.156 -0.0731 -0.2659 -0.0974
18775TIP3    H177816   3.008   4.875   1.180  1.8677 -5.0091  0.9693
18775TIP3    H277817   2.931   4.820   1.062 -0.3335 -0.0695 -0.1651
18776TIP3   OH277818   1.681   0.412   4.051 -0.8854  0.4711 -0.1179
18776TIP3    H177819   1.657   0.434   4.142  1.0903  0.4093  0.4545
18776TIP3    H277820   1.661   0.318   4.044  3.2260 -0.7966  1.8748
18777TIP3   OH277821   1.905   2.478   3.959  0.1656 -0.5390  0.3770
18777TIP3    H177822   1.835   2.518   4.011 -0.1987 -0.8183  0.1120
18777TIP3    H277823   1.860   2.442   3.882  0.5326 -1.1367  0.4331
18778TIP3   OH277824   6.379   6.431   0.526 -0.7186  0.2682 -0.2578
18778TIP3    H177825   6.471   6.412   0.508 -0.3667  2.0234 -0.5575
18778TIP3    H277826   6.339   6.346   0.547  1.0897 -0.4456  0.4617
18779TIP3   OH277827   3.885   3.724   5.518  0.4519 -0.3563  0.2140
18779TIP3    H177828   3.920   3.811   5.499  1.2712 -0.5558  0.7620
18779TIP3    H277829   3.792   3.731   5.497  0.7595  0.2489 -1.0944
18780TIP3   OH277830   6.352   1.815  16.093  0.0371 -0.2484  0.3587
18780TIP3    H177831   6.333   1.751  16.161  2.2843 -1.2930  0.1031
18780TIP3    H277832   6.374   1.895  16.141  0.9086 -0.7729  0.8688
18781TIP3   OH277833   2.139   2.454  13.984 -0.3263  0.2527 -0.0514
18781TIP3    H177834   2.109   2.368  13.958 -0.6185  0.0770  0.8300
18781TIP3    H277835   2.215   2.471  13.928  0.3797 -1.0248  0.4727
18782TIP3   OH277836   3.106   4.541  11.448  0.3011 -0.1291  0.0250
18782TIP3    H177837   3.133   4.470  11.507  0.7467 -1.7104 -1.9555
18782TIP3    H277838   3.019   4.515  11.417  0.1508  0.5690 -0.1464
18783TIP3   OH277839   1.298   5.795  11.440 -0.3905  0.3306  0.0938
18783TIP3    H177840   1.275   5.711  11.401  0.5767  1.2273 -2.6507
18783TIP3    H277841   1.385   5.781  11.478 -0.6252 -0.1325  0.4725
18784TIP3   OH277842   4.695   2.949   0.664  0.2953  0.1793  0.3729
18784TIP3    H177843   4.786   2.918   0.661 -0.4513 -2.9516 -5.2798
18784TIP3    H277844   4.683   2.996   0.582 -3.6292 -1.5581 -0.2862
18785TIP3   OH277845   5.134   2.477  16.301  0.2536 -0.3372  0.1046
18785TIP3    H177846   5.191   2.494  16.376 -0.6735  1.7852  0.3986
18785TIP3    H277847   5.181   2.516  16.227  0.5832 -1.3260 -0.2219
18786TIP3   OH277848   0.510   1.208   2.091  0.2265 -0.3152 -0.5902
18786TIP3    H177849   0.601   1.223   2.118  0.5654 -0.3031 -1.6815
18786TIP3    H277850   0.488   1.283   2.036 -0.1612 -0.7304 -1.0118
18787TIP3   OH277851   2.722   6.442   2.853  0.1397 -0.4037 -0.1256
18787TIP3    H177852   2.785   6.383   2.810  0.8660  2.3265 -3.2419
18787TIP3    H277853   2.767   6.473   2.931  0.7957 -1.8968  0.1192
18788TIP3   OH277854   6.020   2.676  14.750 -0.0329  0.0579 -0.2071
18788TIP3    H177855   5.978   2.592  14.769  0.6557  0.0286  1.3371
18788TIP3    H277856   6.080   2.690  14.823 -1.1524  2.5786  0.3364
18789TIP3   OH277857   4.338   3.919   3.881 -0.8384  0.4411  0.5409
18789TIP3    H177858   4.303   3.956   3.800 -1.1153 -2.1910 -0.6660
18789TIP3    H277859   4.291   3.965   3.951 -1.6970  1.7463 -0.8239
18790TIP3   OH277860   4.320   2.289   3.514 -0.0703 -0.4648 -0.1115
18790TIP3    H177861   4.320   2.384   3.499 -0.5195 -0.5530 -0.7179
18790TIP3    H277862   4.280   2.279   3.600 -0.9463 -0.1491 -0.4642
18791TIP3   OH277863   3.033   6.452  14.413 -0.2552 -0.6424 -0.3450
18791TIP3    H177864   3.122   6.488  14.409 -0.1188 -0.9907 -0.4760
18791TIP3    H277865   3.032   6.399  14.492 -0.5866 -0.0168  0.0775
18792TIP3   OH277866   1.821   3.725   0.997 -0.4749  0.2564  0.2537
18792TIP3    H177867   1.874   3.701   0.921 -1.7393 -1.2490 -0.2035
18792TIP3    H277868   1.842   3.660   1.064  0.1864  1.2213  1.0134
18793TIP3   OH277869   5.063   3.746  17.047 -0.1431  0.2752 -0.2437
18793TIP3    H177870   5.100   3.690  16.979  0.2134 -0.2399  0.3586
18793TIP3    H277871   5.140   3.782  17.092 -0.3479  2.0662 -1.2573
18794TIP3   OH277872   6.407   0.121  13.367 -0.1029  0.5329  0.2498
18794TIP3    H177873   6.372   0.076  13.290 -1.0310  1.1055  0.3170
18794TIP3    H277874   6.338   0.113  13.433  0.1171  1.1988  0.5733
18795TIP3   OH277875   2.934   5.914  16.348  0.8043  0.0935 -0.6167
18795TIP3    H177876   2.978   5.920  16.263  0.9123  2.1816 -0.4574
18795TIP3    H277877   2.860   5.855  16.333  0.4446  0.9257 -2.3384
18796TIP3   OH277878   6.533   5.968   0.006  0.2831 -0.0484 -0.1174
18796TIP3    H177879   6.570   6.056   0.005 -3.5311  1.7656 -0.0567
18796TIP3    H277880   6.583   5.920  -0.060  2.7216  1.9836  0.0894
18797TIP3   OH277881   6.012   4.237   5.671 -0.5621 -0.0615  0.7087
18797TIP3    H177882   5.947   4.183   5.626 -0.5043 -0.0824  0.6498
18797TIP3    H277883   6.006   4.209   5.762 -2.4938  1.7587  1.2208
18798TIP3   OH277884   1.519   6.783   6.372 -0.4668  0.0918 -0.3796
18798TIP3    H177885   1.430   6.793   6.406 -0.2820 -0.6704  0.3646
18798TIP3    H277886   1.575   6.808   6.446 -0.0466  1.2018 -1.0459
18799TIP3   OH277887   0.667   0.928  15.012  0.5272 -0.0792  0.0184
18799TIP3    H177888   0.595   0.964  14.960 -0.2629 -0.6899  0.6586
18799TIP3    H277889   0.658   0.834  15.003  0.2672 -0.2065  1.3705
18800TIP3   OH277890   0.844   3.945  13.978 -0.0689  0.2196 -0.1834
18800TIP3    H177891   0.933   3.956  13.944  0.2407  1.0213  0.8101
18800TIP3    H277892   0.849   3.871  14.038 -0.1105  0.1515 -0.2648
18801TIP3   OH277893   0.097   3.273  15.472  0.1405 -0.3284  0.0398
18801TIP3    H177894   0.068   3.252  15.560  2.4509  1.7238  1.4001
18801TIP3    H277895   0.016   3.292  15.424 -1.0659  2.1047  2.7468
18802TIP3   OH277896   3.565   5.447  16.586 -0.0880 -0.1273 -0.4144
18802TIP3    H177897   3.471   5.450  16.571 -0.1276 -1.3395 -0.4896
18802TIP3    H277898   3.601   5.514  16.527 -0.7587 -0.7854 -1.6020
18803TIP3   OH277899   4.388   4.870   4.232 -0.3302 -0.1396 -0.2282
18803TIP3    H177900   4.378   4.947   4.176  0.8488 -1.2446 -2.0373
18803TIP3    H277901   4.471   4.885   4.278  0.6467 -0.9168 -1.6548
18804TIP3   OH277902   3.520   0.733   2.127 -0.0383 -0.2640  0.1813
18804TIP3    H177903   3.480   0.679   2.195  0.4170 -0.3519  0.3831
18804TIP3    H277904   3.506   0.683   2.046  2.2179 -1.7456  0.6382
18805TIP3   OH277905   1.339   6.134  14.034  0.2547 -0.0689 -0.2130
18805TIP3    H177906   1.360   6.133  14.127  1.0918 -0.9694 -0.4037
18805TIP3    H277907   1.420   6.108  13.990 -0.2737 -0.1568 -1.1698
18806TIP3   OH277908   6.743   3.263  11.639  0.3356 -0.3524 -0.1966
18806TIP3    H177909   6.763   3.239  11.549 -0.4035  2.1223 -1.0920
18806TIP3    H277910   6.696   3.187  11.674  0.4203 -1.2646 -1.9501
18807TIP3   OH277911   6.713   5.304  14.378 -0.2183 -0.1001  0.3162
18807TIP3    H177912   6.767   5.378  14.350 -0.9111  0.7770  1.2586
18807TIP3    H277913   6.739   5.233  14.320  1.0174  0.6614 -0.1050
18808TIP3   OH277914   4.040   4.935   0.520  0.1507  0.0333 -0.1558
18808TIP3    H177915   4.058   4.997   0.450 -0.2882  0.6472  0.2662
18808TIP3    H277916   3.944   4.926   0.521  0.1821 -0.3383  0.0501
18809TIP3   OH277917   0.492   4.288  10.602 -0.3468  0.3667 -0.1753
18809TIP3    H177918   0.559   4.224  10.578  0.2474  0.4861  1.0646
18809TIP3    H277919   0.410   4.240  10.597  0.0281 -0.3295  0.1250
18810TIP3   OH277920   6.222   5.649   2.338  0.0230 -0.2079  0.0954
18810TIP3    H177921   6.161   5.587   2.378 -0.9581  0.1460 -0.7986
18810TIP3    H277922   6.178   5.734   2.344  0.4998  0.0849 -0.4122
18811TIP3   OH277923   0.980   0.417  12.693  0.3975  0.2671 -1.4652
18811TIP3    H177924   0.925   0.434  12.616 -0.2841 -1.9496 -1.5501
18811TIP3    H277925   1.031   0.340  12.669  0.6001 -0.1154  0.0967
18812TIP3   OH277926   2.390   1.719   1.351  0.0636 -0.1819  0.0314
18812TIP3    H177927   2.469   1.717   1.404 -0.4201 -0.5064  0.7519
18812TIP3    H277928   2.422   1.728   1.261  0.9606 -1.4857  0.1971
18813TIP3   OH277929   3.892   3.505   6.653 -0.1517  0.0650  0.0950
18813TIP3    H177930   3.915   3.419   6.618 -1.5687 -0.7452  1.0399
18813TIP3    H277931   3.879   3.559   6.575 -0.9398 -1.0677 -0.5963
18814TIP3   OH277932   2.113   5.242   0.003 -0.0622 -0.2521  0.4131
18814TIP3    H177933   2.040   5.196  -0.040  0.9827  0.0019 -1.7393
18814TIP3    H277934   2.185   5.180   0.001  0.0253 -0.2475  1.9308
18815TIP3   OH277935   1.424   0.891  16.063 -0.5744 -0.4333 -0.0197
18815TIP3    H177936   1.380   0.975  16.054  0.1520  0.1722  1.7327
18815TIP3    H277937   1.452   0.868  15.974 -2.0618  0.4317 -0.7502
18816TIP3   OH277938   1.801   4.267  15.016 -0.0100  0.2216 -0.1265
18816TIP3    H177939   1.862   4.208  14.972 -1.2336 -1.5800  0.4862
18816TIP3    H277940   1.790   4.339  14.954  0.6076 -0.7675 -1.4495
18817TIP3   OH277941   4.862   4.259  10.901  0.5003 -0.0691  0.1342
18817TIP3    H177942   4.892   4.183  10.850 -0.6890 -1.0513  0.8505
18817TIP3    H277943   4.811   4.310  10.838  0.2278 -0.5341 -0.0303
18818TIP3   OH277944   6.781   4.542   2.655  0.0592  0.2663 -0.5819
18818TIP3    H177945   6.760   4.469   2.598  0.0328  0.5309 -0.9185
18818TIP3    H277946   6.697   4.572   2.689  0.2454 -2.4226  2.8824
18819TIP3   OH277947   1.302   0.468  15.213  0.2358 -0.3326 -0.8025
18819TIP3    H177948   1.373   0.500  15.157  0.9954 -0.8855 -0.1751
18819TIP3    H277949   1.253   0.407  15.157  0.1102  0.2206 -1.3060
18820TIP3   OH277950   1.832   4.305   3.547 -0.0248 -0.0847 -0.3289
18820TIP3    H177951   1.840   4.379   3.486 -0.0228 -0.3218 -0.6208
18820TIP3    H277952   1.913   4.307   3.597  0.0356  0.0309 -0.4292
18821TIP3   OH277953   1.043   3.758   5.105 -0.3170  0.2292 -0.1679
18821TIP3    H177954   0.964   3.770   5.053 -0.1797 -1.2286 -0.7849
18821TIP3    H277955   1.021   3.688   5.167 -0.0758  1.0793  0.9020
18822TIP3   OH277956   5.534   4.015   2.016  0.3371 -0.1984 -0.4082
18822TIP3    H177957   5.485   4.065   1.951 -0.4852 -0.2995  0.1238
18822TIP3    H277958   5.626   4.031   1.994  0.1371  2.0911  0.1456
18823TIP3   OH277959   2.254   4.046  16.939 -0.0607 -0.6347  0.2628
18823TIP3    H177960   2.334   4.065  16.989 -0.5943 -2.1542  1.7953
18823TIP3    H277961   2.277   4.068  16.849  1.3529  1.0427  0.9706
18824TIP3   OH277962   4.800   2.356   6.353 -0.0515 -0.2400 -0.3430
18824TIP3    H177963   4.838   2.398   6.430  0.2390 -1.6830  0.3451
18824TIP3    H277964   4.762   2.428   6.302 -2.1660  0.6273  2.1907
18825TIP3   OH277965   1.851   0.532   1.836  0.4546  0.5723  0.1638
18825TIP3    H177966   1.895   0.475   1.898 -0.8824  1.7726  2.3446
18825TIP3    H277967   1.922   0.579   1.792  1.5000 -1.6927 -0.6654
18826TIP3   OH277968   6.152   1.319   3.903 -0.5300 -0.6658  0.5423
18826TIP3    H177969   6.184   1.405   3.875  2.2860 -1.3045  1.5026
18826TIP3    H277970   6.082   1.339   3.966 -1.4806  0.8457 -0.9300
18827TIP3   OH277971   1.908   5.743  16.890 -0.3437  0.4478 -0.0818
18827TIP3    H177972   1.883   5.653  16.910 -1.0229 -0.0180 -2.6840
18827TIP3    H277973   1.997   5.752  16.925  0.3413 -1.7647 -1.0501
18828TIP3   OH277974   3.266   1.483   4.570 -0.1141  0.2311  0.2889
18828TIP3    H177975   3.295   1.499   4.660  1.3022  1.3804 -0.3488
18828TIP3    H277976   3.253   1.388   4.567  3.0427 -0.3435  0.8362
18829TIP3   OH277977   0.005   5.290  13.019 -0.3831  0.5974  0.7262
18829TIP3    H177978  -0.024   5.318  13.105 -2.1493 -1.2739  0.8102
18829TIP3    H277979  -0.062   5.228  12.990  1.0212 -0.0779 -1.2852
18830TIP3   OH277980   5.166   6.132   3.632  0.5651 -0.0683 -0.0689
18830TIP3    H177981   5.132   6.064   3.573  0.9284  0.6555 -1.1461
18830TIP3    H277982   5.232   6.178   3.580  0.6261  0.8413  0.7823
18831TIP3   OH277983   4.763   5.499   4.982 -0.2812 -0.0359  0.7300
18831TIP3    H177984   4.747   5.563   5.052  1.2434  1.0153  0.1765
18831TIP3    H277985   4.846   5.458   5.006 -0.1887 -0.2857 -0.0122
18832TIP3   OH277986   3.143   2.438   3.013 -0.0801  0.0595 -0.3982
18832TIP3    H177987   3.183   2.429   2.926 -0.8168 -1.2158 -0.6212
18832TIP3    H277988   3.198   2.386   3.070  1.8102  2.7605  0.4393
18833TIP3   OH277989   3.494   2.905   3.890 -1.0123  0.0379  0.4942
18833TIP3    H177990   3.580   2.924   3.929 -0.5928  1.8584 -1.1715
18833TIP3    H277991   3.431   2.943   3.952 -0.7038 -1.6921  1.9488
18834TIP3   OH277992   1.079   2.497   0.171 -0.3075  0.6119 -0.1207
18834TIP3    H177993   1.170   2.514   0.148  0.3807  0.4715  2.2370
18834TIP3    H277994   1.048   2.437   0.104  1.1709  1.0624 -1.2617
18835TIP3   OH277995   1.745   5.038  12.105  0.3958  0.6872  0.4423
18835TIP3    H177996   1.729   5.064  12.014 -0.3178 -1.1628 -0.0114
18835TIP3    H277997   1.663   4.997  12.132 -0.0390  2.7422  2.5601
18836TIP3   OH277998   1.932   3.168   3.656  0.8786 -0.6393 -0.0221
18836TIP3    H177999   1.941   3.261   3.680 -0.0722 -0.1556 -1.3812
18836TIP3    H278000   2.018   3.130   3.673  1.5200  0.6844 -0.1736
18837TIP3   OH278001   3.133   6.234   2.764  0.0937 -0.1189  0.3552
18837TIP3    H178002   3.075   6.168   2.801 -0.5988 -0.5365 -1.3578
18837TIP3    H278003   3.126   6.309   2.822  1.4470 -1.7411  2.7806
18838TIP3   OH278004   5.861   2.139  12.526 -0.0563  0.4918  0.2372
18838TIP3    H178005   5.953   2.152  12.504  0.4974  0.9082  2.5419
18838TIP3    H278006   5.831   2.070  12.466  1.2883  1.4131 -1.5997
18839TIP3   OH278007   0.775   3.497   5.067 -0.0690  0.0219 -0.1272
18839TIP3    H178008   0.819   3.541   4.995 -0.3554  1.7930  0.7369
18839TIP3    H278009   0.683   3.495   5.041  0.0404 -0.7926 -0.4974
18840TIP3   OH278010   6.394   5.329   4.532  0.1083  0.0873 -0.3132
18840TIP3    H178011   6.468   5.286   4.574  0.1747 -0.2630 -0.7858
18840TIP3    H278012   6.325   5.328   4.598  0.6155  0.6867  0.2361
18841TIP3   OH278013   2.083   3.585  15.260  0.6075 -0.7143 -1.0290
18841TIP3    H178014   2.029   3.569  15.338  0.5948 -0.0970 -0.9055
18841TIP3    H278015   2.020   3.587  15.188  0.4627 -0.1002 -0.8975
18842TIP3   OH278016   0.556   6.090   3.771  0.1643  0.1432 -0.1873
18842TIP3    H178017   0.570   6.105   3.864 -0.4807  0.9487 -0.2000
18842TIP3    H278018   0.538   6.178   3.735 -2.1668 -0.4286 -0.5891
18843TIP3   OH278019   2.533   3.229   0.087  0.2465 -0.0085 -0.2908
18843TIP3    H178020   2.543   3.160   0.153  1.9582 -0.6904 -1.1964
18843TIP3    H278021   2.573   3.306   0.127  4.6198 -1.2438 -1.6129
18844TIP3   OH278022   5.110   4.007  16.875 -0.3552  0.0714 -0.1734
18844TIP3    H178023   5.169   4.029  16.948  0.9527 -0.4147 -1.0417
18844TIP3    H278024   5.028   3.984  16.918  0.6811 -1.2140  1.2598
18845TIP3   OH278025   3.782   1.718  13.686 -0.3404 -0.2814 -0.1641
18845TIP3    H178026   3.804   1.686  13.599  0.1570 -0.5921  0.0726
18845TIP3    H278027   3.813   1.809  13.686 -0.7209 -0.1483 -0.4487
18846TIP3   OH278028   6.026   3.256   4.277 -0.2902  0.5112 -0.3769
18846TIP3    H178029   6.080   3.259   4.356 -0.6435 -0.5592 -0.0683
18846TIP3    H278030   5.936   3.259   4.310 -0.5327 -2.5434 -0.4802
18847TIP3   OH278031   1.357   2.501  14.371 -0.2113 -0.0733  0.1135
18847TIP3    H178032   1.267   2.471  14.357 -0.2094  0.3992 -1.0289
18847TIP3    H278033   1.385   2.455  14.450 -1.1218 -0.9852 -0.0635
18848TIP3   OH278034   1.226   5.225  11.784  0.3612 -0.9740 -0.2345
18848TIP3    H178035   1.230   5.289  11.713  2.1334 -2.3636 -1.4869
18848TIP3    H278036   1.316   5.217  11.815  0.1942 -2.7755 -0.0902
18849TIP3   OH278037   2.209   2.854  15.480  0.0513  0.3619 -0.0232
18849TIP3    H178038   2.286   2.844  15.425 -0.0503  2.0351 -0.5201
18849TIP3    H278039   2.171   2.766  15.484  1.0777 -0.1582 -1.1219
18850TIP3   OH278040   1.106   0.904   1.626  0.7744 -0.2037  0.4089
18850TIP3    H178041   1.191   0.948   1.627  1.1255 -0.8852  0.9234
18850TIP3    H278042   1.052   0.955   1.687 -0.1914  2.0952 -2.1010
18851TIP3   OH278043   4.199   6.634   0.948 -0.2675 -0.4063  0.2491
18851TIP3    H178044   4.237   6.547   0.957 -0.6645 -0.5510  0.6236
18851TIP3    H278045   4.139   6.641   1.023  0.2112  0.4223  0.5672
18852TIP3   OH278046   5.097   2.659  11.581 -0.0594  0.5009  0.1411
18852TIP3    H178047   5.134   2.577  11.615 -0.7314 -0.3339 -1.0444
18852TIP3    H278048   5.173   2.716  11.567  0.6864 -0.7140 -1.0485
18853TIP3   OH278049   0.184   2.294  15.817 -0.4871 -0.5456  0.1702
18853TIP3    H178050   0.221   2.281  15.904  0.7883  1.5644  0.0121
18853TIP3    H278051   0.114   2.358  15.831  0.6806  0.9352 -0.4958
18854TIP3   OH278052   5.292   3.073  11.262 -0.5924 -0.1995  0.0287
18854TIP3    H178053   5.218   3.129  11.286 -0.7373 -0.0206 -0.7884
18854TIP3    H278054   5.346   3.069  11.340 -0.6710  0.9475  0.1549
18855TIP3   OH278055   1.781   6.659  15.127 -0.1863  0.3353 -0.3036
18855TIP3    H178056   1.709   6.600  15.149  0.5295 -0.5788 -0.3602
18855TIP3    H278057   1.827   6.616  15.055 -0.3955  1.5829 -1.2184
18856TIP3   OH278058   6.214   2.289   2.212  0.2084  0.0639 -0.5859
18856TIP3    H178059   6.143   2.331   2.163 -0.3693  0.6196  0.6825
18856TIP3    H278060   6.172   2.220   2.263  0.8596 -0.7611 -1.1388
18857TIP3   OH278061   5.653   5.518  12.351 -0.0128  0.9570  0.0845
18857TIP3    H178062   5.584   5.556  12.296  0.7055  3.4853  0.8120
18857TIP3    H278063   5.637   5.423  12.347 -1.6599  1.2434 -2.1871
18858TIP3   OH278064   6.187   3.806  13.556  0.1170  0.1491  0.4909
18858TIP3    H178065   6.167   3.718  13.587 -0.5352 -0.2770 -1.0144
18858TIP3    H278066   6.234   3.792  13.473 -1.5490  1.1666 -0.7031
18859TIP3   OH278067   3.275   0.413  13.627 -0.1734  0.1880  0.1221
18859TIP3    H178068   3.351   0.428  13.571 -0.1445 -0.0812  0.0905
18859TIP3    H278069   3.294   0.332  13.674  0.1314  0.8025  1.0860
18860TIP3   OH278070   1.330   0.927  12.675 -0.1766 -0.4014  0.1816
18860TIP3    H178071   1.366   0.848  12.634 -0.1650 -0.3399  0.0728
18860TIP3    H278072   1.382   0.939  12.754  0.2620 -0.1274 -0.1438
18861TIP3   OH278073   4.563   6.243   1.515  0.1905  0.5032 -0.6888
18861TIP3    H178074   4.614   6.218   1.592 -1.4227  0.3734  0.4122
18861TIP3    H278075   4.576   6.171   1.453  1.9750  0.8872 -0.8019
18862TIP3   OH278076   5.305   0.786  14.249  1.0897 -0.2927 -0.0280
18862TIP3    H178077   5.288   0.829  14.165  1.3948 -2.2909 -1.1746
18862TIP3    H278078   5.309   0.693  14.228 -1.4310 -1.1557  2.5972
18863TIP3   OH278079   6.083   1.695  13.591  0.4623  0.2762 -0.1813
18863TIP3    H178080   6.030   1.617  13.606  0.2558 -0.2558 -3.1330
18863TIP3    H278081   6.173   1.666  13.604  0.2677  0.3807  1.6981
18864TIP3   OH278082   1.691   6.109  13.606 -0.0740 -0.3527  0.2637
18864TIP3    H178083   1.759   6.073  13.663  0.7954 -1.2874 -1.2728
18864TIP3    H278084   1.702   6.061  13.524  0.5732  2.7573 -1.6395
18865TIP3   OH278085   1.974   6.609  13.423  0.2875 -0.3997  0.0138
18865TIP3    H178086   2.005   6.570  13.341 -0.9204 -0.5524 -0.3866
18865TIP3    H278087   1.950   6.534  13.477  0.3352 -0.2773  0.2051
18866TIP3   OH278088   3.411   1.535   1.320  0.3303  0.0978 -0.2504
18866TIP3    H178089   3.317   1.539   1.300  0.1792 -2.3063 -0.3603
18866TIP3    H278090   3.454   1.563   1.239 -0.3135 -0.2712 -0.7332
18867TIP3   OH278091   5.063   1.656   0.830 -0.0869  0.7055  0.2097
18867TIP3    H178092   5.122   1.581   0.837 -0.2724  0.4091 -1.0238
18867TIP3    H278093   5.101   1.708   0.758 -1.0420  0.7632 -0.2646
18868TIP3   OH278094   2.748   3.928   4.156  0.2976  0.5966 -0.2993
18868TIP3    H178095   2.718   3.862   4.093 -0.4276  0.3906  0.2467
18868TIP3    H278096   2.687   3.919   4.230 -0.3307  2.4441 -0.5525
18869TIP3   OH278097   4.561   4.707  12.674 -0.2223 -0.1729 -0.0409
18869TIP3    H178098   4.477   4.738  12.640 -0.8504 -3.2589 -1.5806
18869TIP3    H278099   4.621   4.714  12.599  0.0294 -1.0280  0.0713
18870TIP3   OH278100   5.989   4.110  16.892 -0.0692  0.2671  0.1201
18870TIP3    H178101   5.915   4.060  16.858  0.9714 -1.5453  0.4401
18870TIP3    H278102   5.960   4.141  16.978 -0.6594  0.1124 -0.0170
18871TIP3   OH278103   2.076   4.631   0.841  0.4062  0.1027  0.0770
18871TIP3    H178104   2.123   4.683   0.776 -0.5437 -1.5278 -2.0390
18871TIP3    H278105   2.113   4.544   0.834  0.7704  0.0314  2.3088
18872TIP3   OH278106   3.611   3.290   2.136 -0.0542  0.8071 -0.0533
18872TIP3    H178107   3.652   3.205   2.123 -0.0844  0.6940  0.5603
18872TIP3    H278108   3.599   3.325   2.047 -2.1811 -0.8454 -0.5252
18873TIP3   OH278109   3.879   2.837  15.497 -0.2949  0.3251  0.2490
18873TIP3    H178110   3.968   2.872  15.490 -1.0537  2.5496  1.0181
18873TIP3    H278111   3.891   2.748  15.532  1.6160  0.4941  0.1439
18874TIP3   OH278112   1.768   3.046   1.535 -0.0503 -0.4342  0.3793
18874TIP3    H178113   1.793   3.069   1.445 -1.7676  1.7453  0.3736
18874TIP3    H278114   1.841   3.077   1.589  2.3630 -4.2823 -0.3153
18875TIP3   OH278115   4.140   0.943   5.408  0.1450  0.0048 -0.7316
18875TIP3    H178116   4.223   0.942   5.455 -1.3643 -1.6321  2.1860
18875TIP3    H278117   4.129   0.854   5.376 -0.3351  0.2974 -1.4165
18876TIP3   OH278118   4.022   6.138  12.698 -0.5445 -0.2686 -0.2457
18876TIP3    H178119   3.969   6.062  12.672  0.1010 -1.8689  2.6816
18876TIP3    H278120   4.103   6.129  12.647  0.4363 -2.9140  1.5851
18877TIP3   OH278121   5.870   0.467  12.387  0.6657  0.3066  0.4444
18877TIP3    H178122   5.951   0.482  12.338  1.0731  0.1758  1.0652
18877TIP3    H278123   5.855   0.548  12.436  0.7863  0.0972  0.8376
18878TIP3   OH278124   0.280   0.295  11.765  0.3410 -0.0287 -0.0773
18878TIP3    H178125   0.328   0.375  11.744  2.6282 -0.8042  1.7076
18878TIP3    H278126   0.348   0.232  11.790 -1.5687 -1.1656  2.8669
18879TIP3   OH278127   3.281   1.825  12.380  0.2063  0.8091  0.3502
18879TIP3    H178128   3.361   1.876  12.393  1.1937 -0.7660  0.7117
18879TIP3    H278129   3.216   1.868  12.435  2.0180 -0.5630  3.8776
18880TIP3   OH278130   4.081   3.414  14.619  0.5222  0.4570 -0.6041
18880TIP3    H178131   4.122   3.500  14.610  0.7600  0.5697  1.2408
18880TIP3    H278132   4.043   3.414  14.707  0.2956 -1.2274 -0.6641
18881TIP3   OH278133   2.005   3.109   1.670  0.5232  0.5010  0.3199
18881TIP3    H178134   2.096   3.116   1.641  0.0780 -0.3243 -1.4428
18881TIP3    H278135   1.982   3.198   1.697  1.0086  1.4442 -2.0527
18882TIP3   OH278136   2.212   5.604   3.206  0.1555  0.1176  0.3734
18882TIP3    H178137   2.161   5.685   3.209  3.0741  2.1131  0.9749
18882TIP3    H278138   2.172   5.547   3.271 -0.9650  1.7725  1.2067
18883TIP3   OH278139   5.620   6.218  15.777 -0.0277  0.0422 -0.0070
18883TIP3    H178140   5.593   6.150  15.839  1.5860  1.4947  2.4569
18883TIP3    H278141   5.715   6.224  15.788  0.3267  0.5220 -2.5768
18884TIP3   OH278142   0.226   3.517   1.894  0.3321  1.0510  0.0339
18884TIP3    H178143   0.322   3.518   1.885  0.4230  0.5705  0.8260
18884TIP3    H278144   0.199   3.438   1.848  0.3527  1.0112  0.0894
18885TIP3   OH278145   5.972   4.805  11.006  0.4613  0.4693 -0.8152
18885TIP3    H178146   6.047   4.779  11.060 -0.1675 -1.4361 -0.8178
18885TIP3    H278147   6.000   4.887  10.965  2.1357  0.3435 -0.0032
18886TIP3   OH278148   0.005   2.171   5.337  0.1935  0.4179 -0.4007
18886TIP3    H178149   0.075   2.206   5.393  2.3043 -0.5253 -2.2938
18886TIP3    H278150  -0.058   2.243   5.330  0.1888  0.8122  2.4990
18887TIP3   OH278151   3.457   6.102   0.753 -0.4156  0.1937 -0.0085
18887TIP3    H178152   3.378   6.052   0.733 -1.0169  0.7768  0.8383
18887TIP3    H278153   3.444   6.134   0.842 -0.6809  2.9440 -0.9137
18888TIP3   OH278154   2.869   6.544  11.902  0.0295 -0.1722 -0.1784
18888TIP3    H178155   2.956   6.505  11.916 -0.2844 -0.7713  0.1467
18888TIP3    H278156   2.808   6.473  11.919 -0.5685  0.5082  0.5717
18889TIP3   OH278157   5.177   3.219  14.753 -0.2263 -0.0682  0.1248
18889TIP3    H178158   5.111   3.231  14.821 -0.3606  0.8255 -0.1489
18889TIP3    H278159   5.188   3.306  14.715  0.0500 -0.5031 -0.8114
18890TIP3   OH278160   2.995   0.959   4.180  0.2393  0.1674  0.1223
18890TIP3    H178161   2.909   0.999   4.189  0.7070  1.0959  0.6685
18890TIP3    H278162   2.985   0.896   4.109 -1.2224 -0.6982  1.0356
18891TIP3   OH278163   2.715   0.798   4.871 -0.2225 -0.1900  0.3093
18891TIP3    H178164   2.630   0.835   4.848 -0.8630 -1.1419  1.0634
18891TIP3    H278165   2.777   0.845   4.816 -1.1406  1.0905  0.3334
18892TIP3   OH278166   4.744   1.032   3.205 -0.0737 -0.0519  0.7636
18892TIP3    H178167   4.817   0.981   3.170  0.9084  0.1658  2.4054
18892TIP3    H278168   4.776   1.067   3.288 -2.1535 -0.1905  1.6928
18893TIP3   OH278169   4.338   5.943  11.550  0.2653  0.0534 -0.0259
18893TIP3    H178170   4.286   5.975  11.623  0.0195 -0.8630  0.2129
18893TIP3    H278171   4.275   5.931  11.479  0.3396  0.0290 -0.0886
18894TIP3   OH278172   1.383   0.690  12.509  0.1113 -0.0336 -0.6092
18894TIP3    H178173   1.468   0.712  12.470 -0.1466 -0.6153 -1.5435
18894TIP3    H278174   1.386   0.595  12.520 -0.0927  0.0412  0.1717
18895TIP3   OH278175   0.801   3.353  12.652 -0.4529  0.8343  0.5434
18895TIP3    H178176   0.836   3.418  12.593 -0.1211  1.4828  1.4354
18895TIP3    H278177   0.708   3.348  12.630 -0.7750  2.6301  1.3741
18896TIP3   OH278178   3.517   4.608  16.593  0.1449  0.7234 -0.3899
18896TIP3    H178179   3.544   4.684  16.541  1.3054  0.4203 -0.2361
18896TIP3    H278180   3.496   4.541  16.528 -0.3588  0.9916 -0.5109
18897TIP3   OH278181   5.354   6.775  16.692 -0.4741 -0.6310 -0.2128
18897TIP3    H178182   5.345   6.863  16.728  0.3320 -0.7609  0.3163
18897TIP3    H278183   5.444   6.749  16.711  0.0776 -0.6426 -2.4796
18898TIP3   OH278184   0.185   0.051  12.719  0.7707 -0.6419 -0.3316
18898TIP3    H178185   0.187   0.069  12.625 -0.8593 -0.6996 -0.4059
18898TIP3    H278186   0.137   0.125  12.756 -0.0380 -1.4375  0.2347
18899TIP3   OH278187   6.009   6.175  16.471  0.6724 -0.0576 -0.5389
18899TIP3    H178188   5.974   6.149  16.556  0.9384  1.5705  0.1105
18899TIP3    H278189   6.102   6.153  16.475  0.5603 -0.5708 -0.6668
18900TIP3   OH278190   2.828   4.588  15.009  0.2580 -0.6922  0.2638
18900TIP3    H178191   2.774   4.512  15.031 -1.1428  0.5785  1.4571
18900TIP3    H278192   2.769   4.646  14.962  1.1431 -0.0750 -0.1103
18901TIP3   OH278193   6.281   5.842  16.357 -0.1485 -0.0853  0.7938
18901TIP3    H178194   6.267   5.839  16.263 -0.5248 -1.4241  0.8748
18901TIP3    H278195   6.274   5.751  16.386 -1.9428  0.4897  2.3971
18902TIP3   OH278196   1.386   0.648  14.779  0.0742  0.4753 -0.7464
18902TIP3    H178197   1.323   0.674  14.846 -1.4236 -0.2771 -1.8011
18902TIP3    H278198   1.450   0.594  14.826 -1.3146 -0.5973 -0.0153
18903TIP3   OH278199   2.317   1.945  15.590 -0.1034  0.7807  0.2218
18903TIP3    H178200   2.242   1.969  15.644 -0.4013  1.8629 -0.6298
18903TIP3    H278201   2.382   2.013  15.608  0.7113 -0.1654  0.9829
18904TIP3   OH278202   5.675   3.520   4.274  0.3788 -0.2378  0.0234
18904TIP3    H178203   5.616   3.527   4.350  0.0458 -0.9300 -0.1662
18904TIP3    H278204   5.750   3.470   4.306 -0.1229 -1.2301 -0.2985
18905TIP3   OH278205   5.285   3.603  14.179  0.4516  0.1022 -0.3156
18905TIP3    H178206   5.229   3.614  14.102  0.0817  0.2154 -0.0297
18905TIP3    H278207   5.272   3.511  14.205 -2.1710  0.9254  1.7167
18906TIP3   OH278208   4.238   4.766   1.378 -0.1708  0.2037  0.6925
18906TIP3    H178209   4.212   4.675   1.396 -0.8063  0.7596  2.8269
18906TIP3    H278210   4.185   4.791   1.302  1.3161 -1.7276 -1.1107
18907TIP3   OH278211   2.707   0.696  12.069 -0.6104 -0.4141 -0.1042
18907TIP3    H178212   2.690   0.750  11.992  0.8242 -1.3801 -1.1569
18907TIP3    H278213   2.802   0.684  12.069 -0.7447 -1.6877  0.9578
18908TIP3   OH278214   2.588   3.927  13.019 -1.0254 -0.7945  0.5810
18908TIP3    H178215   2.628   3.937  12.933  1.7595 -2.5389  1.5405
18908TIP3    H278216   2.632   3.993  13.074 -1.3507 -0.9890  1.0836
18909TIP3   OH278217   5.886   3.146   3.343  0.6558 -0.9017  0.4762
18909TIP3    H178218   5.883   3.107   3.255 -0.5740  0.0234  0.0866
18909TIP3    H278219   5.926   3.232   3.330 -1.8436  0.3197  0.3470
18910TIP3   OH278220   4.325   5.345   2.519  0.0463 -0.1955 -0.3417
18910TIP3    H178221   4.275   5.267   2.546  1.5138 -1.5208 -1.2742
18910TIP3    H278222   4.416   5.316   2.520  0.7100  1.7957  0.1165
18911TIP3   OH278223   1.071   2.932   4.702 -0.1744 -0.3672  0.2656
18911TIP3    H178224   1.017   3.009   4.719 -1.8680 -1.3847 -0.2111
18911TIP3    H278225   1.078   2.888   4.786 -0.2585 -0.3305  0.2923
18912TIP3   OH278226   4.970   0.086  11.615 -0.3457 -0.0813  0.6672
18912TIP3    H178227   5.039   0.104  11.679  0.8948  2.0586 -1.1277
18912TIP3    H278228   4.947  -0.005  11.630  1.7196 -0.4025  2.4374
18913TIP3   OH278229   2.902   3.179  15.483 -0.6661 -0.6307  0.3273
18913TIP3    H178230   2.995   3.196  15.468 -0.9786  0.8079 -0.1429
18913TIP3    H278231   2.897   3.086  15.505  1.1172 -0.3190  2.3139
18914TIP3   OH278232   6.180   2.581  15.112 -0.1653 -0.7609  0.3775
18914TIP3    H178233   6.203   2.658  15.061  1.6761 -1.5526 -0.0844
18914TIP3    H278234   6.138   2.615  15.191 -3.0166  0.5007 -1.5346
18915TIP3   OH278235   1.237   2.037  11.771 -0.2071 -0.2728 -0.4403
18915TIP3    H178236   1.178   1.977  11.726 -0.5459 -0.3722  0.1260
18915TIP3    H278237   1.221   2.122  11.731 -0.5935 -0.3367 -0.4234
18916TIP3   OH278238   0.086   5.397  15.566  0.6079 -0.1364  0.0957
18916TIP3    H178239   0.109   5.419  15.657 -1.1864  1.5721  0.2070
18916TIP3    H278240   0.154   5.438  15.514  2.7133 -2.6585  0.6272
18917TIP3   OH278241   2.993   4.913  14.022  0.0050 -0.8645  0.1044
18917TIP3    H178242   3.045   4.902  13.942  2.2514  1.9253  1.0010
18917TIP3    H278243   3.009   4.832  14.071 -0.8850 -2.3452 -1.9032
18918TIP3   OH278244   0.007   3.689  14.825  0.2248  0.3395 -0.1619
18918TIP3    H178245   0.076   3.626  14.810  1.0159  0.9746  0.6487
18918TIP3    H278246  -0.053   3.678  14.752  0.8978 -0.6008 -0.5876
18919TIP3   OH278247   6.535   3.022  17.018  0.0137  0.3928  0.2225
18919TIP3    H178248   6.521   3.035  17.111 -0.2454  2.9408 -0.1153
18919TIP3    H278249   6.448   3.002  16.983 -0.2825  1.6394  0.2254
18920TIP3   OH278250   4.567   2.586  16.633  0.2395 -0.1134 -0.6025
18920TIP3    H178251   4.627   2.622  16.698 -0.2189 -1.5233  0.6502
18920TIP3    H278252   4.481   2.596  16.672  0.0911 -2.4349 -0.2241
18921TIP3   OH278253   5.585   6.651  11.241 -0.3270  0.8831 -0.4510
18921TIP3    H178254   5.561   6.681  11.328  1.9285 -0.9161  0.9153
18921TIP3    H278255   5.665   6.700  11.221  0.8285 -0.8158 -0.1591
18922TIP3   OH278256   5.558   2.194   4.711  0.2851  0.3120  0.1416
18922TIP3    H178257   5.570   2.120   4.771 -1.9809 -0.4086 -0.2182
18922TIP3    H278258   5.591   2.270   4.760  1.7153 -0.7600  0.9092
18923TIP3   OH278259   3.410   2.992   5.564 -0.1166  0.3641  0.8150
18923TIP3    H178260   3.416   2.901   5.590 -2.7883  0.4670  2.0738
18923TIP3    H278261   3.381   2.989   5.472  2.1940  0.0231  0.0308
18924TIP3   OH278262   0.239   3.841  14.908 -0.8327 -0.1763  0.0068
18924TIP3    H178263   0.158   3.794  14.885 -0.0931 -0.4020 -2.3554
18924TIP3    H278264   0.262   3.890  14.829  0.2027  1.6258  1.3526
18925TIP3   OH278265   6.562   4.661  13.450 -0.3589 -0.5948 -0.2197
18925TIP3    H178266   6.502   4.687  13.520  1.6310  0.2259  1.2926
18925TIP3    H278267   6.570   4.739  13.395 -1.6219 -1.1179 -1.2017
18926TIP3   OH278268   1.779   1.026   0.274 -0.5976 -0.5128  0.3786
18926TIP3    H178269   1.850   1.079   0.311 -0.2303  0.4392 -1.5869
18926TIP3    H278270   1.763   0.959   0.341  2.1318 -0.7643  0.9159
18927TIP3   OH278271   3.639   6.490   5.949 -0.0154  0.0120  0.1617
18927TIP3    H178272   3.695   6.427   5.995 -0.6384 -0.0303  0.8672
18927TIP3    H278273   3.553   6.449   5.948  0.0196 -0.0552 -1.1953
18928TIP3   OH278274   1.147   3.408  11.136  0.5876  0.2927  0.1084
18928TIP3    H178275   1.221   3.448  11.091  0.0396  1.1804 -0.0446
18928TIP3    H278276   1.091   3.482  11.160  0.3671 -0.2530  1.3482
18929TIP3   OH278277   0.862   2.370   1.680  0.1104 -0.0356  0.2876
18929TIP3    H178278   0.940   2.316   1.670  0.4983  0.8630 -1.9617
18929TIP3    H278279   0.889   2.458   1.656 -1.8943  0.0240 -2.2858
18930TIP3   OH278280   0.662   1.838   0.001  0.4377  0.2045  0.2169
18930TIP3    H178281   0.745   1.804  -0.032  0.1732 -1.1078  0.8536
18930TIP3    H278282   0.641   1.782   0.076 -0.7814  0.8321  0.3664
18931TIP3   OH278283   6.632   3.191   4.068  0.0139  0.2975  0.0994
18931TIP3    H178284   6.624   3.239   3.985  0.0478  1.7471  0.9124
18931TIP3    H278285   6.726   3.175   4.077  0.2484  1.8406  0.7561
18932TIP3   OH278286   1.473   3.130   3.353 -0.5256 -0.5865 -0.0843
18932TIP3    H178287   1.456   3.121   3.446  2.2347 -1.3141  0.4362
18932TIP3    H278288   1.513   3.216   3.343  1.9967 -1.6397  0.0046
18933TIP3   OH278289   6.277   3.975   4.606  0.2264  0.3098 -0.0906
18933TIP3    H178290   6.341   4.015   4.665 -0.3212 -0.4736  1.0545
18933TIP3    H278291   6.311   3.888   4.590  0.4673  0.5772 -1.1070
18934TIP3   OH278292   3.800   3.399   0.262 -0.2066  0.1380  0.2901
18934TIP3    H178293   3.772   3.483   0.226 -0.4179  0.4357  1.1241
18934TIP3    H278294   3.734   3.378   0.329 -0.1780 -0.7073  0.0753
18935TIP3   OH278295   2.641   6.154  13.996 -0.4616 -0.6738 -0.1652
18935TIP3    H178296   2.655   6.247  14.016 -1.2541 -0.3047 -1.2722
18935TIP3    H278297   2.707   6.108  14.050  1.0256  0.6101 -0.8116
18936TIP3   OH278298   2.254   4.873  14.503 -0.1599 -0.2301 -0.8741
18936TIP3    H178299   2.220   4.873  14.592 -1.1394 -0.0842 -1.2304
18936TIP3    H278300   2.254   4.965  14.477 -2.6020 -0.4384 -1.9759
18937TIP3   OH278301   5.227   1.476  15.176 -0.0152 -0.5089  0.6404
18937TIP3    H178302   5.147   1.430  15.200  0.3585  0.1797  3.5971
18937TIP3    H278303   5.296   1.411  15.186  0.0903 -0.3409  1.0388
18938TIP3   OH278304   6.187   0.097   0.606  0.3534 -0.0154  0.4025
18938TIP3    H178305   6.214   0.012   0.572  0.0946  0.5049 -1.2240
18938TIP3    H278306   6.268   0.148   0.612  0.2556  0.3305 -0.8403
18939TIP3   OH278307   2.586   2.490  11.487 -0.0420  0.4766  0.1014
18939TIP3    H178308   2.558   2.570  11.441  0.6289  0.3233 -0.6054
18939TIP3    H278309   2.597   2.426  11.417  1.3949  0.3481  0.4214
18940TIP3   OH278310   2.632   3.557   2.122 -0.7673  0.0382  0.1668
18940TIP3    H178311   2.707   3.604   2.084  0.1259 -0.2663  1.4667
18940TIP3    H278312   2.635   3.470   2.082 -1.8065  0.7179 -1.4732
18941TIP3   OH278313   5.892   0.965  12.296  0.3664 -0.0011 -0.1944
18941TIP3    H178314   5.948   0.903  12.250  0.2740  0.3258 -0.7554
18941TIP3    H278315   5.891   1.042  12.240 -0.2995  0.1541  0.0246
18942TIP3   OH278316   0.382   0.458  14.383  0.6225 -0.1125  0.2297
18942TIP3    H178317   0.328   0.510  14.443  3.5343  4.0823 -0.3227
18942TIP3    H278318   0.319   0.412  14.328 -2.1994  0.0663  3.0074
18943TIP3   OH278319   1.172   0.718   4.568 -0.0301 -0.4269  0.2226
18943TIP3    H178320   1.110   0.671   4.625  1.1445 -1.5265  0.6265
18943TIP3    H278321   1.233   0.759   4.629 -0.0082  0.1797 -0.1989
18944TIP3   OH278322   3.028   6.099  11.540 -0.2034 -0.2108  0.3749
18944TIP3    H178323   2.935   6.080  11.527  0.0792 -0.5561 -1.2588
18944TIP3    H278324   3.048   6.060  11.626 -1.8316  0.9789  1.3590
18945TIP3   OH278325   4.516   3.531   5.045 -0.1703  0.1765  0.2238
18945TIP3    H178326   4.485   3.539   4.955 -1.8035  0.5419  0.7804
18945TIP3    H278327   4.471   3.601   5.092  1.8414  0.9835  1.0477
18946TIP3   OH278328   4.053   3.617   0.690  0.6681  0.7597 -0.1850
18946TIP3    H178329   3.959   3.607   0.676  0.6163 -0.5458  0.8409
18946TIP3    H278330   4.082   3.675   0.620 -0.8138  0.7687 -0.8276
18947TIP3   OH278331   6.126   0.028   3.559 -0.1478 -0.1230  0.1004
18947TIP3    H178332   6.143   0.033   3.465  1.9404 -0.8715  0.3773
18947TIP3    H278333   6.117  -0.065   3.577  0.9773 -0.1062  0.8419
18948TIP3   OH278334   5.922   2.682   0.850  0.1975 -0.0189 -0.1832
18948TIP3    H178335   5.831   2.659   0.828 -1.2313  2.7218  2.0594
18948TIP3    H278336   5.951   2.738   0.778  1.1345 -2.8740 -2.1504
18949TIP3   OH278337   1.671   5.112  16.349 -0.2977 -0.5071  0.2154
18949TIP3    H178338   1.606   5.057  16.306 -0.6249  1.1325 -1.5560
18949TIP3    H278339   1.638   5.201  16.339  0.9530  0.1666  1.6055
18950TIP3   OH278340   4.978   3.487   3.461 -0.2229 -0.0031  0.5945
18950TIP3    H178341   4.929   3.569   3.459  0.1806  0.2358 -1.0925
18950TIP3    H278342   5.069   3.513   3.473 -0.0029 -0.1211 -0.6547
18951TIP3   OH278343   4.189   4.085   3.264 -0.5059 -0.2139  0.1274
18951TIP3    H178344   4.279   4.072   3.293 -0.3120  1.4426  0.3920
18951TIP3    H278345   4.142   4.108   3.344 -0.5191  1.8162 -0.4108
18952TIP3   OH278346   1.160   6.054   2.328 -0.1823  0.4179 -0.1608
18952TIP3    H178347   1.155   6.068   2.422  0.3736 -0.3585 -0.0018
18952TIP3    H278348   1.187   5.963   2.319  0.4098  0.6665 -1.0566
18953TIP3   OH278349   4.821   6.399  10.971 -0.0353 -0.8100 -0.1949
18953TIP3    H178350   4.751   6.463  10.983  0.7461  0.1365 -0.5520
18953TIP3    H278351   4.857   6.418  10.885  2.0748  0.2034  0.8170
18954TIP3   OH278352   3.853   5.548   4.499 -0.3717  0.1741 -0.1736
18954TIP3    H178353   3.919   5.605   4.536 -0.0567  0.1672 -0.7147
18954TIP3    H278354   3.874   5.543   4.406 -1.3655  0.4944 -0.4290
18955TIP3   OH278355   6.382   5.462  11.445  0.3948  0.7060 -0.1294
18955TIP3    H178356   6.340   5.547  11.431  0.4456  0.8938  0.8185
18955TIP3    H278357   6.318   5.398  11.412  0.8011  1.1294 -1.8768
18956TIP3   OH278358   1.952   4.410  16.558  0.6365 -0.0759 -0.3191
18956TIP3    H178359   1.981   4.490  16.602  0.1228  1.1946 -2.1891
18956TIP3    H278360   1.967   4.426  16.465 -3.7328 -0.1565 -1.2875
18957TIP3   OH278361   0.538   3.155  14.813  0.0248 -0.1167  0.4769
18957TIP3    H178362   0.629   3.143  14.839  0.4854 -1.8369 -1.6602
18957TIP3    H278363   0.537   3.238  14.765  0.1770  0.5294  1.5677
18958TIP3   OH278364   2.392   4.565  12.949  0.1512 -0.6055  0.5368
18958TIP3    H178365   2.307   4.526  12.970 -0.1828 -1.2746 -1.7822
18958TIP3    H278366   2.378   4.610  12.865  1.6856  0.6750  0.9228
18959TIP3   OH278367   0.475   5.811  14.553  0.3442 -0.7488  0.2824
18959TIP3    H178368   0.459   5.850  14.639  1.6069 -2.3127  1.2779
18959TIP3    H278369   0.389   5.814  14.510 -0.7726 -1.5681  2.3016
18960TIP3   OH278370   3.668   5.497  15.860  0.9368 -0.2144  0.5502
18960TIP3    H178371   3.700   5.583  15.886  0.7141  0.7341 -2.0863
18960TIP3    H278372   3.718   5.474  15.782 -0.9760 -1.1660 -0.4613
18961TIP3   OH278373   5.351   1.466  12.087  0.3468  0.2334 -0.2449
18961TIP3    H178374   5.355   1.377  12.122  2.6766  0.6464  0.7340
18961TIP3    H278375   5.278   1.506  12.133  0.6029 -0.5600  0.9128
18962TIP3   OH278376   3.007   5.273  10.711 -0.3403  0.2386  0.1555
18962TIP3    H178377   3.016   5.363  10.744  0.8970  0.4188 -0.6112
18962TIP3    H278378   2.921   5.272  10.668 -0.1214  1.2320 -0.3302
18963TIP3   OH278379   6.004   0.564   1.944  0.4144  0.6485  0.8794
18963TIP3    H178380   5.911   0.586   1.944 -0.0963 -1.2618  0.9594
18963TIP3    H278381   6.047   0.640   1.983 -1.0380  1.7883  0.3555
18964TIP3   OH278382   2.483   3.157  16.589 -0.4478  0.0819 -0.7438
18964TIP3    H178383   2.533   3.162  16.508 -1.5045  0.1675 -1.4020
18964TIP3    H278384   2.418   3.089  16.573 -3.7722  3.1784 -1.7646
18965TIP3   OH278385   1.339   1.186  16.023  0.1038  0.8960 -0.6311
18965TIP3    H178386   1.254   1.178  15.979 -0.3042 -1.5867  0.4269
18965TIP3    H278387   1.403   1.183  15.952 -0.6045 -0.9358 -1.2422
18966TIP3   OH278388   2.056   5.954  10.816 -0.0952 -0.0530  0.0404
18966TIP3    H178389   2.000   5.936  10.739 -0.2968 -0.6328  0.3147
18966TIP3    H278390   2.064   5.869  10.859 -2.4015  0.7379  2.2962
18967TIP3   OH278391   0.211   0.145  16.727 -0.0396 -0.3804 -0.2194
18967TIP3    H178392   0.306   0.147  16.722  0.0164 -1.0149  0.4968
18967TIP3    H278393   0.185   0.085  16.657  0.0590  0.1142 -0.6839
18968TIP3   OH278394   2.473   1.810   0.539  0.0231 -0.2316 -0.0551
18968TIP3    H178395   2.471   1.881   0.604 -0.4381 -0.0849 -0.2271
18968TIP3    H278396   2.389   1.817   0.493  0.2536 -0.4691 -0.5215
18969TIP3   OH278397   5.192   2.503   3.699  0.5340 -0.1628 -1.2287
18969TIP3    H178398   5.102   2.475   3.716  1.1068 -0.4350  1.8844
18969TIP3    H278399   5.246   2.437   3.741  2.0690  1.7822  0.0046
18970TIP3   OH278400   4.099   1.869   5.128  0.7279 -0.7091  0.1295
18970TIP3    H178401   4.139   1.793   5.086 -3.5304 -3.3413  0.3295
18970TIP3    H278402   4.023   1.889   5.074 -1.2005  0.0611  2.9310
18971TIP3   OH278403   1.527   6.051   4.320  0.1808 -0.1846  0.3248
18971TIP3    H178404   1.584   5.978   4.343 -1.3835 -1.3083  0.8877
18971TIP3    H278405   1.580   6.129   4.334  1.8382 -1.2024 -0.0899
18972TIP3   OH278406   0.619   0.329   5.077 -0.0640  0.2686  0.3212
18972TIP3    H178407   0.652   0.406   5.122  0.6758 -0.5821  1.2732
18972TIP3    H278408   0.671   0.324   4.997  0.3807  0.3513  0.6020
18973TIP3   OH278409   5.228   0.415  16.320 -0.5352 -0.1768  0.4086
18973TIP3    H178410   5.266   0.499  16.292  0.6554 -0.6315  0.6105
18973TIP3    H278411   5.137   0.420  16.292 -0.6340  1.4093  0.8891
18974TIP3   OH278412   1.942   3.325  15.258  0.0619  0.7272  0.1033
18974TIP3    H178413   1.886   3.380  15.313 -1.1436  0.8764 -1.1967
18974TIP3    H278414   1.887   3.249  15.238  1.0341 -0.0479  0.3346
18975TIP3   OH278415   1.765   0.364  15.804 -0.0212  0.0835 -0.4493
18975TIP3    H178416   1.853   0.377  15.770 -0.1042 -0.3984 -0.8516
18975TIP3    H278417   1.709   0.364  15.727 -0.2617 -0.5358 -0.2820
18976TIP3   OH278418   3.337   6.677   1.501  0.6166  0.1800 -0.0344
18976TIP3    H178419   3.287   6.654   1.579 -0.1142  0.5706 -0.3860
18976TIP3    H278420   3.424   6.700   1.535  0.1453  0.9003  0.7239
18977TIP3   OH278421   1.571   5.548  13.860 -0.7510 -0.1188  0.0279
18977TIP3    H178422   1.603   5.500  13.784  0.5502  2.2723 -1.0584
18977TIP3    H278423   1.488   5.586  13.830 -1.6504 -1.4021  0.7967
18978TIP3   OH278424   5.600   3.255  11.777  0.2758 -0.1818 -0.2637
18978TIP3    H178425   5.610   3.343  11.740 -0.1490 -0.1515 -0.3087
18978TIP3    H278426   5.512   3.228  11.751 -0.7241  0.5168  2.0994
18979TIP3   OH278427   5.617   1.293   2.441  0.3952 -0.4266  0.5132
18979TIP3    H178428   5.690   1.322   2.386 -0.2834  1.0282  0.3175
18979TIP3    H278429   5.645   1.209   2.477  2.6209  0.5757  1.2676
18980TIP3   OH278430   2.389   5.847  14.858  0.2954  0.5336 -0.2711
18980TIP3    H178431   2.471   5.799  14.867 -0.5520 -1.0662 -0.7701
18980TIP3    H278432   2.334   5.791  14.804 -1.3725  1.2731  0.5873
18981TIP3   OH278433   1.617   6.355  15.439  0.3659  0.8161  1.1895
18981TIP3    H178434   1.694   6.327  15.390  1.0105 -1.4393  3.2484
18981TIP3    H278435   1.644   6.435  15.484 -0.0569  2.5882 -1.5093
18982TIP3   OH278436   5.398   1.667   0.556  0.0294 -0.2729  0.5657
18982TIP3    H178437   5.472   1.661   0.616  1.3486  1.1023 -0.8077
18982TIP3    H278438   5.436   1.645   0.470 -0.9958  0.9766 -0.2498
18983TIP3   OH278439   6.563   6.770  15.553 -0.2951 -0.1256  0.0212
18983TIP3    H178440   6.549   6.688  15.601 -0.2108 -0.0521  0.1729
18983TIP3    H278441   6.544   6.748  15.462 -1.2839 -0.0688  0.1946
18984TIP3   OH278442   5.414   2.962  16.918  0.3370  0.3880 -0.2164
18984TIP3    H178443   5.416   2.954  17.013  0.9344 -0.4587 -0.2921
18984TIP3    H278444   5.431   3.055  16.901 -0.2568  0.6382  0.5046
18985TIP3   OH278445   1.751   3.631  14.843 -0.2798  0.0428  0.7359
18985TIP3    H178446   1.666   3.592  14.820 -1.3670  1.2383  2.4311
18985TIP3    H278447   1.771   3.690  14.771 -0.9396 -0.2003  0.3485
18986TIP3   OH278448   4.349   6.040   3.730  0.1799 -0.2310  0.1266
18986TIP3    H178449   4.383   6.033   3.640 -1.9325 -2.4641 -0.6097
18986TIP3    H278450   4.370   5.955   3.769 -0.0525  0.2530  1.3261
18987TIP3   OH278451   5.357   1.144  15.350  0.2902  0.0188  0.0749
18987TIP3    H178452   5.370   1.184  15.264 -1.7041  1.7370  0.4892
18987TIP3    H278453   5.445   1.136  15.387  1.1126 -0.1318 -1.8351
18988TIP3   OH278454   2.578   2.163  12.715  0.4166 -0.1086  0.1335
18988TIP3    H178455   2.669   2.146  12.739  0.1828 -0.1059  1.0850
18988TIP3    H278456   2.553   2.239  12.768 -0.0877  0.0024 -0.2520
18989TIP3   OH278457   0.233   1.374  11.279 -0.0596 -0.1530 -0.1214
18989TIP3    H178458   0.267   1.285  11.290  1.2234  0.1060 -1.6391
18989TIP3    H278459   0.241   1.414  11.366 -2.0638 -1.9265  0.9719
18990TIP3   OH278460   6.060   0.541  11.498  0.1574 -0.1676 -0.0322
18990TIP3    H178461   6.103   0.522  11.415 -0.2569 -0.2756 -0.2248
18990TIP3    H278462   5.969   0.513  11.485  0.4311 -1.6137  0.9679
18991TIP3   OH278463   6.395   5.734  11.418  0.6180 -0.4316  0.3367
18991TIP3    H178464   6.406   5.720  11.324 -0.8228 -0.4489  0.1523
18991TIP3    H278465   6.328   5.803  11.424 -0.7950 -1.8330  1.3410
18992TIP3   OH278466   4.312   0.521   5.232  0.0129 -0.4999  0.5119
18992TIP3    H178467   4.360   0.490   5.308  1.5347 -0.0303 -0.2204
18992TIP3    H278468   4.311   0.447   5.172 -0.0809 -0.4656  0.4702
18993TIP3   OH278469   6.175   3.102  12.156  0.7094 -0.8015  0.1642
18993TIP3    H178470   6.217   3.185  12.136 -0.3593 -0.6722 -1.7994
18993TIP3    H278471   6.246   3.038  12.154  1.1771 -0.2780 -0.8813
18994TIP3   OH278472   1.247   4.606  14.952  0.5580  0.0352  0.0262
18994TIP3    H178473   1.321   4.591  15.011  0.6295 -0.5642 -0.2080
18994TIP3    H278474   1.287   4.649  14.876  0.4762  0.7459  0.3839
18995TIP3   OH278475   6.805   5.959   5.583 -0.1399 -0.1422  0.0687
18995TIP3    H178476   6.783   6.010   5.661  1.8156 -0.9257  1.2178
18995TIP3    H278477   6.834   6.024   5.519  0.9810  0.3296  1.0208
18996TIP3   OH278478   6.723   4.015   6.293  0.0243 -0.5141 -0.6028
18996TIP3    H178479   6.762   4.101   6.308  1.4884 -1.4694  1.6246
18996TIP3    H278480   6.666   4.027   6.217 -1.0175  2.8025  0.5206
18997TIP3   OH278481   5.016   4.136   2.181 -0.4888 -0.0579 -0.3418
18997TIP3    H178482   4.946   4.083   2.141  1.3771 -0.8796 -2.7930
18997TIP3    H278483   5.084   4.140   2.114  2.4842 -0.5340  2.4209
18998TIP3   OH278484   6.405   2.930  11.914 -0.0841 -0.3628 -0.4889
18998TIP3    H178485   6.450   2.872  11.976 -0.4396  1.2289  1.3603
18998TIP3    H278486   6.314   2.932  11.945 -0.7211 -0.9660 -2.2101
18999TIP3   OH278487   2.611   5.548  16.464 -0.4050 -0.1586 -0.1793
18999TIP3    H178488   2.558   5.575  16.539 -0.4647 -2.5262  0.7166
18999TIP3    H278489   2.700   5.541  16.499 -0.0831  0.5869 -0.8327
19000TIP3   OH278490   1.592   3.947   4.403 -0.3260  0.7902  0.4178
19000TIP3    H178491   1.502   3.946   4.372 -0.2110  0.5636  0.0867
19000TIP3    H278492   1.616   4.040   4.404  0.9256  0.6996 -3.8619
19001TIP3   OH278493   5.160   4.350  11.591  0.5729 -0.2873 -0.3902
19001TIP3    H178494   5.166   4.257  11.570  0.2924 -0.2542 -0.6302
19001TIP3    H278495   5.163   4.354  11.686 -0.7795 -0.6529 -0.3172
19002TIP3   OH278496   3.199   5.051  14.686  0.0297 -0.1017  0.3874
19002TIP3    H178497   3.232   5.098  14.763  0.3710 -0.2145  0.3116
19002TIP3    H278498   3.117   5.011  14.716 -0.5588  1.0034  0.2921
19003TIP3   OH278499   1.076   4.753   1.059 -0.4005  0.1000  0.5757
19003TIP3    H178500   1.147   4.706   1.016 -0.5696 -0.1426  0.5598
19003TIP3    H278501   1.085   4.731   1.152 -0.4781  0.0364  0.5685
19004TIP3   OH278502   2.755   6.628   4.388 -1.0087 -0.2246 -0.7565
19004TIP3    H178503   2.667   6.621   4.351 -0.9509 -0.6447 -0.8224
19004TIP3    H278504   2.812   6.584   4.325 -0.9740 -1.3680  0.0238
19005TIP3   OH278505   1.394   0.056   5.962 -0.4497 -0.2787 -0.1552
19005TIP3    H178506   1.440   0.096   6.036  1.0525  1.2275 -1.7887
19005TIP3    H278507   1.319   0.114   5.947 -0.3563 -0.1837 -0.2528
19006TIP3   OH278508   6.730   0.079  15.070  0.3677 -0.2485  0.0999
19006TIP3    H178509   6.773   0.036  15.144 -0.1535 -0.1481  0.4661
19006TIP3    H278510   6.643   0.100  15.102 -0.3256 -1.3641 -0.9583
19007TIP3   OH278511   0.549   2.775   0.594 -0.4437 -0.3393  0.3262
19007TIP3    H178512   0.623   2.772   0.654 -0.3963 -2.0304  0.2320
19007TIP3    H278513   0.585   2.812   0.514 -0.2466  0.8951  0.9663
19008TIP3   OH278514   5.683   2.976   2.713 -0.1201  0.2447 -0.1706
19008TIP3    H178515   5.677   2.962   2.807  2.1930  2.9301  0.5013
19008TIP3    H278516   5.721   2.895   2.679 -0.1244 -0.4165  1.3251
19009TIP3   OH278517   4.158   5.839   6.376  0.5580  0.1513 -0.1741
19009TIP3    H178518   4.242   5.816   6.416  0.3837 -0.2772 -0.0478
19009TIP3    H278519   4.154   5.787   6.296  0.5265  0.3650 -0.3124
19010TIP3   OH278520   2.818   4.234   3.234 -0.4980  0.3891 -0.4687
19010TIP3    H178521   2.820   4.242   3.330  0.3545 -1.3966 -0.2955
19010TIP3    H278522   2.728   4.255   3.210 -1.3689 -1.3815  0.9898
19011TIP3   OH278523   6.188   2.906   2.155 -0.2818  0.4047  0.1370
19011TIP3    H178524   6.214   2.830   2.103  1.4042  1.7899 -1.1487
19011TIP3    H278525   6.154   2.969   2.091  0.6014  1.6349  0.8295
19012TIP3   OH278526   1.601   5.828  14.214 -0.4631  0.0530  0.1367
19012TIP3    H178527   1.525   5.775  14.238 -0.3362 -0.5933 -0.8184
19012TIP3    H278528   1.675   5.780  14.250 -0.5295  0.9744  1.5535
19013TIP3   OH278529   2.288   4.366   1.583  0.0892  0.2781  0.1931
19013TIP3    H178530   2.331   4.334   1.662  1.1894 -2.3442 -1.3266
19013TIP3    H278531   2.242   4.445   1.611  0.6584 -0.3645  3.3484
19014TIP3   OH278532   2.658   1.373  12.734 -1.0621 -0.0580  0.3038
19014TIP3    H178533   2.630   1.311  12.667 -0.6478 -0.1158  0.1817
19014TIP3    H278534   2.752   1.359  12.742 -1.5228 -2.4348  3.2733
19015TIP3   OH278535   3.834   2.174  15.455 -1.1424 -0.0499 -0.4832
19015TIP3    H178536   3.739   2.164  15.451 -1.3931  0.7852  2.0612
19015TIP3    H278537   3.850   2.262  15.420 -1.1167 -0.6473 -2.0879
19016TIP3   OH278538   4.263   0.634   2.840 -0.5674 -0.2563  0.2246
19016TIP3    H178539   4.254   0.639   2.935 -1.6012 -0.7363  0.1583
19016TIP3    H278540   4.313   0.712   2.817  1.7712 -1.2983  1.3960
19017TIP3   OH278541   4.736   2.502   2.147 -0.0275  0.6577 -0.3100
19017TIP3    H178542   4.796   2.484   2.219 -0.3906  1.2275  0.1399
19017TIP3    H278543   4.734   2.597   2.140 -0.9025  0.6532 -0.2836
19018TIP3   OH278544   3.964   6.445  16.881 -0.3414  0.0373 -0.0034
19018TIP3    H178545   4.027   6.475  16.816 -1.1087 -0.3407 -0.9384
19018TIP3    H278546   4.000   6.476  16.965 -0.8090  3.1877 -0.8261
19019TIP3   OH278547   6.503   3.168  12.233  0.0460 -0.2309 -0.1218
19019TIP3    H178548   6.443   3.095  12.248  2.3312 -2.2532 -0.1205
19019TIP3    H278549   6.460   3.221  12.166 -2.4292 -0.6379  1.0289
19020TIP3   OH278550   0.083   0.311   2.367 -0.0300  0.2208  0.5320
19020TIP3    H178551   0.004   0.361   2.384 -0.5331 -0.5669  0.5441
19020TIP3    H278552   0.052   0.222   2.350  0.7278  0.2123 -0.9476
19021TIP3   OH278553   5.008   4.169   0.064 -0.6144  0.3104 -0.1859
19021TIP3    H178554   4.917   4.162   0.034 -0.5011  2.0902 -1.0753
19021TIP3    H278555   5.010   4.248   0.118 -0.1552 -1.2512  2.2017
19022TIP3   OH278556   4.905   1.937   4.069 -0.3546 -0.0248  0.0581
19022TIP3    H178557   4.854   2.014   4.043  1.1835  0.2667 -2.4366
19022TIP3    H278558   4.946   1.962   4.151 -1.0754  1.2450  0.0611
19023TIP3   OH278559   0.835   6.101  13.642  0.4821  0.5307  0.0825
19023TIP3    H178560   0.844   6.032  13.576 -0.5920  0.8422 -0.4163
19023TIP3    H278561   0.786   6.171  13.598  1.8587  1.7825  0.4608
19024TIP3   OH278562   0.718   0.681   0.272 -0.1990 -0.7852 -0.6196
19024TIP3    H178563   0.789   0.706   0.214 -1.2766 -2.4973 -2.8111
19024TIP3    H278564   0.639   0.717   0.231 -0.6718  1.8858  2.2411
19025TIP3   OH278565   3.192   2.292   4.647 -0.2466  1.0558 -0.6310
19025TIP3    H178566   3.270   2.238   4.662  0.5625  1.5159 -2.7655
19025TIP3    H278567   3.164   2.269   4.558 -1.6155  2.0317 -0.4736
19026TIP3   OH278568   3.665   3.966   3.609 -0.3135  0.7884  0.1015
19026TIP3    H178569   3.661   4.022   3.687 -0.5766  0.5519  0.2623
19026TIP3    H278570   3.584   3.915   3.613 -1.3980  2.2930 -1.4792
19027TIP3   OH278571   6.830   0.365   3.150  0.5418 -0.5633  0.2505
19027TIP3    H178572   6.803   0.275   3.168  0.7728 -0.3700  1.6826
19027TIP3    H278573   6.881   0.390   3.227  1.9434  0.2240 -0.8820
19028TIP3   OH278574   1.830   2.613  16.789  0.0690  0.2891  0.0927
19028TIP3    H178575   1.787   2.535  16.754  0.7433  0.3371 -0.8829
19028TIP3    H278576   1.768   2.684  16.774 -0.3257  0.0282  0.4949
19029TIP3   OH278577   0.239   0.269  14.230 -0.7373  0.0279 -0.1511
19029TIP3    H178578   0.177   0.197  14.238 -1.0339  0.4404  1.6404
19029TIP3    H278579   0.193   0.334  14.177 -2.1225  0.5652  1.6078
19030TIP3   OH278580   5.004   3.677  13.945 -0.3825 -0.8924 -0.1125
19030TIP3    H178581   5.095   3.687  13.918  0.1191 -0.9524  1.4780
19030TIP3    H278582   4.980   3.589  13.915 -0.0877 -0.6953 -0.9635
19031TIP3   OH278583   0.981   6.061  16.561  0.7080  0.6284  0.2385
19031TIP3    H178584   1.020   6.148  16.560  1.5035  0.3452  2.0879
19031TIP3    H278585   1.055   6.002  16.544  0.2032  0.2790 -0.8452
19032TIP3   OH278586   5.137   5.231   3.243 -0.2839  0.4870  0.0789
19032TIP3    H178587   5.080   5.236   3.167 -0.1532 -1.1654 -0.1811
19032TIP3    H278588   5.081   5.197   3.313  0.0190  0.2571  0.2151
19033TIP3   OH278589   4.975   0.278  17.116  0.4485 -0.2132 -0.4355
19033TIP3    H178590   5.002   0.262  17.026  3.3545  1.3343  0.0379
19033TIP3    H278591   5.002   0.198  17.163  3.5915  0.8467 -0.1859
19034TIP3   OH278592   5.659   2.808  16.959 -0.6478  0.7030  0.0185
19034TIP3    H178593   5.634   2.869  17.028 -0.1987 -0.3224  1.1220
19034TIP3    H278594   5.694   2.864  16.890 -0.5844  1.7284  0.8481
19035TIP3   OH278595   0.709   4.323   4.003  0.4394 -0.0351  0.3621
19035TIP3    H178596   0.719   4.301   4.095  0.4809  2.5486  1.0425
19035TIP3    H278597   0.620   4.294   3.981  0.2741 -0.2899  1.3284
19036TIP3   OH278598   5.443   5.329   0.230 -0.1938  0.2044  0.1686
19036TIP3    H178599   5.536   5.337   0.254 -0.4445  0.2686  1.1395
19036TIP3    H278600   5.413   5.420   0.222 -0.5592  0.2078  1.4183
19037TIP3   OH278601   5.080   0.508   1.629  0.3017  0.8286 -0.5094
19037TIP3    H178602   4.989   0.509   1.659  0.4438 -1.2869  0.2350
19037TIP3    H278603   5.121   0.583   1.672 -0.9463  1.4450 -0.3620
19038TIP3   OH278604   0.355   6.207  16.024  0.0195 -0.1664  0.0582
19038TIP3    H178605   0.431   6.257  15.996 -0.2507  0.4395  0.3990
19038TIP3    H278606   0.281   6.247  15.978 -0.3590  0.5293  1.2360
19039TIP3   OH278607   1.496   6.628   2.296  0.3450 -0.3169  0.1766
19039TIP3    H178608   1.503   6.661   2.385  0.2485  2.6764 -0.8057
19039TIP3    H278609   1.586   6.628   2.263  0.1808  0.3596 -0.2835
19040TIP3   OH278610   3.878   4.615  12.078 -0.0953  0.7293  0.1309
19040TIP3    H178611   3.964   4.589  12.110  0.1075  0.5502 -0.5550
19040TIP3    H278612   3.841   4.667  12.150  0.4205  0.4827  0.5866
19041TIP3   OH278613   6.379   4.842   1.619  0.5668 -0.3929 -0.1979
19041TIP3    H178614   6.401   4.935   1.618 -0.7243 -0.0690 -1.5560
19041TIP3    H278615   6.395   4.814   1.710 -0.0907  1.4116  0.5147
19042TIP3   OH278616   0.291   6.719  14.408  0.0197 -0.2324  0.1549
19042TIP3    H178617   0.244   6.686  14.331 -0.7024  0.2562  0.3731
19042TIP3    H278618   0.243   6.798  14.432  1.4974  0.7938 -0.1519
19043TIP3   OH278619   2.582   3.879   5.694 -0.1574 -0.2626 -0.1072
19043TIP3    H178620   2.659   3.852   5.744  0.0331  0.0299 -0.2459
19043TIP3    H278621   2.613   3.889   5.604  0.1720  2.0009  0.1987
19044TIP3   OH278622   5.365   1.594   6.364 -0.3882 -0.1243  0.2400
19044TIP3    H178623   5.273   1.574   6.348 -0.3679  0.5247 -0.7852
19044TIP3    H278624   5.373   1.597   6.460 -1.1162 -1.5288  0.3606
19045TIP3   OH278625   2.673   4.629   1.801  0.4637  0.4905  0.3527
19045TIP3    H178626   2.579   4.626   1.814  0.5893 -0.6997  1.1283
19045TIP3    H278627   2.711   4.624   1.889  1.2545  0.7276  0.0422
19046TIP3   OH278628   0.429   2.323   0.443  0.1221 -0.2022 -0.2011
19046TIP3    H178629   0.338   2.334   0.468  0.5412  0.1178  1.2774
19046TIP3    H278630   0.451   2.233   0.469 -0.3612 -1.0907 -2.6218
19047TIP3   OH278631   3.093   2.888   2.200  0.4891  0.2689 -0.7224
19047TIP3    H178632   3.089   2.792   2.198  1.0704  0.2118  0.0486
19047TIP3    H278633   3.002   2.916   2.209  0.1166 -0.1228 -2.7266
19048TIP3   OH278634   6.032   1.969  14.547 -0.3109  0.3304 -0.3129
19048TIP3    H178635   6.037   1.875  14.563 -0.6599 -0.2235 -2.9829
19048TIP3    H278636   6.023   1.977  14.452  0.3325  3.0996 -0.2304
19049TIP3   OH278637   2.350   0.303  12.796 -0.3643 -0.0375 -0.0721
19049TIP3    H178638   2.387   0.386  12.828  0.5515 -0.6140  0.4271
19049TIP3    H278639   2.356   0.309  12.700 -1.1837  0.8464 -0.0824
19050TIP3   OH278640   0.088   4.098  11.126  0.3494  0.4826 -0.5842
19050TIP3    H178641   0.167   4.106  11.179  0.3323  2.0252 -0.7438
19050TIP3    H278642   0.016   4.106  11.188  0.3275  0.4413 -0.6044
19051TIP3   OH278643   6.365   4.863   5.391 -0.5582 -0.0232 -0.5071
19051TIP3    H178644   6.397   4.778   5.362  1.4429 -0.2465  1.9737
19051TIP3    H278645   6.375   4.920   5.314  0.7125 -1.4017 -1.4082
19052TIP3   OH278646   4.824   6.744   6.594  0.3330  0.3003  0.0471
19052TIP3    H178647   4.747   6.770   6.645  0.2260 -0.9705  0.5828
19052TIP3    H278648   4.819   6.648   6.593  1.4742  0.2440 -0.6013
19053TIP3   OH278649   0.747   3.875   1.529  0.4931  0.4620 -0.1475
19053TIP3    H178650   0.680   3.829   1.579  0.0109 -0.2908 -1.4198
19053TIP3    H278651   0.823   3.877   1.586  0.5727 -2.0391 -0.0475
19054TIP3   OH278652   4.532   3.532   4.123 -0.3126 -0.1403 -0.1653
19054TIP3    H178653   4.558   3.624   4.110 -1.8307  0.5099  1.1390
19054TIP3    H278654   4.603   3.495   4.176 -1.0215  1.0974  1.7539
19055TIP3   OH278655   0.313   3.792   0.830  0.4202 -0.8707  0.2011
19055TIP3    H178656   0.252   3.863   0.851 -1.6722 -2.9027  1.4687
19055TIP3    H278657   0.376   3.793   0.903 -0.4427 -1.1472  0.9777
19056TIP3   OH278658   5.848   5.914  10.300 -0.1270 -0.0624 -0.4239
19056TIP3    H178659   5.880   5.984  10.243 -0.6790  0.5999  0.0573
19056TIP3    H278660   5.797   5.959  10.368  1.1547 -0.7394  1.0653
19057TIP3   OH278661   4.374   3.523  11.561  0.1765  0.5165 -0.0717
19057TIP3    H178662   4.351   3.504  11.652 -0.6450  0.8309 -0.2022
19057TIP3    H278663   4.397   3.616  11.561  2.0856  0.0753  0.1659
19058TIP3   OH278664   1.807   6.749   1.045 -0.1560  0.3704  0.0384
19058TIP3    H178665   1.787   6.813   0.976  0.7487  0.9626  0.3034
19058TIP3    H278666   1.850   6.801   1.113 -0.0581 -0.4018  0.5709
19059TIP3   OH278667   6.669   2.752   3.147 -0.1637 -0.0671  0.3655
19059TIP3    H178668   6.657   2.675   3.203  0.7548  0.3193  1.1176
19059TIP3    H278669   6.762   2.772   3.154 -0.0662  0.1059 -1.1742
19060TIP3   OH278670   3.668   3.562  11.225 -0.2482 -0.2253 -0.2597
19060TIP3    H178671   3.626   3.636  11.182 -0.9249 -1.2407 -1.4286
19060TIP3    H278672   3.601   3.525  11.282 -0.4827 -0.9458 -0.9817
19061TIP3   OH278673   3.748   6.114  16.565  0.0495  0.1297 -0.0009
19061TIP3    H178674   3.802   6.107  16.643 -0.3214  0.6386  0.3066
19061TIP3    H278675   3.768   6.035  16.515  1.4302  0.5263 -0.1283
19062TIP3   OH278676   0.345   0.954  16.414  0.6158 -0.6914  0.2781
19062TIP3    H178677   0.277   0.955  16.482  1.4989 -2.2156  1.2506
19062TIP3    H278678   0.372   1.045  16.407 -2.0098  0.1164 -0.6883
19063TIP3   OH278679   2.338   0.943  12.571 -0.4112 -0.3943  0.2250
19063TIP3    H178680   2.305   0.893  12.646 -2.0497  0.1558 -0.0715
19063TIP3    H278681   2.259   0.982  12.532  0.4574 -0.2092 -1.4522
19064TIP3   OH278682   5.006   2.840  10.591 -0.2337 -0.1453  0.4846
19064TIP3    H178683   4.978   2.772  10.530  0.9433 -0.4045  0.2039
19064TIP3    H278684   5.057   2.793  10.658  0.8214  0.4699  0.1411
19065TIP3   OH278685   0.495   3.956  10.361 -0.1437  0.5761 -0.1485
19065TIP3    H178686   0.528   3.875  10.400 -3.2722 -0.3856  0.8472
19065TIP3    H278687   0.450   3.928  10.281 -1.4189  1.2500  0.2994
19066TIP3   OH278688   4.996   4.573  11.554  0.3067  0.0656  0.3848
19066TIP3    H178689   4.913   4.547  11.514 -1.3972  0.5160  3.3345
19066TIP3    H278690   5.046   4.492  11.561 -0.0698 -0.3033 -0.9449
19067TIP3   OH278691   0.109   2.090  13.783 -0.0352 -0.3610 -0.2436
19067TIP3    H178692   0.021   2.104  13.748 -0.5229  1.2875  1.4758
19067TIP3    H278693   0.146   2.020  13.728 -2.3678 -1.0546 -1.0520
19068TIP3   OH278694   5.947   0.247  12.082 -0.4150 -0.0534 -0.4541
19068TIP3    H178695   5.943   0.233  12.177  0.6707  0.3347 -0.3390
19068TIP3    H278696   5.974   0.162  12.046  0.4047  0.1266 -0.2898
19069TIP3   OH278697   4.817   5.605  13.968 -0.3140  0.0201  0.1852
19069TIP3    H178698   4.775   5.687  13.994  0.7804  0.6649  0.0010
19069TIP3    H278699   4.778   5.539  14.025 -1.1313  0.6909  0.4191
19070TIP3   OH278700   1.523   0.816   4.947  0.3395 -0.0095  0.3721
19070TIP3    H178701   1.475   0.849   5.022  0.0638  1.7470 -0.5274
19070TIP3    H278702   1.604   0.868   4.945 -0.0796  0.6399 -1.0613
19071TIP3   OH278703   1.590   6.295   0.965 -0.3322  0.3093 -0.2709
19071TIP3    H178704   1.524   6.247   0.915  0.5744 -0.1014 -1.1149
19071TIP3    H278705   1.539   6.351   1.024 -1.4734  0.9501 -1.7828
19072TIP3   OH278706   2.604   3.879   0.097  0.5139  0.3105  0.0535
19072TIP3    H178707   2.513   3.888   0.072  0.4839 -1.5969 -0.7206
19072TIP3    H278708   2.602   3.827   0.178  0.8103  3.1815  2.0727
19073TIP3   OH278709   0.043   6.098  12.662 -0.2440 -0.5333 -0.6623
19073TIP3    H178710   0.064   6.073  12.572 -1.7309 -1.7345 -0.7317
19073TIP3    H278711   0.079   6.027  12.715  0.9459  0.3505 -0.2438
19074TIP3   OH278712   0.634   0.682   3.835  0.0189  0.1164  0.1871
19074TIP3    H178713   0.634   0.654   3.744 -0.0856 -0.8599  0.4659
19074TIP3    H278714   0.562   0.746   3.841 -0.8873 -0.8363 -0.1327
19075TIP3   OH278715   0.479   1.464   4.431  0.0267 -0.6725  0.0672
19075TIP3    H178716   0.400   1.476   4.378  0.2736 -0.4042 -0.2489
19075TIP3    H278717   0.544   1.521   4.389  0.0668 -0.0058  1.0205
19076TIP3   OH278718   5.764   4.487   6.082 -0.0372  0.1623  0.2789
19076TIP3    H178719   5.734   4.507   5.994  0.6361  0.9259  0.2045
19076TIP3    H278720   5.859   4.495   6.077  0.1477 -1.3628  0.7004
19077TIP3   OH278721   5.651   2.511  13.314 -0.4204  0.3424 -0.2835
19077TIP3    H178722   5.742   2.529  13.291 -0.1289  0.2508  0.7781
19077TIP3    H278723   5.646   2.416  13.316 -0.6473  0.3405 -0.7147
19078TIP3   OH278724   3.128   3.289   0.768 -0.2203  0.0140 -0.1268
19078TIP3    H178725   3.046   3.249   0.796 -0.6412  0.4151 -0.7750
19078TIP3    H278726   3.109   3.328   0.683 -0.1640  2.5619  0.9420
19079TIP3   OH278727   3.424   1.692   4.081  0.0961  0.5051 -0.0624
19079TIP3    H178728   3.349   1.688   4.022 -1.0629 -0.9568  1.4328
19079TIP3    H278729   3.386   1.704   4.168  1.7379  2.0415  0.5137
19080TIP3   OH278730   2.534   1.437  11.766  0.4420  0.2155  0.1869
19080TIP3    H178731   2.555   1.497  11.695  1.4866 -2.0615 -1.5801
19080TIP3    H278732   2.441   1.416  11.754  1.1453 -2.0736 -2.2481
19081TIP3   OH278733   2.160   3.014   3.575 -0.3637 -0.3961  1.2620
19081TIP3    H178734   2.173   3.108   3.572  2.3959 -0.6768  1.4670
19081TIP3    H278735   2.135   2.990   3.485  3.8974  0.0930 -0.3042
19082TIP3   OH278736   0.572   6.683   2.951 -0.8535 -0.3879  0.3236
19082TIP3    H178737   0.539   6.651   3.035  0.4294 -2.1954  0.2132
19082TIP3    H278738   0.667   6.686   2.962 -0.5833 -1.5174 -1.2800
19083TIP3   OH278739   2.719   6.577  16.846 -0.4408 -0.2400  0.4590
19083TIP3    H178740   2.809   6.562  16.819 -0.6644  1.4545 -1.5378
19083TIP3    H278741   2.716   6.552  16.938  2.7166  1.9667  1.3261
19084TIP3   OH278742   4.048   0.176   0.874  0.0564 -0.4529  0.2085
19084TIP3    H178743   4.119   0.135   0.824  0.0521 -0.6111  0.3305
19084TIP3    H278744   3.976   0.182   0.811 -0.6359 -2.5287  0.7301
19085TIP3   OH278745   3.385   2.637  13.303  0.4105 -0.2123 -0.2181
19085TIP3    H178746   3.418   2.547  13.299  1.4291  0.2001 -1.4208
19085TIP3    H278747   3.453   2.690  13.262 -0.2246  1.1092  0.3864
19086TIP3   OH278748   2.373   0.917   6.600  0.2452 -0.1385  0.4347
19086TIP3    H178749   2.460   0.883   6.620  0.4870 -1.5987 -2.5120
19086TIP3    H278750   2.315   0.842   6.606 -0.6339  0.5693  1.1608
19087TIP3   OH278751   1.839   2.389  11.160  0.5230 -0.3995  0.0087
19087TIP3    H178752   1.773   2.455  11.139  0.7040 -0.0158  0.6303
19087TIP3    H278753   1.820   2.364  11.250  1.0830 -0.4547  0.1137
19088TIP3   OH278754   0.296   2.966   4.401 -0.4609  0.2529 -0.4202
19088TIP3    H178755   0.347   2.952   4.321 -0.8469 -0.1622 -0.5980
19088TIP3    H278756   0.360   2.998   4.464 -0.3748  1.7462 -1.2278
19089TIP3   OH278757   6.027   6.543   0.985  0.0334 -0.4987  0.5287
19089TIP3    H178758   6.088   6.547   0.912  1.1530 -0.2524  1.4459
19089TIP3    H278759   6.021   6.633   1.016 -2.0963 -0.2156 -0.5468
19090TIP3   OH278760   4.330   5.677   6.138 -0.1081 -0.7404  0.3469
19090TIP3    H178761   4.370   5.628   6.210 -0.1658  0.3951  1.1798
19090TIP3    H278762   4.404   5.710   6.087  0.0458  0.4950  1.3041
19091TIP3   OH278763   2.081   4.049   4.348  0.1491  0.1684 -0.4688
19091TIP3    H178764   2.148   3.982   4.357  0.5101  0.6893  1.1510
19091TIP3    H278765   2.008   4.016   4.401 -0.8598 -0.3342 -2.1070
19092TIP3   OH278766   6.812   2.267   4.693  0.1304  0.2557 -0.1961
19092TIP3    H178767   6.905   2.246   4.695  0.3157  0.7906 -1.7820
19092TIP3    H278768   6.795   2.308   4.778  0.9381 -1.3230  0.7755
19093TIP3   OH278769   6.056   0.908  14.504 -0.0468 -0.6345 -0.2265
19093TIP3    H178770   6.134   0.893  14.451 -0.9028 -0.4996 -1.5803
19093TIP3    H278771   6.060   1.000  14.529  0.1186 -0.5747 -0.4726
19094TIP3   OH278772   0.948   0.988  14.280  0.5165  0.3093  0.0345
19094TIP3    H178773   0.978   1.048  14.212 -0.1920 -0.3865 -0.9126
19094TIP3    H278774   0.861   0.960  14.251  0.7671 -1.0502  0.5230
19095TIP3   OH278775   1.540   1.183   3.739 -0.4600  0.2775 -0.2575
19095TIP3    H178776   1.530   1.175   3.644 -0.4851 -1.1626 -0.1624
19095TIP3    H278777   1.628   1.150   3.756 -0.9096 -0.6681  0.3243
19096TIP3   OH278778   2.117   2.593  10.948  0.5893  0.2004 -0.4001
19096TIP3    H178779   2.204   2.618  10.917  1.4038 -1.3323  0.5420
19096TIP3    H278780   2.105   2.503  10.918  0.9108 -0.9336  2.5121
19097TIP3   OH278781   1.049   4.206  10.670 -0.2612 -0.1999 -0.5023
19097TIP3    H178782   0.975   4.213  10.609 -0.0050  2.2491 -0.6143
19097TIP3    H278783   1.090   4.292  10.669  1.2155 -0.8016  1.3486
19098TIP3   OH278784   1.653   4.160   1.741 -0.5014 -0.4938 -0.1179
19098TIP3    H178785   1.629   4.087   1.798  1.6862 -0.1507  1.4065
19098TIP3    H278786   1.679   4.119   1.659 -0.1960 -1.3824  0.4012
19099TIP3   OH278787   4.215   4.368   4.297 -0.4901  0.1604 -0.6319
19099TIP3    H178788   4.238   4.460   4.307 -0.6978  0.1641 -0.1445
19099TIP3    H278789   4.224   4.331   4.385 -1.3961 -0.0475 -0.6109
19100TIP3   OH278790   4.229   5.125  14.899  0.0554  0.2309 -0.0693
19100TIP3    H178791   4.249   5.194  14.963  1.1122  0.8324 -1.0052
19100TIP3    H278792   4.134   5.118  14.900  0.0429  0.1131  1.6688
19101TIP3   OH278793   3.366   1.824  14.074 -0.4366  0.2262 -0.6108
19101TIP3    H178794   3.352   1.910  14.114  0.6919  0.3982 -0.5686
19101TIP3    H278795   3.350   1.762  14.145  1.4267  0.5224  0.1289
19102TIP3   OH278796   3.449   3.340  16.445  0.5410  0.1307 -0.1186
19102TIP3    H178797   3.486   3.356  16.532 -1.7130  0.5087  0.8195
19102TIP3    H278798   3.420   3.425  16.414  0.8054 -0.0900 -1.0183
19103TIP3   OH278799   1.557   1.062   5.286 -0.0932 -0.1115  0.2158
19103TIP3    H178800   1.607   1.081   5.207 -0.1903 -0.2414  0.1226
19103TIP3    H278801   1.616   1.083   5.358  0.5984 -1.5497  0.1150
19104TIP3   OH278802   0.996   1.951   4.529 -0.1891  0.4316 -0.5990
19104TIP3    H178803   1.088   1.940   4.554 -0.4821  0.7144  0.6489
19104TIP3    H278804   0.964   1.862   4.513  0.1181  0.2850 -0.3875
19105TIP3   OH278805   4.917   0.786  14.919 -0.3458 -0.4059  0.2278
19105TIP3    H178806   4.897   0.765  14.828 -2.4366  0.0837  0.5349
19105TIP3    H278807   4.841   0.755  14.968 -0.1929  1.1886  1.5552
19106TIP3   OH278808   1.206   2.172   1.309 -0.0817 -0.8549  0.2085
19106TIP3    H178809   1.264   2.102   1.339 -0.3091 -1.9452 -1.7711
19106TIP3    H278810   1.121   2.130   1.298 -1.0859  0.5140  2.1301
19107TIP3   OH278811   0.833   1.818  16.208  0.3904 -0.2149  0.6165
19107TIP3    H178812   0.786   1.901  16.212 -0.0176 -0.3473 -0.9461
19107TIP3    H278813   0.822   1.779  16.295 -0.7121  0.6562  0.8767
19108TIP3   OH278814   0.432   5.310   2.115 -0.3657  0.4896  0.3732
19108TIP3    H178815   0.425   5.216   2.100  3.2149  0.2935 -0.9804
19108TIP3    H278816   0.495   5.318   2.188  0.2429  1.8104 -0.2610
19109TIP3   OH278817   0.988   1.529   1.342  0.0787  0.4804  0.0107
19109TIP3    H178818   1.081   1.549   1.336  0.5568 -0.9326  1.8146
19109TIP3    H278819   0.973   1.509   1.434 -2.0522  0.7740 -0.2099
19110TIP3   OH278820   0.498   4.114  14.464 -0.2987 -0.1425  0.0537
19110TIP3    H178821   0.487   4.201  14.503  2.8979  1.0958 -1.4333
19110TIP3    H278822   0.557   4.069  14.525  0.9454  0.1025 -0.9358
19111TIP3   OH278823   5.239   0.101  14.426 -0.0408 -0.0235 -0.3508
19111TIP3    H178824   5.300   0.111  14.353 -0.0163  2.0408 -0.1120
19111TIP3    H278825   5.157   0.137  14.394 -0.0712  0.7702  0.5525
19112TIP3   OH278826   4.755   4.425   2.081  0.6252  0.3959 -0.4946
19112TIP3    H178827   4.771   4.338   2.045  2.8220  0.8745 -0.8090
19112TIP3    H278828   4.749   4.411   2.176 -2.5341 -0.5062 -0.7303
19113TIP3   OH278829   4.723   4.430   6.227  0.0712  0.4704 -0.4016
19113TIP3    H178830   4.715   4.525   6.220 -1.9808  0.2939 -1.3686
19113TIP3    H278831   4.800   4.416   6.283  1.5298  2.6416 -1.6969
19114TIP3   OH278832   3.005   2.887  13.633  0.4005  0.2389  0.3715
19114TIP3    H178833   3.100   2.880  13.641  0.4465  0.4095  0.0070
19114TIP3    H278834   2.985   2.978  13.654  0.6532  1.0269 -2.4090
19115TIP3   OH278835   1.129   3.480  16.088  0.1483  0.2317  0.3299
19115TIP3    H178836   1.069   3.464  16.160  0.0373 -0.2698  0.1330
19115TIP3    H278837   1.157   3.571  16.099 -0.1583  0.2732  0.7825
19116TIP3   OH278838   1.292   0.084  12.728 -0.1251  0.1199 -0.9727
19116TIP3    H178839   1.332   0.157  12.680  1.0631  0.6990  0.7938
19116TIP3    H278840   1.361   0.055  12.788 -0.8321 -2.0046 -1.1182
19117TIP3   OH278841   2.431   5.817   3.741  0.6350 -0.6625  0.0006
19117TIP3    H178842   2.447   5.725   3.761  0.9399 -0.2981  1.6411
19117TIP3    H278843   2.500   5.864   3.789  0.7797  0.4010 -1.1970
19118TIP3   OH278844   2.329   3.479  13.521  0.1339 -0.2513 -0.1232
19118TIP3    H178845   2.378   3.441  13.593 -1.3563 -1.3357  0.3715
19118TIP3    H278846   2.332   3.573  13.537  0.6304 -0.4117  0.8061
19119TIP3   OH278847   1.299   1.248   4.081 -0.0526  0.3889 -0.0852
19119TIP3    H178848   1.353   1.217   4.009 -0.1916  1.6834 -0.7795
19119TIP3    H278849   1.209   1.238   4.050 -0.1352  0.3611  0.1628
19120TIP3   OH278850   6.547   5.612   3.841  0.5346 -0.3594  0.4036
19120TIP3    H178851   6.626   5.635   3.891  1.3057 -2.4893  0.2833
19120TIP3    H278852   6.545   5.676   3.770  2.4275 -0.4581  0.1840
19121TIP3   OH278853   6.104   5.269   3.077 -0.1183  0.0087 -0.2685
19121TIP3    H178854   6.037   5.337   3.069 -1.2861 -1.0321  0.1994
19121TIP3    H278855   6.054   5.189   3.097  1.4074 -0.4110  2.2691
19122TIP3   OH278856   5.354   4.358  11.333  0.1783 -0.8603 -0.0876
19122TIP3    H178857   5.449   4.361  11.343  0.2994 -2.6639 -0.3980
19122TIP3    H278858   5.339   4.307  11.254 -1.0427  0.8204 -0.9952
19123TIP3   OH278859   1.566   3.029  15.524 -0.2483  0.0942 -0.7064
19123TIP3    H178860   1.553   3.018  15.430 -2.2659 -0.1782 -0.4432
19123TIP3    H278861   1.479   3.013  15.563  0.4877  0.3610  1.1861
19124TIP3   OH278862   1.405   4.949   3.132  0.2485 -0.3494 -0.1469
19124TIP3    H178863   1.475   4.926   3.194  1.1077 -0.0942 -1.0029
19124TIP3    H278864   1.433   4.911   3.049 -0.2065  0.5104 -0.7041
19125TIP3   OH278865   5.928   1.977   4.531  0.4795  0.3493 -0.4675
19125TIP3    H178866   5.935   2.012   4.620  1.8093 -1.3203  0.1419
19125TIP3    H278867   5.883   1.893   4.542  0.8530  0.0243 -1.3330
19126TIP3   OH278868   4.292   1.242  16.025  0.5599  0.1180 -0.1261
19126TIP3    H178869   4.363   1.184  16.053  0.2549  0.8944  2.5734
19126TIP3    H278870   4.229   1.184  15.982  1.2925 -1.1711  0.4714
19127TIP3   OH278871   0.713   1.977   0.669  0.3691  0.1574  0.2270
19127TIP3    H178872   0.767   1.898   0.669  0.9850  0.5549  1.2320
19127TIP3    H278873   0.758   2.037   0.609 -0.6011 -0.5594 -1.2590
19128TIP3   OH278874   3.212   5.954  13.654 -0.2098 -0.1418  0.4865
19128TIP3    H178875   3.272   5.960  13.580  0.9603  0.4854  1.4476
19128TIP3    H278876   3.253   5.892  13.714 -0.9904 -0.4101  0.7536
19129TIP3   OH278877   6.311   3.188  13.153 -1.0363  0.3637  0.6669
19129TIP3    H178878   6.356   3.219  13.074 -0.3292  0.4332  1.0897
19129TIP3    H278879   6.304   3.266  13.208  2.8033 -0.5376  2.7292
19130TIP3   OH278880   6.359   5.999  15.954  0.1421  0.6345  0.7312
19130TIP3    H178881   6.423   5.940  15.914  1.5132  0.7780  2.5634
19130TIP3    H278882   6.342   6.065  15.887 -0.5875 -1.1578 -0.9610
19131TIP3   OH278883   4.706   4.738   4.956  0.0519 -0.5205  0.4708
19131TIP3    H178884   4.653   4.815   4.933  2.1174  1.2044  1.1163
19131TIP3    H278885   4.768   4.770   5.022  1.4801 -2.5664  0.2325
19132TIP3   OH278886   1.782   0.617  16.082 -0.3141 -0.0301  0.1161
19132TIP3    H178887   1.863   0.593  16.037  0.3142  1.6291  0.2793
19132TIP3    H278888   1.716   0.619  16.013 -0.2767 -1.4865 -0.0049
19133TIP3   OH278889   1.718   6.408   5.859  0.6234  0.1664  0.3304
19133TIP3    H178890   1.661   6.457   5.918  0.3030  0.4439 -0.1978
19133TIP3    H278891   1.712   6.317   5.889 -0.3321  0.1419  0.0952
19134TIP3   OH278892   0.451   5.300   5.241  0.5471 -0.0518 -0.5218
19134TIP3    H178893   0.402   5.285   5.322 -0.1111 -0.6854 -1.0283
19134TIP3    H278894   0.389   5.279   5.171  0.8203  1.3193 -1.2158
19135TIP3   OH278895   6.039   4.970   6.333 -0.2332  0.2101 -0.5388
19135TIP3    H178896   6.079   4.891   6.370 -1.5195 -0.1163  0.2080
19135TIP3    H278897   6.015   5.023   6.409  2.9516  2.6493 -0.9988
19136TIP3   OH278898   1.561   5.978  13.979 -0.0982  0.0089 -0.3187
19136TIP3    H178899   1.600   5.919  13.914  2.4991  0.2390  0.8966
19136TIP3    H278900   1.571   5.931  14.062  2.0168  2.0836  0.6795
19137TIP3   OH278901   3.019   4.995   1.721  0.4393 -0.4165 -0.6380
19137TIP3    H178902   3.018   5.037   1.807  1.8325 -2.0962  0.2795
19137TIP3    H278903   3.057   5.060   1.662 -0.7464  0.8432 -0.0623
19138TIP3   OH278904   0.399   1.127   5.676 -0.1670 -0.1922 -0.4549
19138TIP3    H178905   0.339   1.125   5.602  0.2742 -1.7759 -0.8109
19138TIP3    H278906   0.342   1.124   5.753 -0.5863 -0.1713 -0.7607
19139TIP3   OH278907   0.285   5.148   4.380 -0.2184  1.0838  0.8180
19139TIP3    H178908   0.258   5.229   4.336  0.9272  1.4340  0.7488
19139TIP3    H278909   0.267   5.079   4.315  1.8249  1.6288 -0.4211
19140TIP3   OH278910   5.837   2.329  10.845  0.0868 -0.3296  0.0241
19140TIP3    H178911   5.774   2.368  10.784 -0.2925  0.4847  0.9075
19140TIP3    H278912   5.814   2.236  10.848  0.4837 -0.5010 -1.5001
19141TIP3   OH278913   4.783   4.959   2.416  0.2264 -0.1099  0.1332
19141TIP3    H178914   4.815   5.050   2.415  0.3648 -0.1283  1.4490
19141TIP3    H278915   4.775   4.936   2.323  1.3647  0.8326 -0.2284
19142TIP3   OH278916   0.780   1.713   5.410 -0.3255  0.4872 -0.1504
19142TIP3    H178917   0.781   1.769   5.488 -0.5434  0.3115 -0.0226
19142TIP3    H278918   0.822   1.767   5.342 -0.2888  0.7043  0.0416
19143TIP3   OH278919   1.896   2.328  15.931  0.0510 -0.3566  0.4145
19143TIP3    H178920   1.927   2.306  16.019 -1.2243  1.1238  1.2812
19143TIP3    H278921   1.883   2.243  15.889 -0.4074 -1.1359  2.0485
19144TIP3   OH278922   5.572   4.427  12.087 -0.2092  0.0538  0.0688
19144TIP3    H178923   5.516   4.493  12.047 -0.7468  0.1863  1.0228
19144TIP3    H278924   5.627   4.475  12.148 -1.7702 -0.5230  2.0609
19145TIP3   OH278925   2.600   3.801  11.051 -0.0805 -0.1413 -0.0169
19145TIP3    H178926   2.623   3.888  11.020  2.1025 -0.1081  1.4891
19145TIP3    H278927   2.610   3.744  10.974 -0.6545  0.7692 -0.7851
19146TIP3   OH278928   1.671   3.968  10.646 -0.5611  0.2510  0.2116
19146TIP3    H178929   1.648   4.030  10.577  0.9696 -0.0787 -0.6518
19146TIP3    H278930   1.636   3.884  10.615 -0.5265  0.2437  0.1917
19147TIP3   OH278931   6.521   4.915   2.275  0.9627 -0.0269  0.2102
19147TIP3    H178932   6.574   4.916   2.355  1.0746  0.2850  0.1327
19147TIP3    H278933   6.432   4.896   2.306  0.4452  2.8254  0.7679
19148TIP3   OH278934   4.613   6.480  16.454  0.1953 -0.0299 -0.0105
19148TIP3    H178935   4.671   6.524  16.516 -0.9137  2.6242 -0.7476
19148TIP3    H278936   4.631   6.522  16.370 -1.7846 -0.1094 -0.5198
19149TIP3   OH278937   2.366   6.641   4.587  0.7692  0.0884  0.7998
19149TIP3    H178938   2.275   6.664   4.569  0.6427 -1.3253 -0.6668
19149TIP3    H278939   2.386   6.684   4.669 -1.5571 -0.3842  1.6969
19150TIP3   OH278940   2.478   4.813   4.438  0.4858 -0.2903 -0.0193
19150TIP3    H178941   2.402   4.861   4.406  1.3504  0.9545 -0.2532
19150TIP3    H278942   2.441   4.746   4.495 -0.7124  1.3032  1.1622
19151TIP3   OH278943   1.964   1.208   2.671  0.0014 -0.5741 -0.2922
19151TIP3    H178944   1.878   1.226   2.708  0.3323 -0.4423  0.4320
19151TIP3    H278945   1.973   1.271   2.599 -0.8045 -1.0897 -0.8547
19152TIP3   OH278946   1.247   6.081  13.114  0.5912 -0.1862 -0.0491
19152TIP3    H178947   1.236   6.174  13.095 -2.0711 -0.5057 -0.4697
19152TIP3    H278948   1.252   6.077  13.210  1.0704  0.3929 -0.0385
19153TIP3   OH278949   5.487   0.132  13.761 -0.1321 -0.7232 -0.1092
19153TIP3    H178950   5.571   0.098  13.788  0.8936 -0.2241 -2.4041
19153TIP3    H278951   5.474   0.097  13.673 -1.2805  0.9417 -0.6558
19154TIP3   OH278952   0.079   0.823  17.141  0.0010 -0.5762  0.3531
19154TIP3    H178953  -0.004   0.813  17.187  0.5597  0.7288  1.7301
19154TIP3    H278954   0.061   0.885  17.071 -0.4012 -1.0553  0.0257
19155TIP3   OH278955   2.614   5.436  14.445  0.4466  0.9760 -0.0858
19155TIP3    H178956   2.526   5.403  14.430  0.0848  2.1834 -0.7519
19155TIP3    H278957   2.650   5.449  14.358  0.7178  1.9232  0.1568
19156TIP3   OH278958   0.137   6.106   0.368 -0.6899 -0.2531  0.5713
19156TIP3    H178959   0.127   6.091   0.274 -2.7169  0.3987  0.6480
19156TIP3    H278960   0.205   6.174   0.374  0.3642 -1.1777 -0.3148
19157TIP3   OH278961   0.802   1.045  15.210  0.4570 -0.0797 -0.5718
19157TIP3    H178962   0.897   1.042  15.211  0.5001 -1.3885 -2.5492
19157TIP3    H278963   0.777   0.987  15.138 -1.7732  1.7447 -1.3885
19158TIP3   OH278964   4.233   4.148  13.649  0.0742 -0.3296 -0.1488
19158TIP3    H178965   4.183   4.068  13.638  1.2035 -0.8404 -2.1101
19158TIP3    H278966   4.319   4.128  13.612  0.8812  1.3234  0.6987
19159TIP3   OH278967   6.090   5.886   2.340 -0.0745  0.5588 -0.2090
19159TIP3    H178968   6.147   5.955   2.304  1.9723 -0.4944  0.8196
19159TIP3    H278969   6.061   5.921   2.424 -1.4607  1.3209 -0.9710
19160TIP3   OH278970   4.280   3.179   3.899  0.2942  0.5023 -0.1769
19160TIP3    H178971   4.374   3.168   3.891  0.3827 -0.0066  1.4034
19160TIP3    H278972   4.251   3.107   3.954 -0.9116  1.1022  0.0171
19161TIP3   OH278973   6.217   1.033   5.208  0.2361 -0.4348  0.3745
19161TIP3    H178974   6.279   0.961   5.197  1.6504  0.7325  0.4165
19161TIP3    H278975   6.259   1.091   5.271 -0.5540  0.7622 -0.1750
19162TIP3   OH278976   2.250   5.778   4.080  0.0754  0.2601 -0.3743
19162TIP3    H178977   2.329   5.728   4.102 -0.6535  0.0823  2.0829
19162TIP3    H278978   2.194   5.716   4.034  0.6668 -0.0882 -0.6444
19163TIP3   OH278979   4.328   6.112  11.238 -0.5835 -0.3393  0.4020
19163TIP3    H178980   4.309   6.020  11.221 -1.5138  0.0236 -0.5989
19163TIP3    H278981   4.273   6.161  11.176  2.0239  0.8267 -1.1608
19164TIP3   OH278982   3.283   4.744  13.570  0.4646  0.4549 -0.1388
19164TIP3    H178983   3.247   4.712  13.487  0.0005 -1.3019  0.6929
19164TIP3    H278984   3.360   4.795  13.545  1.3758 -1.5165 -1.5789
19165TIP3   OH278985   2.581   5.546  14.692 -0.2296  0.4469  0.4066
19165TIP3    H178986   2.593   5.507  14.605 -0.0504  0.5237  0.3959
19165TIP3    H278987   2.494   5.586  14.688 -0.1450  0.6192  0.1933
19166TIP3   OH278988   6.706   4.245  14.610 -0.2174  0.0454  0.0960
19166TIP3    H178989   6.696   4.179  14.542 -2.6422  0.9028 -0.4774
19166TIP3    H278990   6.660   4.209  14.686 -0.1545  0.3737  0.2938
19167TIP3   OH278991   1.453   4.395   2.694  0.0416  0.8314  0.1252
19167TIP3    H178992   1.396   4.318   2.704  2.2583 -0.7390  1.3963
19167TIP3    H278993   1.416   4.459   2.755 -1.6211  0.6881 -0.6684
19168TIP3   OH278994   4.596   0.927  11.442  0.3775 -0.1081  0.2502
19168TIP3    H178995   4.626   0.967  11.523 -0.1725  0.4905  0.1593
19168TIP3    H278996   4.672   0.931  11.384  0.0314  1.7569 -0.1138
19169TIP3   OH278997   3.599   4.623   4.266 -0.2258  0.0334 -0.2525
19169TIP3    H178998   3.673   4.644   4.322 -0.2272  0.0786 -0.2679
19169TIP3    H278999   3.577   4.532   4.289 -0.7300  0.3095  0.3804
19170TIP3   OH279000   4.871   2.520  14.856 -0.2588  0.1553  0.0027
19170TIP3    H179001   4.906   2.583  14.793 -0.2754  1.0001  0.8275
19170TIP3    H279002   4.898   2.435  14.822  0.3172  0.6388 -0.7791
19171TIP3   OH279003   4.091   5.919  11.407  0.3729  0.0955 -0.9266
19171TIP3    H179004   4.005   5.939  11.443  1.0675  0.6975  0.4987
19171TIP3    H279005   4.077   5.843  11.350 -1.3766  1.2485 -2.1182
19172TIP3   OH279006   3.731   4.738  14.573 -0.6287 -0.5385 -0.0788
19172TIP3    H179007   3.728   4.823  14.528  0.6814 -1.2301 -1.5596
19172TIP3    H279008   3.714   4.674  14.505 -1.9487 -1.4815  1.1004
19173TIP3   OH279009   2.663   2.490   3.713 -0.7115  0.0276 -0.1839
19173TIP3    H179010   2.668   2.403   3.752 -0.2314  0.4035  0.6280
19173TIP3    H279011   2.752   2.508   3.683 -0.7892  0.2740 -0.2702
19174TIP3   OH279012   4.698   5.383  15.822  0.2949 -0.2787 -0.8852
19174TIP3    H179013   4.692   5.470  15.861  0.9483  0.0600 -1.5145
19174TIP3    H279014   4.625   5.334  15.861  1.2840 -0.1757  1.2515
19175TIP3   OH279015   6.750   6.336  14.956  0.6278  0.1202  0.0031
19175TIP3    H179016   6.782   6.246  14.947  1.4298  0.3192  0.7467
19175TIP3    H279017   6.822   6.390  14.925  0.7532  0.5543  1.0303
19176TIP3   OH279018   3.545   6.228  11.580  0.0975 -0.0246  0.2323
19176TIP3    H179019   3.591   6.197  11.501  0.1299 -0.6005  0.4767
19176TIP3    H279020   3.455   6.199  11.568  0.1989 -0.5232  0.6152
19177TIP3   OH279021   6.583   4.428   2.024 -0.0170  0.4516  0.0576
19177TIP3    H179022   6.557   4.412   2.115  2.1646  0.8789  0.8123
19177TIP3    H279023   6.634   4.351   2.000 -0.4404  0.4226 -0.7477
19178TIP3   OH279024   6.761   5.059   0.544 -0.2306  0.3254 -0.2993
19178TIP3    H179025   6.686   5.019   0.589  0.1269 -1.4128 -1.1935
19178TIP3    H279026   6.745   5.043   0.451  1.4859 -0.5129 -0.4731
19179TIP3   OH279027   4.697   0.229  15.601 -0.1176  0.2607  0.1744
19179TIP3    H179028   4.637   0.280  15.546  0.5766  0.3059 -0.5636
19179TIP3    H279029   4.643   0.196  15.672 -0.3915  2.9836  1.3448
19180TIP3   OH279030   4.741   1.521  11.304 -0.4495 -0.2502 -0.3545
19180TIP3    H179031   4.817   1.576  11.320  0.0169 -0.5053 -1.6339
19180TIP3    H279032   4.771   1.454  11.243 -2.0425  0.4938 -2.0603
19181TIP3   OH279033   5.926   1.619   1.595  0.3132  0.6470  0.4953
19181TIP3    H179034   5.830   1.613   1.602  0.0026  0.8508 -2.2964
19181TIP3    H279035   5.954   1.529   1.581  0.7191  0.4311  2.4234
19182TIP3   OH279036   3.063   1.512  11.638  0.0222  0.5975 -0.5550
19182TIP3    H179037   3.028   1.601  11.636 -0.0281  0.6339  0.8824
19182TIP3    H279038   3.144   1.517  11.587  0.0478  1.4759 -0.4493
19183TIP3   OH279039   0.300   1.397   4.642  0.9011  0.0032 -0.0803
19183TIP3    H179040   0.243   1.443   4.580  1.7821  3.2290  1.2802
19183TIP3    H279041   0.376   1.370   4.590 -0.5765 -1.9661 -1.3486
19184TIP3   OH279042   1.144   3.606   1.324 -0.0253 -0.4351 -0.5385
19184TIP3    H179043   1.214   3.541   1.318 -0.1127 -0.6289  0.4728
19184TIP3    H279044   1.065   3.560   1.297 -0.5209 -1.4674  2.4160
19185TIP3   OH279045   1.067   2.419  10.696 -0.1514 -0.2615 -0.8248
19185TIP3    H179046   1.062   2.333  10.736 -1.4280  0.3924  0.4989
19185TIP3    H279047   1.129   2.467  10.749 -3.0286  1.1255  1.5920
19186TIP3   OH279048   4.326   2.002   5.205 -0.1535  0.1227 -0.0424
19186TIP3    H179049   4.239   1.963   5.197 -0.2606  0.3324  0.1105
19186TIP3    H279050   4.369   1.979   5.123  0.1502 -1.2121  0.4773
19187TIP3   OH279051   2.277   0.315  12.220 -0.1151  0.0704  0.2278
19187TIP3    H179052   2.335   0.386  12.248  1.9256 -0.8837 -1.2975
19187TIP3    H279053   2.284   0.315  12.124 -1.7642 -0.8298  0.0798
19188TIP3   OH279054   0.307   1.720  15.537 -0.0766 -0.3043 -0.2978
19188TIP3    H179055   0.212   1.734  15.540  0.0707  1.3158 -2.0254
19188TIP3    H279056   0.344   1.807  15.524  1.7267 -0.8219  0.9608
19189TIP3   OH279057   0.335   2.338   5.297 -0.4058 -0.1856 -0.0233
19189TIP3    H179058   0.365   2.249   5.317  0.7281  0.5272  1.6710
19189TIP3    H279059   0.384   2.363   5.219 -2.0138 -1.6184 -1.5983
19190TIP3   OH279060   4.628   1.559   2.055 -0.3666  0.0762  0.0479
19190TIP3    H179061   4.592   1.497   2.119 -0.4950  1.1164  1.0099
19190TIP3    H279062   4.588   1.643   2.078  1.3159  0.9186  0.0462
19191TIP3   OH279063   0.692   6.109   3.152 -0.1536 -0.1114  0.3005
19191TIP3    H179064   0.720   6.200   3.160 -0.8914  0.1385  0.0780
19191TIP3    H279065   0.714   6.069   3.236  3.0034 -0.5408 -0.5721
19192TIP3   OH279066   4.394   4.602  13.410  0.1840 -0.0988 -0.2108
19192TIP3    H179067   4.411   4.508  13.420 -1.4102 -0.5036 -1.0169
19192TIP3    H279068   4.440   4.627  13.331 -1.0837 -0.7036 -1.1784
19193TIP3   OH279069   5.162   3.206   3.037  0.5287 -0.1371 -0.5744
19193TIP3    H179070   5.114   3.174   2.960 -1.1957  0.4856  0.1891
19193TIP3    H279071   5.136   3.298   3.044  1.5549  0.1088  0.1040
19194TIP3   OH279072   3.257   2.852  13.919 -0.5370  0.0019 -0.8510
19194TIP3    H179073   3.283   2.943  13.935  0.4191 -0.4188  0.1930
19194TIP3    H279074   3.241   2.817  14.007  0.4109 -1.1874 -1.1306
19195TIP3   OH279075   0.170   2.545   0.285 -0.0012  0.2993 -0.6689
19195TIP3    H179076   0.092   2.569   0.235  0.1578  0.1959 -0.9648
19195TIP3    H279077   0.135   2.497   0.361 -0.3443  1.6995  0.0968
19196TIP3   OH279078   2.625   1.646   5.923 -0.0641 -0.6674 -0.1036
19196TIP3    H179079   2.665   1.733   5.924 -0.5854 -0.4324  0.2713
19196TIP3    H279080   2.539   1.658   5.963  0.0309 -1.4387  0.3474
19197TIP3   OH279081   2.513   2.579   3.524 -0.0319 -0.0912  0.1176
19197TIP3    H179082   2.557   2.540   3.600  1.4552  2.2608  0.5601
19197TIP3    H279083   2.584   2.596   3.461 -1.1291 -1.2860 -1.5501
19198TIP3   OH279084   6.785   0.328   3.933 -0.0973  0.0869  0.0070
19198TIP3    H179085   6.790   0.259   3.999  0.7886 -0.4303 -0.5811
19198TIP3    H279086   6.749   0.404   3.980 -0.6985 -0.6390  0.7591
19199TIP3   OH279087   1.844   0.013   4.649  0.4439  0.1141  0.8173
19199TIP3    H179088   1.755   0.047   4.643  0.1721 -0.6124  0.6539
19199TIP3    H279089   1.890   0.053   4.576  0.1848  0.2917  0.7498
19200TIP3   OH279090   6.156   0.378   1.174 -0.0306 -0.2187  0.5817
19200TIP3    H179091   6.187   0.362   1.085  0.8285 -1.0460  1.0151
19200TIP3    H279092   6.190   0.465   1.196 -0.6739  0.2109 -0.0585
19201TIP3   OH279093   5.004   6.452  15.148 -0.5050  0.3133  0.4761
19201TIP3    H179094   4.941   6.436  15.217 -0.0863  0.2580  0.8492
19201TIP3    H279095   5.077   6.497  15.191 -0.1737  0.1397  0.1052
19202TIP3   OH279096   2.160   3.378   6.263  0.0031  0.3243  0.1763
19202TIP3    H179097   2.254   3.376   6.283 -0.2106  0.5240  1.2405
19202TIP3    H279098   2.131   3.464   6.292 -0.9708 -0.5858  2.0507
19203TIP3   OH279099   2.151   3.710  13.383  0.3481  0.3972  0.6182
19203TIP3    H179100   2.244   3.720  13.363  0.7732  0.9930  2.6256
19203TIP3    H279101   2.112   3.793  13.357  0.5701  0.5355  0.7222
19204TIP3   OH279102   1.517   6.754   4.714 -0.2554  0.3069 -0.4494
19204TIP3    H179103   1.543   6.773   4.804  0.8268  0.0372 -0.6818
19204TIP3    H279104   1.423   6.739   4.719 -0.3592  1.1568  0.4843
19205TIP3   OH279105   4.256   4.000   5.996 -0.4628  0.7637 -0.0789
19205TIP3    H179106   4.315   3.967   5.928 -0.3904  1.5429 -0.4081
19205TIP3    H279107   4.267   4.095   5.993 -0.3437  0.8063  1.1321
19206TIP3   OH279108   0.776   0.853   3.453  0.0887  0.2406  0.5878
19206TIP3    H179109   0.829   0.826   3.378  0.8913  1.0609  0.8398
19206TIP3    H279110   0.828   0.826   3.529  0.2056  1.1640  0.8394
19207TIP3   OH279111   3.212   4.626  12.511 -0.1655 -0.1583  0.8791
19207TIP3    H179112   3.186   4.573  12.436 -1.6545  1.0130  0.5177
19207TIP3    H279113   3.130   4.639  12.560  0.2169  1.5353  1.1133
19208TIP3   OH279114   6.095   4.412  12.996 -0.1309 -0.6752 -0.2608
19208TIP3    H179115   6.117   4.494  12.952 -0.5215 -1.0444 -1.1820
19208TIP3    H279116   6.000   4.407  12.993 -0.0547 -2.0140 -1.8915
19209TIP3   OH279117   5.055   6.423   1.119  0.1737  0.3055  0.0811
19209TIP3    H179118   5.095   6.377   1.045  0.5422  1.6643 -0.6183
19209TIP3    H279119   5.078   6.371   1.196  0.3390 -0.7916 -0.6927
19210TIP3   OH279120   2.516   2.832  14.575  0.3773 -0.1622 -0.5590
19210TIP3    H179121   2.507   2.737  14.568  2.8272 -0.5127 -0.1512
19210TIP3    H279122   2.532   2.847  14.669  1.0989  0.4930 -0.7756
19211TIP3   OH279123   2.387   0.712  11.238  0.4386 -0.5466  0.4920
19211TIP3    H179124   2.345   0.678  11.158  1.4752  1.3802 -0.9753
19211TIP3    H279125   2.481   0.710  11.218  0.7025  0.1898  1.5676
19212TIP3   OH279126   4.266   1.807  13.377 -0.4767 -0.3277 -0.0987
19212TIP3    H179127   4.210   1.869  13.330  1.0117  0.3875 -1.0106
19212TIP3    H279128   4.227   1.722  13.360  1.1380 -0.4493 -4.6919
19213TIP3   OH279129   5.673   3.910  12.874 -1.0229  0.3894 -0.2066
19213TIP3    H179130   5.688   3.892  12.781  2.1854  1.3439  0.0262
19213TIP3    H279131   5.720   3.840  12.920 -2.1142  0.2402  0.7227
19214TIP3   OH279132   6.065   4.440  12.459 -0.0416  0.4830 -0.0843
19214TIP3    H179133   6.073   4.364  12.518 -0.9744  0.4722  0.0490
19214TIP3    H279134   6.045   4.513  12.517  0.3147  0.7309 -0.2692
19215TIP3   OH279135   0.340   2.054  12.772 -0.2389  0.3769 -0.0733
19215TIP3    H179136   0.369   2.020  12.687  0.3485  0.2646  0.1620
19215TIP3    H279137   0.362   2.147  12.769  0.6606  0.1893  0.3045
19216TIP3   OH279138   6.242   3.952   2.130  0.0936  0.3031 -0.2276
19216TIP3    H179139   6.180   3.950   2.058 -0.6105 -0.4799  0.3720
19216TIP3    H279140   6.301   3.878   2.114  2.1827  2.1520 -1.8453
19217TIP3   OH279141   6.820   6.066  12.068  0.2123 -0.1969 -0.9336
19217TIP3    H179142   6.767   5.988  12.051  1.8005 -1.3456 -0.8214
19217TIP3    H279143   6.848   6.096  11.981  1.6334 -1.2455 -0.8619
19218TIP3   OH279144   1.716   1.518  12.662 -0.1295  0.1411  0.1794
19218TIP3    H179145   1.632   1.504  12.618  0.1056 -0.1047 -0.1974
19218TIP3    H279146   1.772   1.555  12.594  0.0809  0.2572  0.4173
19219TIP3   OH279147   2.662   5.615   5.362  0.0661 -0.3097 -0.5028
19219TIP3    H179148   2.688   5.576   5.279 -1.0417  0.4280 -1.2202
19219TIP3    H279149   2.712   5.696   5.368  1.6596 -1.3143  0.5417
19220TIP3   OH279150   5.071   3.913   3.441 -0.1581  0.4043 -0.3369
19220TIP3    H179151   5.054   3.990   3.496  1.4056  0.6434 -0.1132
19220TIP3    H279152   5.056   3.943   3.352 -2.0626  0.2094 -0.1197
19221TIP3   OH279153   1.362   0.072  14.112  0.2899 -0.5431 -0.4166
19221TIP3    H179154   1.414   0.005  14.068  0.2402 -0.7455 -0.1723
19221TIP3    H279155   1.424   0.142  14.131  0.1942 -0.2011 -1.3189
19222TIP3   OH279156   1.172   1.950  16.833 -0.5586 -0.3345 -0.2011
19222TIP3    H179157   1.190   2.040  16.860  1.8625 -0.3853 -1.3600
19222TIP3    H279158   1.239   1.931  16.768 -1.4826 -2.7477 -0.5469
19223TIP3   OH279159   4.052   2.643   2.727 -0.9041 -0.3742 -0.1553
19223TIP3    H179160   4.030   2.593   2.805  0.2832 -1.3822 -0.4285
19223TIP3    H279161   4.021   2.732   2.745  0.6029 -0.2309  2.0794
19224TIP3   OH279162   5.268   5.801   4.904  0.3716 -0.1701 -0.3355
19224TIP3    H179163   5.352   5.844   4.920 -1.1390  2.4532  1.2204
19224TIP3    H279164   5.227   5.854   4.835  0.0072 -1.5348 -1.2082
19225TIP3   OH279165   4.555   3.330   2.457  0.2859 -0.4160 -0.3206
19225TIP3    H179166   4.621   3.298   2.519  1.2316 -0.6404 -1.3931
19225TIP3    H279167   4.558   3.266   2.385 -0.6764 -0.0881 -0.6565
19226TIP3   OH279168   1.747   1.294   5.037 -0.0525  0.6292 -0.6518
19226TIP3    H179169   1.758   1.319   4.946 -0.4977  1.2541 -0.5399
19226TIP3    H279170   1.653   1.302   5.053 -0.3311 -1.6921 -0.7669
19227TIP3   OH279171   0.602   6.268   6.305 -0.0070  0.3103 -0.3956
19227TIP3    H179172   0.665   6.334   6.333 -1.6715  1.0157  2.0164
19227TIP3    H279173   0.599   6.205   6.376 -1.6856  0.0778 -0.6252
19228TIP3   OH279174   5.643   1.904  12.742 -0.1076 -0.3760 -0.0254
19228TIP3    H179175   5.715   1.860  12.698 -0.7484 -1.6919  0.1716
19228TIP3    H279176   5.683   1.980  12.784  0.5724  0.7552 -2.5468
19229TIP3   OH279177   2.012   5.648  11.453  0.0336 -0.2179  0.0146
19229TIP3    H179178   1.964   5.636  11.371  0.3877 -1.0563 -0.0901
19229TIP3    H279179   2.097   5.684  11.426 -0.0510  0.0192  0.0660
19230TIP3   OH279180   5.141   3.675  13.581 -0.1468 -0.1812  0.4584
19230TIP3    H179181   5.223   3.724  13.588 -0.2107 -0.0069 -0.0294
19230TIP3    H279182   5.169   3.584  13.575 -0.0035 -0.1534  0.6846
19231TIP3   OH279183   0.404   0.211   4.417 -0.4304  0.4631  0.0258
19231TIP3    H179184   0.376   0.282   4.475  1.1864  0.9615  0.2606
19231TIP3    H279185   0.498   0.228   4.403  0.2533 -2.1785  0.9204
19232TIP3   OH279186   6.146   5.440   6.397  0.3172 -0.1555 -0.3695
19232TIP3    H179187   6.108   5.528   6.407  0.3529 -0.2101  0.3189
19232TIP3    H279188   6.211   5.435   6.468 -0.3422 -1.0804  0.1871
19233TIP3   OH279189   5.268   0.967   3.544  0.1227 -0.1339 -0.1384
19233TIP3    H179190   5.328   0.924   3.604 -0.7693 -0.9920  0.1524
19233TIP3    H279191   5.213   1.021   3.601 -1.5297 -1.8816  0.0092
19234TIP3   OH279192   6.361   5.947   2.537  0.6776 -0.1887 -0.5275
19234TIP3    H179193   6.317   5.967   2.455 -0.3638  0.0318  0.0739
19234TIP3    H279194   6.312   5.873   2.574  1.7173 -0.9238 -0.5449
19235TIP3   OH279195   3.826   1.713   6.337  0.3653 -0.0329  0.1754
19235TIP3    H179196   3.773   1.779   6.292  0.6773 -0.3906 -0.7309
19235TIP3    H279197   3.890   1.764   6.388 -0.0763  0.3752  0.3265
19236TIP3   OH279198   1.334   5.591  15.312 -0.2093  0.0131 -0.2015
19236TIP3    H179199   1.331   5.497  15.332  0.3428  0.1285  0.4980
19236TIP3    H279200   1.359   5.595  15.220 -2.4531 -0.5536 -0.8924
19237TIP3   OH279201   6.414   1.382  13.862  0.2629  0.1723  0.5011
19237TIP3    H179202   6.457   1.442  13.801  2.1545 -0.6540  0.9550
19237TIP3    H279203   6.403   1.301  13.811  1.5614 -0.4196  1.1259
19238TIP3   OH279204   6.046   2.806  14.000  0.3364  0.1244  0.4028
19238TIP3    H179205   6.041   2.712  13.980  0.3199  0.7395 -3.0704
19238TIP3    H279206   6.116   2.839  13.943 -0.3008  2.3765  0.8223
19239TIP3   OH279207   1.286   1.048  14.694  0.0314 -0.0321  0.0519
19239TIP3    H179208   1.306   1.083  14.607  0.4513 -0.8487 -0.1949
19239TIP3    H279209   1.209   0.993  14.680 -2.6120  3.1467  1.0048
19240TIP3   OH279210   6.787   0.239   0.262 -0.1307  0.4133 -0.2996
19240TIP3    H179211   6.823   0.327   0.273  0.8046  0.2678 -1.8824
19240TIP3    H279212   6.864   0.182   0.259 -0.7137 -0.4339  0.3886
19241TIP3   OH279213   4.549   4.000   2.724  0.0156  0.2906 -0.0925
19241TIP3    H179214   4.544   4.054   2.803 -0.6624  1.8527 -1.1504
19241TIP3    H279215   4.573   4.062   2.655 -1.1786 -0.6932 -1.4239
19242TIP3   OH279216   5.931   3.810   1.659 -0.3529 -0.0785 -0.5526
19242TIP3    H179217   5.854   3.799   1.603  0.8357  0.6535 -2.3902
19242TIP3    H279218   5.998   3.846   1.602  0.6076  1.7990  1.6072
19243TIP3   OH279219   3.448   5.979   5.863  0.5977  0.2634 -0.2887
19243TIP3    H179220   3.412   5.993   5.950  2.9785  0.7158  0.6891
19243TIP3    H279221   3.402   5.900   5.831 -2.3570  1.6772  0.1189
19244TIP3   OH279222   1.597   6.714   0.765  0.0211 -0.0587 -0.4825
19244TIP3    H179223   1.604   6.625   0.801  2.2335  1.4473  3.4406
19244TIP3    H279224   1.511   6.744   0.793  0.8616  0.3225  1.8766
19245TIP3   OH279225   3.134   5.833  14.393  0.5713  0.3158 -0.2537
19245TIP3    H179226   3.141   5.758  14.452  0.4927  1.0350  0.6958
19245TIP3    H279227   3.121   5.908  14.452 -0.1917  0.9574 -1.2212
19246TIP3   OH279228   2.439   6.191   1.384 -0.2559  0.5107  0.4485
19246TIP3    H179229   2.423   6.166   1.475  0.1891  0.2009  0.4486
19246TIP3    H279230   2.513   6.136   1.358  1.3572  2.4361  0.7266
19247TIP3   OH279231   3.708   4.602  14.336  0.3936 -0.0982 -0.3789
19247TIP3    H179232   3.673   4.599  14.247  0.5402 -2.0142 -0.4157
19247TIP3    H279233   3.756   4.520  14.345  1.1700  0.4913  1.1661
19248TIP3   OH279234   4.211   1.538  11.461 -0.2600 -0.6589  0.3433
19248TIP3    H179235   4.241   1.519  11.550  0.7913  0.6246  0.3075
19248TIP3    H279236   4.237   1.629  11.447  0.3300 -1.0820 -1.5636
19249TIP3   OH279237   5.251   2.148   5.261  0.9507  0.0446  0.8465
19249TIP3    H179238   5.310   2.163   5.336  1.6440 -2.2415  0.8604
19249TIP3    H279239   5.283   2.066   5.223 -1.5591 -0.6868  0.1618
19250TIP3   OH279240   4.504   5.222   3.724  1.0939 -0.1173 -0.1056
19250TIP3    H179241   4.541   5.309   3.707 -0.8829  0.8355  0.1449
19250TIP3    H279242   4.436   5.212   3.657 -1.3576  0.2411  2.1856
19251TIP3   OH279243   1.731   2.501  15.265  0.2179  0.2499 -0.3897
19251TIP3    H179244   1.754   2.421  15.312  0.5123  0.9088  0.6035
19251TIP3    H279245   1.691   2.469  15.184 -1.5996 -0.9393  0.8798
19252TIP3   OH279246   3.146   5.874  16.966 -0.2176  0.2353 -0.9742
19252TIP3    H179247   3.083   5.835  16.905 -2.1909  1.7405 -0.0287
19252TIP3    H279248   3.163   5.961  16.930  1.5123 -0.2042 -1.2927
19253TIP3   OH279249   2.296   2.616   1.366  0.5428 -0.2312  0.3644
19253TIP3    H179250   2.226   2.551   1.362 -1.0916  1.4446  0.1616
19253TIP3    H279251   2.290   2.652   1.454  1.0610  0.0047  0.3062
19254TIP3   OH279252   4.574   0.616  17.118 -0.4748 -0.4425 -0.1277
19254TIP3    H179253   4.566   0.545  17.054 -0.9747 -1.8992  1.4412
19254TIP3    H279254   4.561   0.696  17.068 -1.1680 -1.5312 -1.7770
19255TIP3   OH279255   2.423   2.280  12.161  0.0396  0.2938 -0.4226
19255TIP3    H179256   2.477   2.202  12.177  0.7521  0.9757  0.6988
19255TIP3    H279257   2.475   2.332  12.100 -0.4172 -0.0723 -1.1384
19256TIP3   OH279258   5.431   3.957  15.928 -0.2333  0.3334 -0.7261
19256TIP3    H179259   5.484   3.997  15.859 -0.0987  0.5230 -0.5177
19256TIP3    H279260   5.476   3.875  15.948 -0.1171  0.4087 -0.6758
19257TIP3   OH279261   5.895   6.359   1.181 -0.5045 -0.2080 -0.1221
19257TIP3    H179262   5.952   6.343   1.256  0.6492  2.4412 -0.3056
19257TIP3    H279263   5.948   6.415   1.123 -3.3715  2.7814 -0.1015
19258TIP3   OH279264   5.798   1.732   3.884 -0.4629  0.5074 -0.1341
19258TIP3    H179265   5.786   1.672   3.810  1.2649 -1.4853  1.0720
19258TIP3    H279266   5.762   1.815   3.854  0.1437 -0.2166 -3.2189
19259TIP3   OH279267   3.616   6.394   0.384 -0.5509 -0.2991  0.0011
19259TIP3    H179268   3.641   6.336   0.312  0.3008 -1.0459  0.8522
19259TIP3    H279269   3.572   6.337   0.447  0.5414 -0.1279  0.9777
19260TIP3   OH279270   0.028   3.435   1.199 -0.3104 -0.9060  0.2742
19260TIP3    H179271   0.075   3.474   1.126 -2.7583  2.1296  0.0891
19260TIP3    H279272   0.096   3.410   1.262  1.6599  2.6201 -0.2052
19261TIP3   OH279273   2.767   5.804  10.698  0.0709 -0.0369  0.1661
19261TIP3    H179274   2.849   5.853  10.687 -0.4465  1.4160  2.2777
19261TIP3    H279275   2.778   5.726  10.643  0.8680  2.4532 -3.5693
19262TIP3   OH279276   5.959   6.376   3.579  0.4381 -0.2644 -0.0641
19262TIP3    H179277   6.003   6.459   3.559  0.1961 -0.3319 -0.8777
19262TIP3    H279278   5.889   6.369   3.514 -0.0950 -0.6909  0.5353
19263TIP3   OH279279   0.185   6.602  15.130 -0.4659  0.1602  0.1464
19263TIP3    H179280   0.101   6.587  15.173 -0.9811  1.6399 -0.3000
19263TIP3    H279281   0.240   6.640  15.198 -0.9096  1.3796 -0.1480
19264TIP3   OH279282   2.825   2.647  14.889 -0.0590 -0.5091  0.3541
19264TIP3    H179283   2.816   2.645  14.794  0.2874 -1.3149  0.3352
19264TIP3    H279284   2.856   2.736  14.908  0.8954 -0.6789 -0.3759
19265TIP3   OH279285   3.161   5.507   0.705  0.1277  0.0192 -0.3646
19265TIP3    H179286   3.126   5.542   0.622  0.2421  0.6096 -0.1694
19265TIP3    H279287   3.197   5.584   0.749  0.1715 -0.3179  0.1829
19266TIP3   OH279288   5.632   1.662   4.908 -0.3576 -0.0836 -0.5448
19266TIP3    H179289   5.632   1.630   4.818  4.2282 -1.7585 -0.2010
19266TIP3    H279290   5.680   1.745   4.904  2.1543 -1.3998  0.5410
19267TIP3   OH279291   3.947   3.682  15.250 -0.3815  0.4425 -0.0961
19267TIP3    H179292   3.974   3.769  15.219 -0.1746  0.3224 -0.2541
19267TIP3    H279293   3.980   3.677  15.339 -0.2264  0.4540 -0.1519
19268TIP3   OH279294   4.401   5.099   0.376  0.0627 -0.2217 -0.2449
19268TIP3    H179295   4.325   5.066   0.328  1.1262  0.0928 -2.2418
19268TIP3    H279296   4.476   5.077   0.321  1.3237  0.6177  1.0538
19269TIP3   OH279297   2.901   4.156   2.936 -0.2160  0.2542  0.2512
19269TIP3    H179298   2.870   4.120   3.019 -1.6351  0.6618 -0.0823
19269TIP3    H279299   2.861   4.100   2.869  0.8488 -0.0200 -0.1822
19270TIP3   OH279300   4.457   6.256  13.140 -0.2309 -0.4030  0.2993
19270TIP3    H179301   4.511   6.206  13.201 -0.8141 -1.5437 -0.0958
19270TIP3    H279302   4.441   6.196  13.067  0.5177  0.9580 -1.0390
19271TIP3   OH279303   4.480   0.024  13.901  0.1552 -0.2027 -0.0109
19271TIP3    H179304   4.547   0.078  13.943 -1.4059  1.3768  0.5338
19271TIP3    H279305   4.480   0.053  13.810 -0.9012  0.9793  0.3508
19272TIP3   OH279306   6.156   4.172   0.783 -0.2041 -0.3327  0.5217
19272TIP3    H179307   6.082   4.207   0.833  0.2453 -0.6734  1.4518
19272TIP3    H279308   6.225   4.237   0.793 -0.0146 -0.5437  0.5945
19273TIP3   OH279309   2.445   5.259  12.542  0.0191 -0.5779 -0.0350
19273TIP3    H179310   2.525   5.281  12.495  0.4917  0.3377  1.1391
19273TIP3    H279311   2.393   5.339  12.542 -1.1090 -1.2867 -1.1504
19274TIP3   OH279312   6.100   1.215  17.014  0.4102 -0.4341  0.2624
19274TIP3    H179313   6.094   1.136  16.960 -1.0085 -0.9450  1.1051
19274TIP3    H279314   6.021   1.213  17.069 -0.2895  2.1418 -0.4644
19275TIP3   OH279315   4.888   2.403  14.549 -0.1649 -0.1534  0.2760
19275TIP3    H179316   4.891   2.329  14.608 -0.2798 -0.8343 -0.5527
19275TIP3    H279317   4.942   2.377  14.474  0.4972  0.9383  0.3518
19276TIP3   OH279318   5.748   5.041   5.775 -0.3089  0.2361 -0.2453
19276TIP3    H179319   5.678   5.069   5.835 -0.3732  0.0179 -0.2180
19276TIP3    H279320   5.802   4.982   5.828  0.3264  0.9841 -0.0363
19277TIP3   OH279321   5.842   5.081   1.779  0.2849 -0.4408 -0.5815
19277TIP3    H179322   5.816   4.998   1.739 -0.8186 -0.4289  0.0844
19277TIP3    H279323   5.763   5.135   1.775  1.0198  0.6236 -1.0992
19278TIP3   OH279324   1.942   5.511  17.045 -0.5839  0.4134 -0.3488
19278TIP3    H179325   1.921   5.426  17.006 -0.7029  1.2012 -2.0895
19278TIP3    H279326   1.918   5.501  17.137 -1.8157 -1.0252 -0.7722
19279TIP3   OH279327   5.779   6.836   3.749 -0.5121  0.1359 -0.3072
19279TIP3    H179328   5.711   6.827   3.816 -0.9242  0.9518 -0.6034
19279TIP3    H279329   5.799   6.746   3.723  1.8181 -0.4397  2.9845
19280TIP3   OH279330   0.994   0.971  12.570  0.4935 -0.1427  0.4343
19280TIP3    H179331   1.043   0.894  12.539 -0.1787 -0.0191 -1.0189
19280TIP3    H279332   1.008   1.037  12.502  0.9576  1.0025  1.6107
19281TIP3   OH279333   3.663   0.752  12.262 -0.2753  0.0795  0.2261
19281TIP3    H179334   3.711   0.802  12.329  1.5655  0.4071 -1.2391
19281TIP3    H279335   3.609   0.817  12.218  1.0828  0.5969 -0.7703
19282TIP3   OH279336   2.326   4.054  13.053 -0.2713  0.2416  0.5999
19282TIP3    H179337   2.358   4.142  13.074 -0.7908  0.1137  1.9919
19282TIP3    H279338   2.406   4.003  13.039  0.1496  0.2580  2.6824
19283TIP3   OH279339   6.103   4.100  12.976  0.2368  0.2510 -0.1190
19283TIP3    H179340   6.045   4.169  13.009  1.0679 -0.0016  1.9992
19283TIP3    H279341   6.110   4.038  13.048  3.2338  0.3449 -0.2179
19284TIP3   OH279342   2.833   2.769  13.448 -0.0462 -0.1627 -0.2747
19284TIP3    H179343   2.904   2.767  13.512  0.9643 -0.4916 -1.3716
19284TIP3    H279344   2.858   2.703  13.383 -2.1879 -1.4892  0.1490
19285TIP3   OH279345   0.941   5.482  14.197  0.1640 -0.8602 -0.3671
19285TIP3    H179346   0.882   5.416  14.162 -0.2304  0.5505 -2.5685
19285TIP3    H279347   0.883   5.544  14.242  0.0691 -0.1790 -1.3848
19286TIP3   OH279348   4.212   4.231   1.755 -0.0783  0.0826  0.0173
19286TIP3    H179349   4.164   4.287   1.817 -0.7784 -0.1527 -0.3056
19286TIP3    H279350   4.153   4.158   1.738  0.6222 -0.4997  0.0312
19287TIP3   OH279351   3.634   0.000  12.553  0.2362 -1.3195  0.4932
19287TIP3    H179352   3.567  -0.028  12.491  1.1224  0.5230 -1.4219
19287TIP3    H279353   3.586   0.046  12.621 -0.4771  2.9732 -2.4996
19288TIP3   OH279354   0.129   4.472  14.828  0.3732  0.3438 -0.4703
19288TIP3    H179355   0.083   4.389  14.815  1.2814 -0.3084  0.3468
19288TIP3    H279356   0.118   4.520  14.746 -0.1116 -0.6089 -0.9646
19289TIP3   OH279357   4.373   4.623  16.026 -0.0797 -0.0111 -0.1520
19289TIP3    H179358   4.438   4.632  15.956  0.4223 -0.6471  0.2201
19289TIP3    H279359   4.414   4.563  16.088 -0.4583  0.6757  0.7689
19290TIP3   OH279360   0.752   2.502   0.372 -0.5452 -0.0747  0.2704
19290TIP3    H179361   0.744   2.572   0.307  1.3886 -0.7734 -0.8192
19290TIP3    H279362   0.722   2.541   0.454 -1.4414  1.3723 -0.7082
19291TIP3   OH279363   6.394   6.569   5.721 -0.3351 -0.4710  0.3040
19291TIP3    H179364   6.489   6.578   5.722 -0.3725  0.0769 -0.6580
19291TIP3    H279365   6.378   6.485   5.764  0.6757 -1.2770 -0.8376
19292TIP3   OH279366   2.626   0.819   3.955 -0.5568 -0.2458 -0.0865
19292TIP3    H179367   2.615   0.755   4.025 -2.4502 -1.6225 -1.5459
19292TIP3    H279368   2.570   0.893   3.981 -0.0022 -0.0549  0.5919
19293TIP3   OH279369   4.417   6.399  15.089  0.2126  0.1435  0.2277
19293TIP3    H179370   4.336   6.398  15.037 -0.1436  2.0084  0.6569
19293TIP3    H279371   4.390   6.430  15.175  1.0140 -1.6640  1.1953
19294TIP3   OH279372   3.531   2.986  12.464 -0.0991  0.2739  0.0592
19294TIP3    H179373   3.546   2.977  12.558  0.5164  2.2070  0.1865
19294TIP3    H279374   3.435   2.994  12.456 -0.3728 -2.0740  0.2508
19295TIP3   OH279375   3.984   5.576  14.491  0.8714  0.3835  0.1612
19295TIP3    H179376   4.063   5.563  14.438  1.1517 -0.6700  0.8090
19295TIP3    H279377   3.975   5.671  14.498  0.7780  0.5710 -1.8358
19296TIP3   OH279378   6.799   0.193  13.029  0.0956 -0.1771 -0.0817
19296TIP3    H179379   6.782   0.105  12.997 -0.7396 -0.3739  0.8523
19296TIP3    H279380   6.814   0.245  12.950 -2.8992 -0.4286 -0.9169
19297TIP3   OH279381   2.833   5.767   2.539 -0.1140 -0.1626  0.4745
19297TIP3    H179382   2.781   5.696   2.577 -0.6983  0.5571  1.0488
19297TIP3    H279383   2.781   5.845   2.555  0.5919  0.4174 -0.0292
19298TIP3   OH279384   0.092   3.207  14.966 -0.6945 -0.6713 -0.5677
19298TIP3    H179385   0.107   3.298  14.992  1.1709 -1.1633  0.3013
19298TIP3    H279386   0.031   3.212  14.893 -0.1504  1.3158 -0.9444
19299TIP3   OH279387   4.860   3.082  15.675 -0.1573 -0.1285  0.2594
19299TIP3    H179388   4.866   3.105  15.768 -0.5087 -1.5664  0.6639
19299TIP3    H279389   4.768   3.061  15.661  0.1352 -1.2754 -0.0526
19300TIP3   OH279390   2.973   6.007  10.657 -0.6707 -0.4091  1.0771
19300TIP3    H179391   2.970   6.075  10.589 -1.4006 -0.3028  1.2030
19300TIP3    H279392   2.980   6.057  10.739 -0.9740 -0.4961  1.1551
19301TIP3   OH279393   5.177   0.237   5.081  0.2685  0.0233 -0.1851
19301TIP3    H179394   5.232   0.314   5.064 -0.8150  0.7699 -0.4632
19301TIP3    H279395   5.200   0.211   5.171  2.4413 -0.8899 -0.9493
19302TIP3   OH279396   6.438   5.376   0.635 -0.1145  0.0071  0.1550
19302TIP3    H179397   6.422   5.334   0.550  0.1712  0.8684 -0.3360
19302TIP3    H279398   6.516   5.429   0.621  0.0706 -0.0138  1.0318
19303TIP3   OH279399   1.129   4.983   3.133  0.7340  0.2342  0.5357
19303TIP3    H179400   1.218   4.956   3.155  0.4087 -0.8766  0.5428
19303TIP3    H279401   1.094   4.911   3.080 -0.9005 -0.4409  2.3776
19304TIP3   OH279402   0.592   3.011  11.859 -0.4467 -0.2011 -0.0819
19304TIP3    H179403   0.683   2.990  11.837 -0.3197  1.5839 -1.4941
19304TIP3    H279404   0.595   3.039  11.950  0.4169 -0.1910 -0.1060
19305TIP3   OH279405   6.412   1.810  13.465 -0.1691  0.5189 -0.0408
19305TIP3    H179406   6.364   1.728  13.468 -1.1378  1.0694  2.2901
19305TIP3    H279407   6.352   1.872  13.423  0.1933  0.2540 -0.9557
19306TIP3   OH279408   3.728   1.624   1.798  0.1985  0.0310  0.3305
19306TIP3    H179409   3.816   1.661   1.796 -0.1443  0.9890  1.7364
19306TIP3    H279410   3.684   1.663   1.722  0.7022  0.2594  0.1526
19307TIP3   OH279411   5.861   4.314  15.890  0.5437  0.1596  0.2256
19307TIP3    H179412   5.894   4.367  15.818 -1.1076  0.6890 -0.1831
19307TIP3    H279413   5.869   4.371  15.967 -1.0693  0.9866 -0.1852
19308TIP3   OH279414   1.015   2.474   4.933 -0.6785 -0.3301  0.4501
19308TIP3    H179415   1.014   2.385   4.898  2.2960  0.0611 -0.9401
19308TIP3    H279416   0.980   2.527   4.862 -0.4835 -0.1910  0.4568
19309TIP3   OH279417   2.701   4.984   1.249  0.1415 -0.2767  0.0816
19309TIP3    H179418   2.726   5.045   1.180 -0.4734 -0.2399 -0.1118
19309TIP3    H279419   2.779   4.931   1.263  0.9353  1.0159  0.7589
19310TIP3   OH279420   5.129   2.038  16.745  0.1009 -0.7096 -0.6832
19310TIP3    H179421   5.110   2.005  16.833  2.1041 -0.1844  0.0089
19310TIP3    H279422   5.222   2.019  16.732  0.0602  0.0262 -2.3418
19311TIP3   OH279423   6.220   5.493   6.133  0.5090  0.2561  0.1651
19311TIP3    H179424   6.195   5.419   6.188  1.7435 -1.5262 -1.5465
19311TIP3    H279425   6.138   5.522   6.094  0.3030 -2.3767 -1.6408
19312TIP3   OH279426   4.935   0.859   2.904 -0.3331  0.4141 -0.5073
19312TIP3    H179427   5.025   0.887   2.920 -0.5020  1.3753 -1.1389
19312TIP3    H279428   4.897   0.929   2.851 -0.9050 -0.8326 -1.8127
19313TIP3   OH279429   1.587   0.192   3.806 -0.0784  0.5079 -0.0960
19313TIP3    H179430   1.514   0.252   3.822  0.0800  0.4209  1.0073
19313TIP3    H279431   1.567   0.153   3.720 -1.7855 -0.1382  0.5508
19314TIP3   OH279432   4.862   3.380  16.374 -0.3865  0.1446  0.3557
19314TIP3    H179433   4.850   3.295  16.417  1.2191 -0.5201 -0.3860
19314TIP3    H279434   4.909   3.433  16.438  1.3906 -0.6149 -0.2433
19315TIP3   OH279435   1.745   3.379  10.901  0.1857 -0.3686  0.0687
19315TIP3    H179436   1.695   3.332  10.835 -2.4015  0.2372  1.4733
19315TIP3    H279437   1.803   3.436  10.851 -1.7578  0.1590 -1.7071
19316TIP3   OH279438   4.441   5.784   4.156 -0.2831  0.1872  0.2253
19316TIP3    H179439   4.465   5.713   4.096  0.2310  0.8003 -0.3058
19316TIP3    H279440   4.346   5.791   4.147 -0.1384  0.7799 -1.1182
19317TIP3   OH279441   1.206   5.919  16.741 -0.0368 -0.0099  0.1464
19317TIP3    H179442   1.148   5.860  16.790 -1.6125  1.3118 -0.0318
19317TIP3    H279443   1.215   5.995  16.798 -0.5976  0.8752 -0.9175
19318TIP3   OH279444   5.807   4.542  13.560 -0.2522 -0.0235 -0.1249
19318TIP3    H179445   5.746   4.571  13.628  0.4209 -0.0790  0.5082
19318TIP3    H279446   5.809   4.447  13.569 -0.9065 -0.1187 -0.8738
19319TIP3   OH279447   1.982   5.270   6.434  0.5007 -0.4226 -0.0799
19319TIP3    H179448   2.068   5.249   6.471  1.5979  3.0469 -0.3487
19319TIP3    H279449   2.001   5.303   6.347 -0.8402  2.0729  0.4906
19320TIP3   OH279450   5.488   5.946   6.321  0.6794  0.2722  0.2476
19320TIP3    H179451   5.446   5.867   6.356 -0.4213  1.4864  1.8319
19320TIP3    H279452   5.430   5.975   6.251 -0.7573  1.4428  1.8379
19321TIP3   OH279453   3.202   4.220  14.314  0.0053 -0.7318 -0.1073
19321TIP3    H179454   3.159   4.221  14.399  0.4291 -0.3879  0.1111
19321TIP3    H279455   3.230   4.311  14.300  2.8508 -1.3500  0.9078
19322TIP3   OH279456   0.042   5.446   5.839  0.2902  0.1359  0.0478
19322TIP3    H179457   0.014   5.485   5.922  1.8947  0.6851  0.3618
19322TIP3    H279458   0.025   5.514   5.774  0.5958  0.3493  0.1892
19323TIP3   OH279459   4.012   0.212   6.014 -0.1202 -0.3726 -0.0692
19323TIP3    H179460   3.976   0.268   6.083 -0.1079 -0.7519  0.2460
19323TIP3    H279461   3.936   0.168   5.977 -0.0125 -0.9885  0.4321
19324TIP3   OH279462   1.783   2.128  10.469  0.0807  0.3170  0.0730
19324TIP3    H179463   1.729   2.092  10.539 -0.1919  0.5621 -0.0084
19324TIP3    H279464   1.725   2.131  10.393  0.1217  0.8456  0.0568
19325TIP3   OH279465   3.897   1.990   2.332  0.0377 -0.0421  0.5563
19325TIP3    H179466   3.868   1.965   2.244  0.7078  0.4285  0.1909
19325TIP3    H279467   3.962   2.060   2.317  1.5195 -1.1912  1.3229
19326TIP3   OH279468   1.537   3.066   1.290 -0.0669 -0.2345 -0.0273
19326TIP3    H179469   1.540   2.977   1.257 -0.4772  0.0117 -0.7441
19326TIP3    H279470   1.458   3.104   1.251 -0.1736  0.2823  0.6787
19327TIP3   OH279471   2.150   1.556  16.102 -0.0329 -1.1553 -0.5376
19327TIP3    H179472   2.106   1.606  16.033  1.6354  1.2612  0.0149
19327TIP3    H279473   2.211   1.499  16.055 -0.3827 -1.0562 -1.1275
19328TIP3   OH279474   2.817   5.233   0.402 -0.3882 -0.0579 -0.4580
19328TIP3    H179475   2.778   5.148   0.384 -0.4848 -0.3717  1.1656
19328TIP3    H279476   2.844   5.265   0.316  0.3997 -2.0697 -1.0076
19329TIP3   OH279477   0.656   3.227  11.299 -0.3383 -0.6215  0.4003
19329TIP3    H179478   0.712   3.287  11.349 -0.3212  1.1227 -1.5549
19329TIP3    H279479   0.567   3.247  11.329 -0.3648  0.6844 -0.4648
19330TIP3   OH279480   6.256   4.106  17.087  0.2845 -0.4429 -0.3305
19330TIP3    H179481   6.162   4.120  17.097  0.3664 -0.4867  0.5431
19330TIP3    H279482   6.263   4.020  17.045 -0.0611 -0.6093 -0.0514
19331TIP3   OH279483   1.498   1.365   1.234  0.3708  0.8634 -0.0257
19331TIP3    H179484   1.454   1.378   1.318  3.4039  0.5861  1.7533
19331TIP3    H279485   1.500   1.270   1.222  1.4046  0.7984  0.5081
19332TIP3   OH279486   0.569   6.427   0.098  0.5760 -0.1496 -0.0815
19332TIP3    H179487   0.627   6.352   0.083  1.3290  0.2547  0.6851
19332TIP3    H279488   0.617   6.482   0.161  1.4909  2.5619 -2.8881
19333TIP3   OH279489   1.574   5.106  15.626  0.4739  0.0255 -0.2823
19333TIP3    H179490   1.559   5.028  15.573  0.9884  1.4650 -2.6856
19333TIP3    H279491   1.651   5.085  15.678  0.1022 -1.3517 -0.2392
19334TIP3   OH279492   2.040   0.404   1.996  0.2895  0.0881  0.0446
19334TIP3    H179493   1.989   0.337   2.043 -0.9926  0.7619 -0.3551
19334TIP3    H279494   2.124   0.405   2.042 -0.2116 -0.7057  1.0435
19335TIP3   OH279495   3.480   2.800   1.388 -0.0637  0.3991  0.4542
19335TIP3    H179496   3.565   2.759   1.369  0.8853  1.3332  2.3448
19335TIP3    H279497   3.424   2.776   1.315  1.8453 -0.2543 -0.8602
19336TIP3   OH279498   4.429   6.129  17.073 -0.2883  0.1119 -0.3150
19336TIP3    H179499   4.410   6.161  17.162  1.3873 -0.2423  0.2102
19336TIP3    H279500   4.523   6.112  17.074 -0.7001 -2.6702 -1.2758
19337TIP3   OH279501   4.785   3.744   5.466  0.5757  0.3943  0.0537
19337TIP3    H179502   4.881   3.737   5.471  0.5007  0.1251  1.8728
19337TIP3    H279503   4.760   3.681   5.399  1.6252 -0.1417  0.1340
19338TIP3   OH279504   0.126   3.785  13.230  0.2454  0.4388 -0.5478
19338TIP3    H179505   0.122   3.778  13.326 -1.7669 -0.4589 -0.6273
19338TIP3    H279506   0.096   3.874  13.212 -0.6593  0.1863 -0.3589
19339TIP3   OH279507   0.137   1.228  15.789  0.3778  0.0996  0.7913
19339TIP3    H179508   0.089   1.273  15.859  1.1113 -0.3888  1.6358
19339TIP3    H279509   0.188   1.296  15.746 -1.4969  0.7465 -0.5292
19340TIP3   OH279510   4.960   4.881  11.625  1.0847 -0.2975  0.0972
19340TIP3    H179511   5.016   4.804  11.615 -0.2268 -1.3481  0.5687
19340TIP3    H279512   4.945   4.888  11.719  0.6748  0.1562  0.0043
19341TIP3   OH279513   1.960   6.392  12.610 -0.6386 -0.7208  0.0549
19341TIP3    H179514   2.023   6.327  12.579 -0.0458  0.1306 -0.5882
19341TIP3    H279515   2.005   6.476  12.599 -2.0197 -0.0575 -0.7860
19342TIP3   OH279516   5.267   4.714  15.405 -0.1835  0.3684 -0.8306
19342TIP3    H179517   5.176   4.718  15.375 -0.1004  1.1037 -1.0104
19342TIP3    H279518   5.262   4.666  15.488 -0.6941  0.1451 -0.9844
19343TIP3   OH279519   2.540   0.996   2.154  0.1903  0.1445 -0.0122
19343TIP3    H179520   2.594   0.985   2.233 -0.1451  1.4990  0.4272
19343TIP3    H279521   2.602   0.987   2.081  0.5387 -0.9193  0.3973
19344TIP3   OH279522   2.643   3.106  16.320  0.7046 -0.1638 -0.3779
19344TIP3    H179523   2.559   3.124  16.278  0.1346  0.4326  0.9832
19344TIP3    H279524   2.684   3.192  16.329  0.9860 -0.3309 -0.0475
19345TIP3   OH279525   6.487   5.595  12.979  0.3835  0.2142 -0.4548
19345TIP3    H179526   6.568   5.639  13.005  1.6870 -1.9999 -0.5351
19345TIP3    H279527   6.423   5.623  13.045  2.3447 -1.3541  2.3573
19346TIP3   OH279528   4.144   0.985  12.469 -0.3084 -0.2596  0.3654
19346TIP3    H179529   4.207   0.913  12.469  0.0321  0.0330  0.6682
19346TIP3    H279530   4.171   1.041  12.396 -1.8831 -1.5407 -1.3025
19347TIP3   OH279531   4.692   6.116   1.754 -0.1633  0.2812  0.5732
19347TIP3    H179532   4.780   6.076   1.749 -0.5310 -0.6331  1.1409
19347TIP3    H279533   4.704   6.194   1.808  0.3494  0.3101  0.4300
19348TIP3   OH279534   4.556   0.205  16.335  0.3873 -0.1808 -0.3297
19348TIP3    H179535   4.588   0.121  16.303  0.7237 -0.7381  1.3663
19348TIP3    H279536   4.496   0.182  16.406  0.1060  0.9979 -0.1679
19349TIP3   OH279537   6.710   0.055  13.586  0.4701  0.5085  0.4683
19349TIP3    H179538   6.715   0.018  13.498 -1.2810  2.3015 -0.4606
19349TIP3    H279539   6.784   0.116  13.590  1.4398 -0.6353  0.8438
19350TIP3   OH279540   2.028   2.178  13.902  0.1197  0.7309 -0.1685
19350TIP3    H179541   1.966   2.174  13.829 -1.0569 -0.3027  0.8451
19350TIP3    H279542   1.984   2.133  13.974  0.7011  2.7756  1.5875
19351TIP3   OH279543   3.229   5.428   2.164 -0.7105 -0.2265 -0.7920
19351TIP3    H179544   3.283   5.472   2.230 -0.5094  0.8826 -1.6848
19351TIP3    H279545   3.155   5.392   2.214 -0.7804  0.9609 -0.0078
19352TIP3   OH279546   1.015   6.201   6.010 -0.9693  0.2265  0.2413
19352TIP3    H179547   1.101   6.239   6.027  0.3074 -1.9440 -0.8869
19352TIP3    H279548   0.957   6.243   6.073  0.6108  2.7341  0.1658
19353TIP3   OH279549   6.816   0.999   0.823 -0.1458 -0.0125 -0.1942
19353TIP3    H179550   6.897   1.049   0.827  0.5343 -1.1207  0.6477
19353TIP3    H279551   6.794   0.993   0.730  0.0716  1.3243 -0.3373
19354TIP3   OH279552   2.988   3.453   5.309 -0.2104  0.0598 -0.6176
19354TIP3    H179553   2.909   3.429   5.359  1.0258 -0.7163  1.0442
19354TIP3    H279554   3.060   3.443   5.371  1.1089  1.8930 -1.7472
19355TIP3   OH279555   5.445   2.223   0.347 -0.9173  0.6958  0.2260
19355TIP3    H179556   5.449   2.135   0.311  1.2184  0.8320  0.0156
19355TIP3    H279557   5.492   2.277   0.284 -1.8983  1.9563  0.5185
19356TIP3   OH279558   6.023   4.996   4.142 -0.1322  0.1194  0.3816
19356TIP3    H179559   6.020   5.086   4.176 -0.5573  0.7886 -1.3033
19356TIP3    H279560   6.075   4.948   4.205  0.0025  1.5339  1.3925
19357TIP3   OH279561   6.200   3.106   3.146 -0.3164  0.4673 -0.2115
19357TIP3    H179562   6.285   3.109   3.101 -0.6652  1.8073 -0.8559
19357TIP3    H279563   6.138   3.140   3.081 -1.2936 -0.1729  0.3645
19358TIP3   OH279564   5.896   3.690  11.308 -0.1467  0.3748  0.4753
19358TIP3    H179565   5.983   3.662  11.337  0.4440 -0.5800 -1.9705
19358TIP3    H279566   5.837   3.624  11.345  0.8132 -2.0379 -1.9751
19359TIP3   OH279567   5.666   6.203  14.787  0.1317  0.0793 -0.4786
19359TIP3    H179568   5.594   6.141  14.778  0.8144 -0.6596 -0.9492
19359TIP3    H279569   5.707   6.205  14.700 -0.3228  1.7601 -0.6975
19360TIP3   OH279570   2.428   1.361  15.340  0.1640 -0.5508  0.3837
19360TIP3    H179571   2.463   1.380  15.427 -1.1132 -2.2749  1.3133
19360TIP3    H279572   2.460   1.273  15.320 -0.8048 -0.7793 -0.2176
19361TIP3   OH279573   1.522   0.623  15.114 -0.2932 -0.1819  0.8845
19361TIP3    H179574   1.590   0.637  15.047  0.0997  1.7538  1.6134
19361TIP3    H279575   1.447   0.673  15.082 -1.5901 -2.6106 -0.1048
19362TIP3   OH279576   5.926   4.182   0.966  0.0081  0.1386  0.0577
19362TIP3    H179577   5.925   4.231   1.049  0.3459 -1.0042  0.7590
19362TIP3    H279578   5.853   4.217   0.917  0.6351  1.8287  0.2509
19363TIP3   OH279579   6.294   1.158   4.126  0.2369  0.2500 -0.2168
19363TIP3    H179580   6.207   1.128   4.153 -0.8510  1.7757 -1.7525
19363TIP3    H279581   6.277   1.211   4.048  2.8430 -1.5909 -2.1921
19364TIP3   OH279582   1.318   6.166   0.823 -0.5423  0.5371  0.2903
19364TIP3    H179583   1.323   6.156   0.918 -1.0284  2.7167  0.6145
19364TIP3    H279584   1.279   6.085   0.792  1.2947 -0.9739  1.7269
19365TIP3   OH279585   1.368   5.559   1.791  0.4419 -0.1427 -0.4529
19365TIP3    H179586   1.277   5.584   1.804  0.8966  1.1493  0.4142
19365TIP3    H279587   1.376   5.546   1.697 -0.5540  0.0784 -0.5778
19366TIP3   OH279588   6.297   0.594  14.519 -0.1643  0.1077 -0.1369
19366TIP3    H179589   6.298   0.545  14.437 -1.2063 -0.9470  0.4474
19366TIP3    H279590   6.253   0.677  14.496 -1.1102 -0.4760 -0.5108
19367TIP3   OH279591   1.460   3.362   1.999  0.7215  0.3680 -0.4074
19367TIP3    H179592   1.484   3.319   1.916 -1.8297  1.0469 -1.5856
19367TIP3    H279593   1.437   3.290   2.057  0.9996 -0.0543 -0.8113
19368TIP3   OH279594   6.122   4.244  10.792 -0.0869 -0.0434  0.2193
19368TIP3    H179595   6.141   4.338  10.800  3.3949 -0.5263 -0.8239
19368TIP3    H279596   6.105   4.231  10.698  0.4040 -0.5922  0.2024
19369TIP3   OH279597   6.690   2.941   5.413 -0.0903 -0.6192 -0.4261
19369TIP3    H179598   6.751   2.877   5.376  0.3681 -0.5330  0.1663
19369TIP3    H279599   6.608   2.926   5.366  0.6127 -0.1551 -1.8516
19370TIP3   OH279600   1.141   5.142  12.035 -0.2282  0.3679  0.1064
19370TIP3    H179601   1.225   5.169  12.073 -0.4561  1.1393  0.0963
19370TIP3    H279602   1.154   5.154  11.941 -0.0435 -0.4220  0.0306
19371TIP3   OH279603   2.892   6.846   4.538  0.5391 -0.6265  0.6894
19371TIP3    H179604   2.831   6.909   4.578 -0.7874 -0.3569 -1.6193
19371TIP3    H279605   2.836   6.779   4.499  1.6645 -0.3725 -1.5063
19372TIP3   OH279606   0.959   3.207   3.678  0.3625  0.3861  0.2526
19372TIP3    H179607   1.027   3.200   3.744 -0.0263 -0.9322  0.5458
19372TIP3    H279608   0.894   3.267   3.715 -1.0440 -2.1801  2.1902
19373TIP3   OH279609   6.531   5.763  10.604  0.3621  0.4732  0.3447
19373TIP3    H179610   6.623   5.767  10.631  0.3143  1.3219  0.4126
19373TIP3    H279611   6.507   5.855  10.588  0.2657  0.0803 -2.1830
19374TIP3   OH279612   2.417   3.970  14.923 -0.3428  0.0399  0.6084
19374TIP3    H179613   2.367   3.991  14.845  0.0208  0.3099  0.4474
19374TIP3    H279614   2.365   3.904  14.968  0.5337 -1.8796 -1.0469
19375TIP3   OH279615   3.867   5.239   2.706 -0.8483 -0.0174  0.5295
19375TIP3    H179616   3.878   5.157   2.659  0.3169  1.0757 -1.2598
19375TIP3    H279617   3.773   5.248   2.719 -1.2974 -0.2186 -2.0418
19376TIP3   OH279618   3.326   0.225   0.172 -0.2034  0.4992  0.1025
19376TIP3    H179619   3.350   0.294   0.234  0.4994 -0.3697  0.8271
19376TIP3    H279620   3.263   0.266   0.113 -1.1173  1.2798  1.5728
19377TIP3   OH279621   1.871   1.172  12.495  0.7897  0.7264  0.2092
19377TIP3    H179622   1.802   1.204  12.437  1.8117 -0.0858 -1.5355
19377TIP3    H279623   1.826   1.152  12.577 -1.7024 -2.4449 -1.6837
19378TIP3   OH279624   6.312   5.981   1.368 -0.7165 -0.0062  0.0712
19378TIP3    H179625   6.291   5.894   1.334 -0.1102  0.0471 -0.4434
19378TIP3    H279626   6.227   6.017   1.394 -0.7898 -1.6022  2.3818
19379TIP3   OH279627   1.048   5.698  15.306 -0.1940 -0.2572  1.0142
19379TIP3    H179628   1.127   5.650  15.331  0.0452  0.0884  0.9252
19379TIP3    H279629   1.026   5.751  15.383  1.6198  2.2566 -0.0591
19380TIP3   OH279630   5.109   0.211   1.242  0.6584  0.4056 -0.2221
19380TIP3    H179631   5.190   0.230   1.290  0.4338 -0.3265  0.4817
19380TIP3    H279632   5.049   0.280   1.268 -0.0595 -0.9411  2.0776
19381TIP3   OH279633   0.554   1.874   2.804  0.0308 -0.3909 -0.0621
19381TIP3    H179634   0.583   1.960   2.835 -0.4584 -0.1103 -0.3685
19381TIP3    H279635   0.482   1.893   2.744 -0.7747 -1.0697  0.6613
19382TIP3   OH279636   3.783   3.422  14.630 -0.3294  0.0727 -0.2758
19382TIP3    H179637   3.877   3.419  14.616 -0.5078 -0.6138 -1.4001
19382TIP3    H279638   3.769   3.373  14.711  0.2432 -0.1149 -0.2902
19383TIP3   OH279639   3.112   3.491   1.624  0.5909  0.4287 -0.1429
19383TIP3    H179640   3.075   3.516   1.539  1.9995  0.7617 -0.6878
19383TIP3    H279641   3.123   3.396   1.617  0.4060  0.4098 -0.2044
19384TIP3   OH279642   6.254   6.699  16.977  0.2178 -0.8515 -0.1541
19384TIP3    H179643   6.275   6.774  16.922  0.9292 -0.5238  0.5437
19384TIP3    H279644   6.308   6.628  16.943  0.0780 -0.8565 -0.3637
19385TIP3   OH279645   0.975   0.387   5.291  0.1713 -0.1929 -0.4529
19385TIP3    H179646   1.031   0.349   5.358 -1.4709 -0.8218  0.6359
19385TIP3    H279647   0.984   0.481   5.301  0.4504 -0.2903  0.2124
19386TIP3   OH279648   6.460   2.136  12.901 -0.2302 -0.0025  0.4576
19386TIP3    H179649   6.471   2.221  12.944  0.0625  0.0537  0.2706
19386TIP3    H279650   6.549   2.103  12.889 -0.3156 -0.0899  0.0369
19387TIP3   OH279651   6.199   1.128   2.374  0.0242 -0.4379  0.3190
19387TIP3    H179652   6.192   1.058   2.310  1.6468 -0.8747  0.5781
19387TIP3    H279653   6.124   1.114   2.433 -0.1136 -1.4739 -0.0790
19388TIP3   OH279654   0.257   0.591   4.780 -0.2811 -0.6993 -0.1192
19388TIP3    H179655   0.192   0.639   4.832 -1.0016 -0.2863 -1.3505
19388TIP3    H279656   0.280   0.652   4.709 -1.6877 -2.3306 -2.1076
19389TIP3   OH279657   3.178   4.707   4.120 -0.2618 -0.0848  0.3051
19389TIP3    H179658   3.090   4.696   4.155 -0.5849  0.7332 -0.2167
19389TIP3    H279659   3.193   4.801   4.121 -0.5454  0.0684 -2.2585
19390TIP3   OH279660   3.962   2.658   0.433  0.0362  0.5857  0.0797
19390TIP3    H179661   3.965   2.751   0.412  1.5492  1.0422  1.9799
19390TIP3    H279662   3.869   2.639   0.444 -0.2191  2.3447  1.4314
19391TIP3   OH279663   4.495   3.541   5.695  0.1784  0.5804 -0.1619
19391TIP3    H179664   4.466   3.615   5.643  0.4464 -0.3840 -1.7440
19391TIP3    H279665   4.419   3.483   5.698  0.9725 -0.6392 -1.8968
19392TIP3   OH279666   5.316   0.613  11.362  0.4063  0.9342  0.7183
19392TIP3    H179667   5.384   0.680  11.376  2.6490 -1.4726  2.5264
19392TIP3    H279668   5.347   0.563  11.287  0.3830  0.1404  1.2247
19393TIP3   OH279669   4.252   2.305   2.198 -0.2548  0.4387  0.3817
19393TIP3    H179670   4.194   2.363   2.247 -0.1893  0.9593 -0.1408
19393TIP3    H279671   4.324   2.362   2.170  0.9732 -0.3713  1.7722
19394TIP3   OH279672   4.624   4.842  13.642 -0.5349 -0.1812 -0.6231
19394TIP3    H179673   4.530   4.840  13.661 -0.6361  0.4555 -1.0589
19394TIP3    H279674   4.630   4.873  13.552 -0.0389 -2.9170 -1.6401
19395TIP3   OH279675   6.752   1.239   3.346  0.1092  0.1156 -0.2150
19395TIP3    H179676   6.733   1.265   3.256  0.7128 -0.7549 -0.6058
19395TIP3    H279677   6.756   1.144   3.344  0.2106  0.0878  0.7205
19396TIP3   OH279678   3.230   6.000   6.366 -0.1302 -0.6347  0.0799
19396TIP3    H179679   3.225   5.906   6.351 -0.7463 -0.3866 -1.4755
19396TIP3    H279680   3.169   6.016   6.438 -1.3500 -1.2384 -0.7709
19397TIP3   OH279681   4.069   3.678  11.677  0.3182 -0.3009 -0.3738
19397TIP3    H179682   4.020   3.616  11.623 -0.7121  1.0612 -1.0627
19397TIP3    H279683   4.144   3.703  11.624 -0.9308  1.3778 -1.4384
19398TIP3   OH279684   2.335   0.269  13.610  0.2323  0.2023 -0.3272
19398TIP3    H179685   2.325   0.364  13.600 -0.4340  0.1521 -0.2017
19398TIP3    H279686   2.424   0.258  13.643  0.7693  0.6992 -1.5105
19399TIP3   OH279687   2.218   2.937  15.874 -0.4762  0.8190 -0.4492
19399TIP3    H179688   2.133   2.929  15.831 -0.6677  0.8197 -0.0699
19399TIP3    H279689   2.273   2.982  15.809 -0.1806 -0.9654 -1.4889
19400TIP3   OH279690   2.137   2.751   0.932  0.5756  0.2676  0.1871
19400TIP3    H179691   2.169   2.661   0.928 -1.0771 -0.3663  0.4453
19400TIP3    H279692   2.211   2.804   0.902  1.3545 -1.2146 -0.6246
19401TIP3   OH279693   3.368   0.555   4.484  0.3697 -0.2920 -0.0334
19401TIP3    H179694   3.433   0.582   4.550 -1.2601  0.7631  1.2160
19401TIP3    H279695   3.381   0.617   4.412  1.5130 -0.8312 -0.3138
19402TIP3   OH279696   2.386   6.512   2.422  0.0025 -0.2800 -0.0109
19402TIP3    H179697   2.373   6.592   2.372  0.7725  0.3061  0.7110
19402TIP3    H279698   2.416   6.448   2.357  0.0700  0.2060 -0.4611
19403TIP3   OH279699   2.614   2.327   3.093 -0.7690  0.2184 -0.0054
19403TIP3    H179700   2.619   2.333   3.189 -0.6144 -0.7729  0.0584
19403TIP3    H279701   2.527   2.291   3.076 -0.0059 -1.7024 -0.1077
19404TIP3   OH279702   1.037   4.629  15.681  0.2063  0.3608 -0.2019
19404TIP3    H179703   0.989   4.568  15.624  0.3964 -0.3266  0.3605
19404TIP3    H279704   1.116   4.581  15.705 -1.2202 -0.5955  3.0690
19405TIP3   OH279705   0.494   3.762   1.638 -0.3099 -0.4274 -0.2427
19405TIP3    H179706   0.399   3.761   1.651 -0.6330  0.3925 -2.1830
19405TIP3    H279707   0.519   3.669   1.635 -0.8279 -0.6478  1.4797
19406TIP3   OH279708   5.208   1.476  11.632 -0.3089  0.3606  0.3047
19406TIP3    H179709   5.254   1.426  11.564  0.8950  1.3059  0.3901
19406TIP3    H279710   5.115   1.459  11.615 -0.0777  0.9296 -1.8978
19407TIP3   OH279711   2.792   5.660  15.047  0.1511 -0.2187 -0.1730
19407TIP3    H179712   2.852   5.667  14.973  0.2591 -2.7025 -0.3759
19407TIP3    H279713   2.728   5.730  15.033  1.1715  0.4730 -1.6183
19408TIP3   OH279714   2.106   3.958   3.215  0.4429 -0.2856 -0.0480
19408TIP3    H179715   2.059   3.980   3.134  1.8686  1.1729 -0.5214
19408TIP3    H279716   2.136   4.043   3.248 -0.7457 -0.7630  2.4530
19409TIP3   OH279717   0.388   5.376   1.594  0.2632  0.0789  0.2852
19409TIP3    H179718   0.424   5.367   1.506 -1.1591 -0.4953 -0.2667
19409TIP3    H279719   0.320   5.443   1.586 -0.8338 -0.9641  0.6117
19410TIP3   OH279720   0.045   4.495  13.676 -0.0701 -0.3540  0.0420
19410TIP3    H179721   0.126   4.510  13.628 -1.0586  1.2079 -1.2335
19410TIP3    H279722   0.051   4.552  13.752 -0.7310  1.1908 -1.0270
19411TIP3   OH279723   3.900   1.638  13.461  0.4176  0.0488  0.0332
19411TIP3    H179724   3.884   1.647  13.367  0.8083  2.8353  0.1482
19411TIP3    H279725   3.987   1.599  13.467  0.4947  0.0838 -0.7700
19412TIP3   OH279726   0.181   5.440  10.456  0.4566  0.4221  0.3693
19412TIP3    H179727   0.194   5.434  10.550  0.0210 -2.1202  0.3459
19412TIP3    H279728   0.107   5.382  10.438  0.6999  0.6345 -1.5503
19413TIP3   OH279729   1.977   6.596  11.096  0.0095  0.9965  0.3009
19413TIP3    H179730   1.892   6.611  11.139 -0.3725 -0.6620  0.1747
19413TIP3    H279731   1.957   6.595  11.003  0.5406  2.6931  0.1291
19414TIP3   OH279732   0.395   1.622  12.759  0.8919  0.2488 -0.0997
19414TIP3    H179733   0.300   1.616  12.770  0.8715  0.3390 -0.2280
19414TIP3    H279734   0.424   1.532  12.743  1.0685 -0.1039  1.8713
19415TIP3   OH279735   0.630   1.640   0.212  0.1085 -0.1254 -0.2406
19415TIP3    H179736   0.692   1.569   0.231 -1.2766 -1.4433 -0.4039
19415TIP3    H279737   0.649   1.707   0.277  1.0828 -0.9012  0.3011
19416TIP3   OH279738   5.119   3.959  15.593  0.3629 -0.5017 -0.1037
19416TIP3    H179739   5.045   3.906  15.623  0.7230 -0.6944  0.4534
19416TIP3    H279740   5.128   3.936  15.500 -0.7030  0.0407 -0.3680
19417TIP3   OH279741   0.527   3.830  12.437 -0.5232  0.1769  0.3614
19417TIP3    H179742   0.571   3.904  12.479  2.2771 -0.8122 -0.5877
19417TIP3    H279743   0.477   3.788  12.508  0.6488  0.9541  1.7016
19418TIP3   OH279744   1.318   6.284  11.812  0.2104 -0.1075  0.1664
19418TIP3    H179745   1.358   6.329  11.887  0.0793  1.1295 -0.4925
19418TIP3    H279746   1.237   6.248  11.847  0.2961  0.1944  0.6914
19419TIP3   OH279747   0.572   4.522  15.385 -0.4423  0.3094 -0.4569
19419TIP3    H179748   0.600   4.431  15.369 -0.8988 -0.3115  1.9074
19419TIP3    H279749   0.642   4.575  15.347  0.3528 -1.0576 -0.9816
19420TIP3   OH279750   5.292   1.673  16.176 -0.2964 -0.4107  0.1551
19420TIP3    H179751   5.265   1.599  16.229 -0.3120 -1.7099 -1.5739
19420TIP3    H279752   5.311   1.635  16.090 -1.1132  1.7033 -1.0314
19421TIP3   OH279753   0.572   0.775   2.484  0.0805 -0.3770  0.0559
19421TIP3    H179754   0.649   0.739   2.439 -0.1355  0.2303 -0.8248
19421TIP3    H279755   0.600   0.785   2.575  0.4730 -1.7897  0.1157
19422TIP3   OH279756   5.710   3.372   2.482 -0.1984 -0.4006  0.4514
19422TIP3    H179757   5.744   3.359   2.393  0.1572 -2.1944  0.7894
19422TIP3    H279758   5.737   3.292   2.529 -2.0217 -0.3660  1.6550
19423TIP3   OH279759   0.501   1.159  16.155  0.1099 -0.0671  0.7075
19423TIP3    H179760   0.408   1.139  16.146  0.3218 -0.5938 -0.4390
19423TIP3    H279761   0.546   1.081  16.123  0.9711 -0.5723  2.9657
19424TIP3   OH279762   3.931   2.154   5.204  0.7924  0.1250  0.2273
19424TIP3    H179763   3.987   2.078   5.188  1.0377  0.1159  1.0764
19424TIP3    H279764   3.842   2.118   5.209  0.0430  0.5571 -4.9572
19425TIP3   OH279765   3.302   4.276  13.085 -0.1280 -0.0114 -0.3517
19425TIP3    H179766   3.384   4.261  13.039  0.7453  0.1616  1.0721
19425TIP3    H279767   3.276   4.365  13.059  0.2142 -0.0074 -0.6927
19426TIP3   OH279768   6.641   6.760   3.008  0.4396 -0.3515 -0.0595
19426TIP3    H179769   6.622   6.847   2.973 -0.3941  0.0876  1.4037
19426TIP3    H279770   6.557   6.729   3.042  1.4185 -0.1096  2.8696
19427TIP3   OH279771   4.647   5.184   6.000 -0.7641 -0.4015  0.3490
19427TIP3    H179772   4.560   5.154   6.025 -1.4969  0.2886 -1.2139
19427TIP3    H279773   4.649   5.276   6.023 -0.3847 -0.4547  0.5351
19428TIP3   OH279774   0.645   3.995   0.894  0.2204 -0.4593 -0.1543
19428TIP3    H179775   0.692   3.914   0.873  1.9628 -0.0951  1.9855
19428TIP3    H279776   0.576   3.967   0.955  0.8968 -0.3767  0.6793
19429TIP3   OH279777   2.889   2.950  16.359 -0.1516 -0.4839  1.0870
19429TIP3    H179778   2.908   2.978  16.448 -0.4677  3.3014  0.1488
19429TIP3    H279779   2.803   2.988  16.339 -0.0426 -1.1251 -0.8571
19430TIP3   OH279780   3.635   5.128   4.106 -0.0643  0.7943  0.3390
19430TIP3    H179781   3.610   5.036   4.116 -2.0297  0.9756 -1.9141
19430TIP3    H279782   3.709   5.127   4.047  1.2457  0.6139  1.9104
19431TIP3   OH279783   3.064   4.278   4.617  0.0395  0.0979  0.5266
19431TIP3    H179784   3.043   4.364   4.653  0.4128 -0.1860  1.4301
19431TIP3    H279785   3.157   4.283   4.594  0.0173 -0.0050  0.4101
19432TIP3   OH279786   2.628   3.040   4.431  0.8413  0.0900  0.1490
19432TIP3    H179787   2.641   3.053   4.525 -1.3414 -2.7339  0.9812
19432TIP3    H279788   2.691   2.971   4.408 -0.2369 -0.9240  0.1438
19433TIP3   OH279789   6.617   1.541   0.396  0.1126 -0.3247 -0.1566
19433TIP3    H179790   6.549   1.608   0.404 -0.6460 -1.2528  2.7507
19433TIP3    H279791   6.576   1.470   0.346 -0.0307  0.2800 -0.8981
19434TIP3   OH279792   1.415   6.160  14.293 -0.7968  1.2583 -0.2120
19434TIP3    H179793   1.333   6.209  14.288 -0.7318  1.7508  2.2618
19434TIP3    H279794   1.467   6.207  14.358  2.1155  1.8090 -2.6706
19435TIP3   OH279795   1.605   0.367  14.834  0.7507  0.2142 -0.0539
19435TIP3    H179796   1.632   0.421  14.760 -0.2741 -1.1909 -1.5307
19435TIP3    H279797   1.514   0.392  14.850  0.6077 -0.3045 -0.0344
19436TIP3   OH279798   4.806   4.882   4.681 -0.1792 -0.0122  0.4363
19436TIP3    H179799   4.716   4.914   4.676  0.0571  0.6126  0.1793
19436TIP3    H279800   4.797   4.786   4.685 -0.8418  0.0345  0.1528
19437TIP3   OH279801   5.744   5.421   0.741 -0.0104 -0.7259  0.8955
19437TIP3    H179802   5.677   5.470   0.693  0.6025  0.0208  0.7815
19437TIP3    H279803   5.696   5.381   0.813 -0.5567 -0.0640  0.9178
19438TIP3   OH279804   6.311   6.459  10.681 -0.4658  0.3268  0.5679
19438TIP3    H179805   6.238   6.455  10.619  0.0581  0.9136 -0.1156
19438TIP3    H279806   6.388   6.475  10.626  0.5375 -2.3363  1.0386
19439TIP3   OH279807   2.899   5.620  16.601  0.0853  0.0606 -0.1658
19439TIP3    H179808   2.972   5.675  16.632  0.3880  0.4120 -1.4613
19439TIP3    H279809   2.937   5.533  16.593  1.2081  0.7100 -3.4141
19440TIP3   OH279810   2.826   3.482  13.643  0.2212  0.1837  0.0500
19440TIP3    H179811   2.835   3.460  13.550  1.7985 -1.4736  0.5480
19440TIP3    H279812   2.902   3.536  13.662  1.8620 -2.3148  1.0939
19441TIP3   OH279813   3.648   0.395   5.391  0.0898  0.2365 -0.1479
19441TIP3    H179814   3.616   0.416   5.479  1.8495  0.2051  0.5431
19441TIP3    H279815   3.705   0.468   5.368  1.8460 -1.0546 -0.0741
19442TIP3   OH279816   2.389   2.353  10.803  0.4506 -0.4591 -0.7324
19442TIP3    H179817   2.366   2.274  10.852 -0.7062  0.7762  0.7987
19442TIP3    H279818   2.317   2.364  10.741 -0.4664  0.4596  0.4377
19443TIP3   OH279819   6.583   4.748   2.858 -0.2270 -0.0567  0.0143
19443TIP3    H179820   6.529   4.827   2.869 -2.0658 -0.9748 -1.7861
19443TIP3    H279821   6.526   4.676   2.885  0.5009 -0.9546 -0.7721
19444TIP3   OH279822   2.643   4.882  12.533 -0.0723 -0.6757 -0.0611
19444TIP3    H179823   2.683   4.800  12.504  1.2656  0.2650 -1.0108
19444TIP3    H279824   2.710   4.948  12.516 -0.5714  0.4466  1.9574
19445TIP3   OH279825   4.203   5.476   3.305  0.2580 -0.3155  0.4629
19445TIP3    H179826   4.199   5.547   3.240 -3.2245 -2.3185 -1.8707
19445TIP3    H279827   4.161   5.513   3.383  1.1495  1.0359  0.3319
19446TIP3   OH279828   1.776   1.752   1.261 -0.5938 -0.2756 -0.2728
19446TIP3    H179829   1.743   1.711   1.181 -1.8437  0.9351 -0.3952
19446TIP3    H279830   1.723   1.830   1.273  0.8239  0.5974  0.7131
19447TIP3   OH279831   5.807   2.343   4.859 -0.5139  0.1736 -0.5401
19447TIP3    H179832   5.860   2.369   4.935 -1.8110  1.5974 -0.0875
19447TIP3    H279833   5.727   2.394   4.867 -2.1292 -2.1633 -1.0410
19448TIP3   OH279834   3.420   2.215   1.728 -0.4352  0.4884  0.6807
19448TIP3    H179835   3.449   2.221   1.820 -0.8375  4.3829  0.7493
19448TIP3    H279836   3.347   2.277   1.723 -0.1130  0.7348 -2.3695
19449TIP3   OH279837   5.582   4.920   6.082 -0.0597 -0.2835 -0.2878
19449TIP3    H179838   5.625   4.884   6.159  0.1110  0.0783 -0.2110
19449TIP3    H279839   5.550   4.844   6.035 -0.8238 -0.4765  0.5205
19450TIP3   OH279840   3.966   1.461   6.320  0.5532 -0.0729 -0.1474
19450TIP3    H179841   3.903   1.534   6.320 -0.2266 -0.7242 -0.9290
19450TIP3    H279842   3.939   1.407   6.246  1.1198 -1.1614  0.4234
19451TIP3   OH279843   3.058   5.153   0.145  0.1121 -0.3192 -0.4512
19451TIP3    H179844   3.000   5.225   0.169  0.4363 -0.1089 -0.2840
19451TIP3    H279845   3.104   5.185   0.067  1.2295  0.2051  0.3880
19452TIP3   OH279846   0.851   3.115   4.972 -0.2929  0.4036 -0.7557
19452TIP3    H179847   0.822   3.172   5.044 -0.7930 -2.8802  1.8928
19452TIP3    H279848   0.771   3.096   4.923 -0.0058  2.4057 -2.0979
19453TIP3   OH279849   3.247   5.815   5.424  0.7384 -0.5533 -0.2228
19453TIP3    H179850   3.199   5.885   5.469 -1.0730 -0.1893 -2.5554
19453TIP3    H279851   3.333   5.813   5.467  0.2662  1.9886  0.9952
19454TIP3   OH279852   0.425   3.068  16.995 -0.0894  0.2148  0.4410
19454TIP3    H179853   0.365   3.052  17.069  1.0294 -2.6080  0.8575
19454TIP3    H279854   0.372   3.048  16.917  0.4828 -3.8243  0.8453
19455TIP3   OH279855   2.322   5.789  12.723 -0.3210 -0.1016 -0.0684
19455TIP3    H179856   2.372   5.708  12.734 -2.5856 -1.7845 -1.3368
19455TIP3    H279857   2.316   5.825  12.812  0.3037 -1.5937  0.6206
19456TIP3   OH279858   2.479   1.748  11.304 -0.4610 -0.4498  0.4874
19456TIP3    H179859   2.493   1.713  11.216  0.1264 -2.4572  1.3181
19456TIP3    H279860   2.561   1.791  11.327 -1.1100  1.4221 -0.4508
19457TIP3   OH279861   5.796   0.513  11.379 -0.2740  0.6409  0.2583
19457TIP3    H179862   5.770   0.596  11.418  2.0522  1.1288  0.8899
19457TIP3    H279863   5.782   0.526  11.285  1.6418  2.4532  0.1366
19458TIP3   OH279864   0.859   1.677   4.770 -0.4329  0.4061  0.0285
19458TIP3    H179865   0.791   1.731   4.729 -0.4711  0.9736  0.8063
19458TIP3    H279866   0.816   1.637   4.845  0.4509  2.0106  1.4633
19459TIP3   OH279867   3.426   6.085   5.304 -0.4315  0.5834  0.5224
19459TIP3    H179868   3.449   6.151   5.239 -0.5978  0.2114  0.0894
19459TIP3    H279869   3.353   6.037   5.266 -0.9736  0.7963  1.2636
19460TIP3   OH279870   4.946   2.363   3.772 -0.4028  0.1324 -0.5322
19460TIP3    H179871   4.887   2.431   3.804 -0.8183  0.2435 -1.4788
19460TIP3    H279872   4.888   2.294   3.739 -0.0084  0.0729 -1.1286
19461TIP3   OH279873   0.689   2.079  16.169 -0.6378 -0.0270 -0.0763
19461TIP3    H179874   0.610   2.127  16.147 -0.3147  0.4451 -0.2076
19461TIP3    H279875   0.734   2.066  16.086 -0.9137 -0.9052 -0.0971
19462TIP3   OH279876   6.162   2.823  14.943 -0.0004 -0.3340  0.4666
19462TIP3    H179877   6.184   2.901  14.993 -0.2843 -0.3115  0.5578
19462TIP3    H279878   6.238   2.807  14.888  0.3130 -0.3624  0.9076
19463TIP3   OH279879   1.376   4.859  13.904  0.0758 -0.0332  0.1837
19463TIP3    H179880   1.381   4.784  13.845  0.9020 -0.7139  1.0919
19463TIP3    H279881   1.310   4.835  13.969 -0.1712  0.3237  0.0669
19464TIP3   OH279882   3.421   1.802  12.082 -0.2622 -0.4479 -0.0990
19464TIP3    H179883   3.446   1.724  12.132 -0.0467 -0.5540 -0.3689
19464TIP3    H279884   3.334   1.782  12.049 -1.4281  0.5478  2.1520
19465TIP3   OH279885   3.871   5.294  13.887  0.1924  0.1911 -0.8051
19465TIP3    H179886   3.882   5.287  13.982 -0.9257  0.5453 -0.6364
19465TIP3    H279887   3.941   5.239  13.851 -0.2552 -1.1143  0.2400
19466TIP3   OH279888   3.953   6.746  11.737 -0.1362  0.5682  0.0222
19466TIP3    H179889   4.005   6.665  11.742 -1.3845 -0.4309 -1.9070
19466TIP3    H279890   3.960   6.784  11.824  0.0566 -1.9186  1.1880
19467TIP3   OH279891   3.703   2.489  13.782  0.1188  0.2527  0.1783
19467TIP3    H179892   3.773   2.500  13.847  0.7386  1.0688 -0.5928
19467TIP3    H279893   3.721   2.557  13.717  0.5133 -1.5755 -1.7346
19468TIP3   OH279894   5.039   4.841  16.482 -0.1766 -0.4037 -0.1121
19468TIP3    H179895   4.945   4.838  16.499 -0.2642  1.6563 -0.0079
19468TIP3    H279896   5.079   4.841  16.569 -0.0759 -1.1362 -0.1555
19469TIP3   OH279897   6.668   3.469  13.092 -0.4130 -0.4323  0.0039
19469TIP3    H179898   6.671   3.374  13.080  0.2893 -0.4948  0.6006
19469TIP3    H279899   6.720   3.484  13.171 -0.5095  0.4528 -0.0980
19470TIP3   OH279900   0.881   2.095  16.580  0.2668  0.1730 -0.8362
19470TIP3    H179901   0.895   2.007  16.615 -0.4211 -0.3766 -1.8896
19470TIP3    H279902   0.891   2.153  16.656  1.9055 -0.6894 -0.3383
19471TIP3   OH279903   2.033   3.708   0.169  0.4101  0.1396  0.2284
19471TIP3    H179904   1.987   3.771   0.113  0.7656  0.6077  0.4650
19471TIP3    H279905   2.120   3.744   0.180  0.6282 -0.4137  0.3409
19472TIP3   OH279906   5.972   2.391   3.997 -0.6613 -0.2831 -0.0299
19472TIP3    H179907   5.915   2.315   4.010  0.2262 -0.7567  1.3177
19472TIP3    H279908   6.040   2.381   4.064 -0.1886  1.3821 -0.2292
19473TIP3   OH279909   2.535   0.843   3.147 -0.4191  0.2305 -0.6145
19473TIP3    H179910   2.597   0.800   3.088 -0.4270 -0.1778 -0.3263
19473TIP3    H279911   2.490   0.771   3.192 -0.6527  0.5323 -0.3601
19474TIP3   OH279912   2.768   5.407  15.138  0.1250 -0.3023 -0.2470
19474TIP3    H179913   2.796   5.493  15.107 -0.3532 -0.2217 -0.4619
19474TIP3    H279914   2.743   5.421  15.229 -0.2196 -0.1488 -0.3620
19475TIP3   OH279915   4.308   0.142   1.297 -0.3946 -0.1048 -0.5138
19475TIP3    H179916   4.319   0.077   1.227 -2.3559 -0.4619 -0.5421
19475TIP3    H279917   4.260   0.214   1.255 -0.6231  0.1612  0.1960
19476TIP3   OH279918   3.588   0.067  11.498 -0.0694  0.1435 -0.6203
19476TIP3    H179919   3.653   0.049  11.430 -0.2089 -1.3255 -0.4057
19476TIP3    H279920   3.508   0.024  11.466 -0.2456 -0.2012  0.2588
19477TIP3   OH279921   0.936   5.278   0.762  0.1331  0.3230  0.0177
19477TIP3    H179922   0.903   5.197   0.801 -0.7186  0.8028  0.3025
19477TIP3    H279923   0.911   5.271   0.669  1.4957 -0.4697 -0.3186
19478TIP3   OH279924   1.543   6.844   5.743  0.7053 -0.3783  0.2293
19478TIP3    H179925   1.528   6.837   5.837 -0.5119  3.0544  0.4314
19478TIP3    H279926   1.494   6.770   5.706  1.6414 -2.1149  2.2230
19479TIP3   OH279927   1.720   1.633  13.899 -0.3089 -0.3217 -0.2225
19479TIP3    H179928   1.631   1.665  13.888 -0.1782  0.7258  1.2995
19479TIP3    H279929   1.755   1.625  13.810 -1.4131  0.7521 -0.7784
19480TIP3   OH279930   4.296   5.329   5.253 -0.0425  0.2163 -0.0137
19480TIP3    H179931   4.219   5.312   5.307  0.3352 -0.6292  0.2615
19480TIP3    H279932   4.343   5.399   5.298 -0.5614  0.6291 -0.1032
19481TIP3   OH279933   3.818   0.268  16.528  0.1379 -0.6891  0.2822
19481TIP3    H179934   3.790   0.176  16.532 -1.3687 -0.2803 -0.4484
19481TIP3    H279935   3.804   0.300  16.617 -0.3887 -0.8687  0.2667
19482TIP3   OH279936   2.918   2.166   2.099 -0.4823  0.2434 -0.4660
19482TIP3    H179937   2.846   2.103   2.099  0.5955 -1.0347 -0.6068
19482TIP3    H279938   2.924   2.196   2.008  0.1607 -0.8589 -0.8023
19483TIP3   OH279939   0.595   0.266   0.887  0.5009 -0.1072  0.1688
19483TIP3    H179940   0.589   0.226   0.974 -1.4958  0.4923  0.3634
19483TIP3    H279941   0.631   0.353   0.903 -0.5738  0.2840  0.5124
19484TIP3   OH279942   2.491   3.500  13.760 -0.0734  0.1341  0.1961
19484TIP3    H179943   2.521   3.523  13.847 -1.4580 -0.6978  0.9357
19484TIP3    H279944   2.440   3.419  13.773  2.6005 -2.0821 -1.8699
19485TIP3   OH279945   3.361   0.685   3.932  0.1113  0.5860 -0.0479
19485TIP3    H179946   3.410   0.619   3.981 -0.9927  0.2852  0.6822
19485TIP3    H279947   3.385   0.669   3.840  0.2388 -0.5198  0.1586
19486TIP3   OH279948   2.269   2.428  14.228  0.3186  0.2815  0.0579
19486TIP3    H179949   2.242   2.336  14.228  1.7380 -0.1823 -1.1383
19486TIP3    H279950   2.266   2.453  14.135  1.8525  0.8303  0.1313
19487TIP3   OH279951   2.207   1.969   0.767  0.6086 -0.5677 -0.5104
19487TIP3    H179952   2.270   1.925   0.824  0.6396  0.0341 -0.0641
19487TIP3    H279953   2.202   1.914   0.689  0.4171 -1.5229  0.1552
19488TIP3   OH279954   6.777   3.129   4.802  0.3583  0.7554  0.2198
19488TIP3    H179955   6.754   3.212   4.759 -1.0442  2.9616  4.6925
19488TIP3    H279956   6.873   3.125   4.796  0.5992  3.5152  1.0882
19489TIP3   OH279957   3.546   5.121   5.856 -0.5565 -0.5946 -0.2616
19489TIP3    H179958   3.474   5.086   5.907 -1.2753  0.8926 -0.1820
19489TIP3    H279959   3.603   5.164   5.920 -1.3981  1.1685 -0.6321
19490TIP3   OH279960   1.762   6.388   5.444 -0.2544 -0.3682  0.7522
19490TIP3    H179961   1.685   6.357   5.492  0.5191 -1.9774  1.0580
19490TIP3    H279962   1.733   6.466   5.398 -2.6649 -2.0567 -0.8078
19491TIP3   OH279963   0.424   1.922   4.917  0.3172 -0.1621  0.3030
19491TIP3    H179964   0.443   2.016   4.925 -0.0764 -0.1547  1.3530
19491TIP3    H279965   0.343   1.910   4.967  0.0969 -0.9786 -0.2438
19492TIP3   OH279966   3.237   2.259   2.679  1.3107  0.7592 -0.3751
19492TIP3    H179967   3.200   2.346   2.665  0.0301  0.5885  1.6245
19492TIP3    H279968   3.292   2.267   2.757  1.8079 -0.0553 -0.6231
19493TIP3   OH279969   2.382   4.804   0.898  0.3942 -0.4049 -0.1029
19493TIP3    H179970   2.452   4.789   0.961  0.5270 -0.9371 -0.3628
19493TIP3    H279971   2.321   4.862   0.943  0.8930 -0.1058  0.2055
19494TIP3   OH279972   3.744   0.697  16.523  0.6610  0.2118 -0.4932
19494TIP3    H179973   3.679   0.707  16.592 -0.2783  3.8291 -1.6479
19494TIP3    H279974   3.693   0.691  16.442  1.7452  0.4194 -1.2209
19495TIP3   OH279975   2.214   1.421  10.771 -0.2167 -0.2290  0.3456
19495TIP3    H179976   2.189   1.507  10.738  1.0404 -0.6165 -1.7689
19495TIP3    H279977   2.234   1.436  10.863 -0.5872  1.6144  0.1658
19496TIP3   OH279978   3.510   2.603  14.703 -0.1491  0.3948 -0.1572
19496TIP3    H179979   3.458   2.555  14.767 -0.7338  0.9218 -0.2314
19496TIP3    H279980   3.540   2.536  14.642  3.1118 -0.7045  2.3666
19497TIP3   OH279981   5.391   6.052  16.177 -0.1142  0.7528  0.6970
19497TIP3    H179982   5.456   6.019  16.239 -1.9069 -1.9184  1.3337
19497TIP3    H279983   5.367   6.138  16.211  0.9372  0.5225  2.1242
19498TIP3   OH279984   1.905   2.576   5.718 -0.0378  0.1783  0.2113
19498TIP3    H179985   1.857   2.641   5.666  1.0782  0.6820 -0.2182
19498TIP3    H279986   1.991   2.616   5.733  0.2250 -0.6653  1.0398
19499TIP3   OH279987   2.220   5.933   1.321  0.0306  0.1940 -0.3178
19499TIP3    H179988   2.197   5.941   1.414  0.4757  3.3053 -0.3851
19499TIP3    H279989   2.308   5.897   1.322  0.3061  0.8492  0.5267
19500TIP3   OH279990   0.158   5.965   5.075  0.4914  0.1916  0.4946
19500TIP3    H179991   0.196   6.051   5.061  0.9189  0.1367  1.2328
19500TIP3    H279992   0.228   5.903   5.053  1.0628  0.0979  2.3483
19501TIP3   OH279993   1.836   1.461   0.200  0.0120  0.1475 -0.2220
19501TIP3    H179994   1.817   1.433   0.290 -2.1906  0.6754 -0.4679
19501TIP3    H279995   1.886   1.389   0.162  1.3431  0.0972  1.5284
19502TIP3   OH279996   0.536   0.561  17.067  0.1937 -0.5087  0.3128
19502TIP3    H179997   0.561   0.505  16.994  2.2361  0.4496  0.2074
19502TIP3    H279998   0.483   0.630  17.027  2.8275  1.0738 -0.6971
19503TIP3   OH279999   0.446   1.153  11.870  0.0393 -0.0337 -0.9741
19503TIP3    H180000   0.409   1.090  11.933 -1.7662  1.1918 -0.7021
19503TIP3    H280001   0.476   1.226  11.925  1.2069 -0.2084 -1.3553
19504TIP3   OH280002   2.248   1.694  13.473  0.0415  0.4936  0.0998
19504TIP3    H180003   2.298   1.705  13.555 -1.0114 -2.9223  1.3741
19504TIP3    H280004   2.163   1.661  13.501 -0.6185 -0.0784 -2.3634
19505TIP3   OH280005   6.202   0.368  15.739 -0.7059 -0.2754  0.0692
19505TIP3    H180006   6.164   0.293  15.695 -2.0656  0.7576 -0.6116
19505TIP3    H280007   6.131   0.403  15.793  0.2731 -0.2072  1.3570
19506TIP3   OH280008   3.380   2.549   0.692  0.5029 -0.2767  0.5071
19506TIP3    H180009   3.407   2.639   0.709 -0.2236  0.2031 -0.7572
19506TIP3    H280010   3.285   2.549   0.705  0.6179 -1.1106  1.4803
19507TIP3   OH280011   0.141   0.499  14.091  0.1105  0.1460 -0.5339
19507TIP3    H180012   0.156   0.591  14.113 -0.9928 -0.0297  1.1391
19507TIP3    H280013   0.047   0.486  14.105  0.4634 -1.5403  0.5612
19508TIP3   OH280014   4.165   4.533  13.076 -0.1600  0.3861 -0.3507
19508TIP3    H180015   4.165   4.468  13.146  0.0762  0.5393 -0.2118
19508TIP3    H280016   4.208   4.610  13.113 -1.6149  1.1114 -0.0654
19509TIP3   OH280017   0.889   1.141  13.851 -0.8558  0.3078  0.1481
19509TIP3    H180018   0.827   1.076  13.883 -1.7039  1.4176  0.8359
19509TIP3    H280019   0.924   1.103  13.771 -0.5638 -1.4318  1.0391
19510TIP3   OH280020   2.960   4.306  15.190  0.1636 -0.0037  0.9158
19510TIP3    H180021   2.984   4.398  15.191  0.2439 -0.0185  0.3065
19510TIP3    H280022   2.965   4.280  15.098  0.8313 -0.7967  1.1627
19511TIP3   OH280023   6.088   3.910   4.297  0.1999  0.7551 -0.1615
19511TIP3    H180024   6.173   3.953   4.286  0.3219  0.5219 -0.1377
19511TIP3    H280025   6.055   3.944   4.380  0.1523  1.0455 -0.3012
19512TIP3   OH280026   4.217   1.436  17.095  0.5466 -0.6157 -0.0779
19512TIP3    H180027   4.256   1.480  17.170 -0.9095  1.4194 -0.4318
19512TIP3    H280028   4.147   1.495  17.066  0.1369 -2.0122 -2.1620
19513TIP3   OH280029   2.853   1.549  15.830  0.1455 -0.1946  0.7531
19513TIP3    H180030   2.806   1.600  15.896 -0.2303  1.2343 -0.5432
19513TIP3    H280031   2.921   1.609  15.798 -0.2080 -0.5325 -0.7033
19514TIP3   OH280032   1.273   3.138  11.420  0.1879 -0.5812  0.2257
19514TIP3    H180033   1.274   3.104  11.509 -0.2271 -1.0995  0.0411
19514TIP3    H280034   1.354   3.107  11.381  0.2931 -0.4912  0.3721
19515TIP3   OH280035   5.209   1.365  13.329 -0.1066  0.1496 -0.5347
19515TIP3    H180036   5.207   1.449  13.283 -0.6480 -1.4906 -3.7988
19515TIP3    H280037   5.140   1.371  13.395  0.7708  2.6810  0.2451
19516TIP3   OH280038   2.866   3.085   0.647  0.2714  0.2549  0.0408
19516TIP3    H180039   2.862   3.111   0.555  2.8950  0.6817 -0.0122
19516TIP3    H280040   2.954   3.049   0.659 -0.7641 -1.9361  1.8731
19517TIP3   OH280041   3.261   3.974   5.558 -0.1920  0.0221 -0.3024
19517TIP3    H180042   3.257   3.881   5.579 -0.7269  0.3756  1.3223
19517TIP3    H280043   3.192   4.014   5.612  0.4109  1.4305 -0.5241
19518TIP3   OH280044   6.329   4.980   0.371  0.2905  0.1253 -0.2333
19518TIP3    H180045   6.289   4.961   0.287  0.0566 -1.0702  0.1256
19518TIP3    H280046   6.277   4.931   0.435  0.8540  0.4850  0.5309
19519TIP3   OH280047   5.971   5.227  16.687 -0.0063 -0.6418 -0.1067
19519TIP3    H180048   5.931   5.150  16.647  0.6443 -0.8816 -0.3180
19519TIP3    H280049   5.969   5.294  16.619  0.7637 -0.9346 -0.4262
19520TIP3   OH280050   1.036   4.940  10.444  0.0746 -0.3798  0.1285
19520TIP3    H180051   1.089   4.904  10.373  0.0388 -2.6592  1.1483
19520TIP3    H280052   0.948   4.947  10.407  0.3475 -0.1392 -0.4798
19521TIP3   OH280053   2.909   3.273   5.065  0.2819  0.1037  0.3772
19521TIP3    H180054   2.966   3.235   5.132 -0.4249 -1.4299  0.1498
19521TIP3    H280055   2.820   3.263   5.100 -0.0429 -0.0665 -0.4735
19522TIP3   OH280056   0.576   2.163   5.099 -0.4017 -0.0122 -0.2370
19522TIP3    H180057   0.671   2.153   5.098 -0.4346 -0.2974 -0.6537
19522TIP3    H280058   0.550   2.136   5.187  0.1637  2.5935  0.8483
19523TIP3   OH280059   2.516   0.446  14.675  0.4419  0.3146 -0.8110
19523TIP3    H180060   2.459   0.475  14.746  1.2534  1.4215 -0.5769
19523TIP3    H280061   2.578   0.386  14.716 -0.7236 -1.1661 -1.1318
19524TIP3   OH280062   2.302   6.746  12.547 -0.1279  0.4293 -0.2356
19524TIP3    H180063   2.353   6.794  12.481 -0.8257  0.7765 -0.5358
19524TIP3    H280064   2.239   6.695  12.496 -0.3566  0.3278  0.1437
19525TIP3   OH280065   3.674   3.259   5.549 -0.1124  0.4266 -0.0696
19525TIP3    H180066   3.733   3.190   5.578 -1.6191 -0.7184  0.3941
19525TIP3    H280067   3.729   3.318   5.498  1.6962  0.1553  1.4970
19526TIP3   OH280068   5.805   5.005   5.167 -0.0791 -0.2093  0.0347
19526TIP3    H180069   5.736   4.965   5.114  0.8825  0.0648 -1.5047
19526TIP3    H280070   5.872   4.938   5.175 -0.3937 -0.3928  1.3122
19527TIP3   OH280071   2.298   2.929  16.126 -0.3273  0.3938  0.8196
19527TIP3    H180072   2.280   2.921  16.033 -1.7272 -0.2555  1.1202
19527TIP3    H280073   2.333   3.017  16.137 -1.7873  1.1114 -0.0756
19528TIP3   OH280074   5.300   3.693  11.118 -0.3887 -0.1023  0.1060
19528TIP3    H180075   5.266   3.782  11.123 -1.8848 -0.6202 -0.1742
19528TIP3    H280076   5.296   3.670  11.025 -1.1732 -0.8621  0.3091
19529TIP3   OH280077   4.191   5.649  14.334  0.1076 -0.2249 -0.3796
19529TIP3    H180078   4.159   5.717  14.274 -0.3496 -0.1355 -0.0416
19529TIP3    H280079   4.255   5.694  14.389  1.6783 -0.6430 -1.7505
19530TIP3   OH280080   0.136   0.575  16.619 -0.1935 -0.2107 -0.7026
19530TIP3    H180081   0.070   0.574  16.689 -0.6305  0.8531 -1.0770
19530TIP3    H280082   0.218   0.593  16.664 -0.2825 -0.7379 -0.3221
19531TIP3   OH280083   5.238   6.207  12.010 -0.2586 -0.6529 -0.0878
19531TIP3    H180084   5.272   6.158  12.085  1.2657 -1.4737 -1.2622
19531TIP3    H280085   5.312   6.213  11.949 -1.5178 -0.2482 -1.6519
19532TIP3   OH280086   1.636   3.093  11.085 -0.2412 -0.0111 -0.3108
19532TIP3    H180087   1.618   3.016  11.139  0.2631  0.3394  0.3656
19532TIP3    H280088   1.674   3.057  11.005 -2.3679 -0.6493 -1.1065
19533TIP3   OH280089   5.061   1.114   5.371 -0.5520  0.0907 -0.0953
19533TIP3    H180090   5.123   1.040   5.368  0.3736  0.7937  0.9115
19533TIP3    H280091   5.037   1.128   5.279  0.6511 -0.3290 -0.4985
19534TIP3   OH280092   0.740   1.872   5.073  0.7670  0.1554  0.1676
19534TIP3    H180093   0.688   1.794   5.095 -0.9465  1.2796  0.3024
19534TIP3    H280094   0.734   1.879   4.978 -0.2807  0.8904  0.2738
19535TIP3   OH280095   3.268   0.074  14.079 -0.4446 -0.3917 -0.0461
19535TIP3    H180096   3.313   0.017  14.017 -2.1773 -1.0341 -0.7768
19535TIP3    H280097   3.273   0.161  14.040  0.6602 -0.3306  0.1943
19536TIP3   OH280098   2.381   0.356   3.226 -0.1554  0.2365 -0.0080
19536TIP3    H180099   2.319   0.359   3.153 -0.7039 -1.5805  0.3353
19536TIP3    H280100   2.436   0.280   3.207 -1.3532 -1.3021  2.2394
19537TIP3   OH280101   2.977   0.056  15.767  0.5440  0.7978  0.2222
19537TIP3    H180102   2.889   0.062  15.730 -0.0784  0.0312  1.4963
19537TIP3    H280103   3.031   0.021  15.696 -0.0397  1.7996 -0.7534
19538TIP3   OH280104   6.819   5.241   4.622 -0.5843 -0.6689  0.0810
19538TIP3    H180105   6.850   5.155   4.594  3.4227  0.6010 -0.1407
19538TIP3    H280106   6.866   5.302   4.564 -0.4898  1.7175  2.4959
19539TIP3   OH280107   3.937   3.957  14.715 -0.0257  0.0676 -0.0242
19539TIP3    H180108   4.003   3.964  14.784  2.0878  0.3678 -1.9183
19539TIP3    H280109   3.895   3.873  14.731  0.5657  0.0154  1.4607
19540TIP3   OH280110   1.968   0.862  12.389 -0.4326  0.7858 -0.1397
19540TIP3    H180111   1.984   0.810  12.468  1.0361  0.9526 -0.3135
19540TIP3    H280112   1.957   0.951  12.422  2.1142  1.2061 -0.2142
19541TIP3   OH280113   6.245   4.349   1.890  0.1447  0.1679 -0.3138
19541TIP3    H180114   6.233   4.318   1.800 -1.6661  1.0903 -0.4392
19541TIP3    H280115   6.311   4.291   1.927 -0.3330 -1.3277 -1.6972
19542TIP3   OH280116   5.032   2.415  11.779 -0.6477 -0.2157  0.5645
19542TIP3    H180117   5.011   2.380  11.865 -0.6952 -0.9622  0.2561
19542TIP3    H280118   4.973   2.368  11.719  0.0007 -0.3414  0.0173
19543TIP3   OH280119   0.181   5.097   2.144  0.4997 -0.3779  0.4972
19543TIP3    H180120   0.128   5.065   2.216  1.1877  0.7306  1.5272
19543TIP3    H280121   0.253   5.034   2.138  0.0896 -0.8405  0.3214
19544TIP3   OH280122   5.104   3.213  15.324  0.4602 -0.1082 -0.0392
19544TIP3    H180123   5.022   3.174  15.292 -0.2323  0.7063  0.6798
19544TIP3    H280124   5.141   3.257  15.247  0.6463 -1.1494 -0.5645
19545TIP3   OH280125   6.540   1.044   4.168  0.5689  0.5657 -0.1270
19545TIP3    H180126   6.531   0.974   4.232  0.6232  1.4422  0.8710
19545TIP3    H280127   6.451   1.078   4.156  0.6655  0.8852  0.0461
19546TIP3   OH280128   4.001   3.961  11.820  0.2206 -0.0114  0.1808
19546TIP3    H180129   4.055   4.002  11.752  0.2994  0.1321  0.3304
19546TIP3    H280130   4.020   3.867  11.812 -0.1191 -0.0458 -0.3048
19547TIP3   OH280131   6.111   5.241   3.943 -0.2611  0.5070  0.1253
19547TIP3    H180132   6.050   5.173   3.913  2.0736 -1.0790 -1.3079
19547TIP3    H280133   6.178   5.194   3.992  0.9934  1.9050 -0.1825
19548TIP3   OH280134   4.433   3.054  11.846 -0.4817  0.1388  0.7158
19548TIP3    H180135   4.528   3.064  11.858 -0.4774  0.6544  0.2788
19548TIP3    H280136   4.400   3.143  11.845 -1.0810 -0.0553  1.6342
19549TIP3   OH280137   3.984   2.301  15.993 -0.2926 -0.7895  0.3385
19549TIP3    H180138   3.898   2.327  16.026  0.0732  2.3371 -0.8025
19549TIP3    H280139   4.044   2.367  16.029  1.0837 -0.9685 -1.4752
19550TIP3   OH280140   2.339   4.768  13.514  0.2947 -0.1372 -0.5761
19550TIP3    H180141   2.252   4.787  13.548  0.1259  0.5689 -1.3611
19550TIP3    H280142   2.345   4.818  13.432  1.6938  0.4167 -0.1796
19551TIP3   OH280143   4.283   4.717  11.855  0.1164  0.2602  0.0378
19551TIP3    H180144   4.303   4.623  11.858 -0.6243  0.1095  2.1033
19551TIP3    H280145   4.348   4.756  11.913  0.6818  1.1178 -1.1394
19552TIP3   OH280146   5.683   0.569   3.372 -0.6530  0.0420  0.3660
19552TIP3    H180147   5.743   0.635   3.338 -0.5995 -0.0949  0.1945
19552TIP3    H280148   5.729   0.486   3.359 -1.2230 -0.1445 -0.5285
19553TIP3   OH280149   0.799   2.011  12.865 -0.3246  0.7395  0.0680
19553TIP3    H180150   0.817   2.082  12.927 -0.1526  0.9449 -0.2165
19553TIP3    H280151   0.708   1.987  12.881 -0.4293  1.1283  0.0595
19554TIP3   OH280152   0.531   1.161  15.690  0.3898 -0.0555  0.0392
19554TIP3    H180153   0.603   1.120  15.643 -0.4421  1.5624 -2.9109
19554TIP3    H280154   0.573   1.208  15.761  2.1147 -0.1736 -0.8418
19555TIP3   OH280155   6.772   5.089  15.746  0.5899  0.1809 -0.3653
19555TIP3    H180156   6.710   5.155  15.716  0.6256  0.8305  0.8947
19555TIP3    H280157   6.732   5.054  15.826  1.4530  0.0173  0.0069
19556TIP3   OH280158   0.070   4.521  10.852  0.3715 -0.2368  0.3225
19556TIP3    H180159   0.122   4.467  10.912 -1.4516 -0.9908  1.3161
19556TIP3    H280160   0.067   4.471  10.771  1.0330 -0.2631  0.3067
19557TIP3   OH280161   3.942   4.197  11.167  0.0585  0.1552 -0.6082
19557TIP3    H180162   3.887   4.140  11.221  1.3630 -0.9028 -0.3536
19557TIP3    H280163   3.880   4.252  11.120 -1.1496  0.8658  1.6711
19558TIP3   OH280164   3.728   4.539  15.053 -0.1928  0.3265  0.2755
19558TIP3    H180165   3.697   4.629  15.056  0.2598  0.5156 -0.3789
19558TIP3    H280166   3.750   4.524  14.961  1.0785  0.0146  0.6071
19559TIP3   OH280167   2.694   1.130  15.263  0.7234  0.2543 -0.3322
19559TIP3    H180168   2.637   1.111  15.337 -0.5833  1.4588 -0.9695
19559TIP3    H280169   2.704   1.046  15.218  1.7790 -0.5583  1.3292
19560TIP3   OH280170   3.583   3.990   2.095  0.1780  0.2824  0.5519
19560TIP3    H180171   3.667   3.948   2.073  0.7248  0.9783  1.2393
19560TIP3    H280172   3.517   3.925   2.072  0.8633 -0.0388 -0.6009
19561TIP3   OH280173   6.154   0.690  10.795 -0.2092 -0.1302 -0.2304
19561TIP3    H180174   6.136   0.602  10.761  1.7654  0.2351 -2.5357
19561TIP3    H280175   6.221   0.677  10.862 -1.2135 -0.4940  0.7376
19562TIP3   OH280176   5.917   4.618  12.273  0.0269 -0.0472  0.4581
19562TIP3    H180177   5.924   4.703  12.316  0.8616  0.0500  0.1509
19562TIP3    H280178   5.948   4.556  12.339  0.9745  0.0663  0.1397
19563TIP3   OH280179   4.799   1.511   3.370  0.2922 -0.3088 -0.2511
19563TIP3    H180180   4.857   1.587   3.373  0.7683 -0.6421 -0.8661
19563TIP3    H280181   4.858   1.436   3.371 -0.1660 -0.6716  0.0065
19564TIP3   OH280182   5.171   5.062  13.720  0.0868  0.3136 -0.4531
19564TIP3    H180183   5.182   4.977  13.763 -0.1709  0.8010  0.5961
19564TIP3    H280184   5.127   5.041  13.637  0.2330 -0.5958 -0.3101
19565TIP3   OH280185   1.431   4.536   5.495 -0.7870 -0.4682  0.3111
19565TIP3    H180186   1.524   4.516   5.491 -0.4926  0.6347  1.1355
19565TIP3    H280187   1.410   4.534   5.588 -1.0628  1.4166  0.3316
19566TIP3   OH280188   6.677   3.095  16.405  0.4406  0.5483 -0.2160
19566TIP3    H180189   6.707   3.019  16.454 -0.9067  1.2668  1.8385
19566TIP3    H280190   6.758   3.143  16.384  1.2606 -1.1618 -1.1397
19567TIP3   OH280191   1.354   3.172   2.203 -0.0041 -0.1564  0.0065
19567TIP3    H180192   1.259   3.169   2.211 -0.0642  0.1367 -0.5742
19567TIP3    H280193   1.386   3.175   2.293 -0.5087 -1.1887  0.2262
19568TIP3   OH280194   1.163   2.314   2.710  0.0945 -0.1755 -0.9844
19568TIP3    H180195   1.237   2.277   2.758 -0.3785  1.0372  0.8305
19568TIP3    H280196   1.093   2.249   2.719 -0.2332  0.3396  0.7808
19569TIP3   OH280197   4.428   5.974   4.474  0.8914 -0.3142 -0.1462
19569TIP3    H180198   4.350   5.998   4.524  0.9361  0.1117 -0.2795
19569TIP3    H280199   4.408   6.000   4.384  1.0720 -0.4753 -0.2343
19570TIP3   OH280200   4.035   4.564  16.351  0.3344 -0.1343  0.0476
19570TIP3    H180201   3.988   4.646  16.331  0.8984  0.0476 -0.5603
19570TIP3    H280202   3.999   4.536  16.435 -2.5758 -1.2402 -1.4332
19571TIP3   OH280203   3.559   5.453   3.352 -0.2066 -0.1901  0.0626
19571TIP3    H180204   3.494   5.432   3.419 -0.1068  0.9985  0.5737
19571TIP3    H280205   3.559   5.549   3.349  1.2742 -0.1691 -0.1536
19572TIP3   OH280206   2.817   2.933   2.740 -0.1974  0.1273 -0.1316
19572TIP3    H180207   2.763   2.858   2.714  1.3169 -1.7426  1.6985
19572TIP3    H280208   2.800   2.943   2.833  2.4575 -0.4962  0.4963
19573TIP3   OH280209   5.386   0.756   3.730  0.3916  0.2235  0.2723
19573TIP3    H180210   5.305   0.707   3.749 -0.1116  0.3566 -1.4103
19573TIP3    H280211   5.453   0.711   3.781 -0.2979 -1.4244 -0.2072
19574TIP3   OH280212   4.540   3.879  14.426 -0.0131 -0.0402  0.5484
19574TIP3    H180213   4.546   3.952  14.488 -0.5396  0.5188 -0.0482
19574TIP3    H280214   4.579   3.805  14.473  2.0354  0.9748  0.5809
19575TIP3   OH280215   4.590   1.521  15.993 -0.8331  0.3167  0.5777
19575TIP3    H180216   4.577   1.504  16.086 -0.9798  0.6410  0.6199
19575TIP3    H280217   4.671   1.474  15.971 -1.4331 -0.7426  0.5870
19576TIP3   OH280218   5.940   1.424   5.622  0.3907  0.3033  0.0369
19576TIP3    H180219   5.883   1.450   5.550 -0.5530 -0.8770  0.3305
19576TIP3    H280220   6.025   1.462   5.600 -0.8184  3.6555  0.4575
19577TIP3   OH280221   2.349   4.147  13.845  0.3581  0.5391  0.4915
19577TIP3    H180222   2.376   4.066  13.887  0.2508  1.3377  2.2051
19577TIP3    H280223   2.257   4.157  13.870  0.2780  1.0277  0.0204
19578TIP3   OH280224   4.295   5.690  15.666 -0.2957  0.5428 -0.0063
19578TIP3    H180225   4.292   5.595  15.667  2.5181  0.3889 -0.1644
19578TIP3    H280226   4.230   5.715  15.600  1.1107 -1.4600 -2.3073
19579TIP3   OH280227   0.266   5.508   2.053 -0.1248  0.0690  0.2423
19579TIP3    H180228   0.333   5.449   2.087 -1.8209 -1.4737  1.0401
19579TIP3    H280229   0.193   5.451   2.030 -0.1672  1.3095 -3.4432
19580TIP3   OH280230   5.065   2.335   0.049 -0.3213 -0.2386 -0.3638
19580TIP3    H180231   5.132   2.352  -0.018  0.2176  1.5416  0.5742
19580TIP3    H280232   5.114   2.333   0.131 -1.3958  1.0759  0.3381
19581TIP3   OH280233   1.346   1.659   3.122 -0.5650  0.8414  0.0115
19581TIP3    H180234   1.424   1.607   3.142 -0.7026  0.9409  0.8425
19581TIP3    H280235   1.290   1.599   3.073  0.7922  1.3238 -2.2680
19582TIP3   OH280236   3.937   2.824   1.047  0.1105 -0.3452  0.1818
19582TIP3    H180237   3.852   2.787   1.068 -0.2005  0.3835  0.2601
19582TIP3    H280238   3.997   2.749   1.044  0.0603 -0.5869  2.9675
19583TIP3   OH280239   4.996   3.425   5.621  0.0766 -0.2957  0.0066
19583TIP3    H180240   5.083   3.427   5.662 -0.4863 -2.0140  1.4065
19583TIP3    H280241   4.979   3.516   5.596  1.6998  0.3037  0.9535
19584TIP3   OH280242   0.618   4.486   1.144 -0.7965 -0.5333 -0.4699
19584TIP3    H180243   0.616   4.399   1.103  0.5511 -0.9452  0.2734
19584TIP3    H280244   0.697   4.527   1.108 -0.4405 -0.3210  0.5316
19585TIP3   OH280245   0.621   3.324   0.499  0.1490  0.2513  0.1757
19585TIP3    H180246   0.589   3.308   0.410 -3.1639  0.4048  1.2065
19585TIP3    H280247   0.602   3.242   0.546  2.2889 -0.0011  0.6887
19586TIP3   OH280248   6.577   6.323   4.014 -0.0124 -0.1224 -0.0143
19586TIP3    H180249   6.565   6.274   4.096 -0.7652  1.6506  1.0035
19586TIP3    H280250   6.671   6.315   3.996  0.0718 -1.0058  0.7122
19587TIP3   OH280251   4.927   3.513  15.625  0.1681  0.4564 -0.1375
19587TIP3    H180252   4.999   3.529  15.565  0.2286  1.4996  0.1861
19587TIP3    H280253   4.969   3.502  15.710 -0.1063  2.9597  0.4004
19588TIP3   OH280254   3.867   0.919   0.300 -0.0253  0.0224  0.0812
19588TIP3    H180255   3.798   0.854   0.290 -0.3589  0.3078  0.5304
19588TIP3    H280256   3.912   0.919   0.216 -0.2939 -0.4807 -0.0656
19589TIP3   OH280257   1.714   0.588   0.502  0.3076 -0.4194  0.3863
19589TIP3    H180258   1.739   0.518   0.562  0.3389 -0.5279  0.2463
19589TIP3    H280259   1.756   0.565   0.420  0.1242 -0.3593  0.2760
19590TIP3   OH280260   2.785   5.395  13.117  0.0623  0.0205 -0.1871
19590TIP3    H180261   2.708   5.366  13.167 -0.1790  0.4273 -0.3145
19590TIP3    H280262   2.795   5.487  13.141 -1.5612  0.9660 -2.7111
19591TIP3   OH280263   4.987   4.202   4.787 -0.4271  0.2598 -0.1065
19591TIP3    H180264   4.958   4.254   4.712 -0.1678 -0.2547 -0.5613
19591TIP3    H280265   4.917   4.212   4.851 -1.9293 -1.4265 -1.3983
19592TIP3   OH280266   0.695   1.149   6.087 -0.2978 -0.5407  0.3670
19592TIP3    H180267   0.728   1.213   6.150  0.5062 -0.1376 -0.4331
19592TIP3    H280268   0.645   1.200   6.023  0.8859 -0.5754 -0.6371
19593TIP3   OH280269   6.265   5.487  12.408 -0.2233  0.7640  0.2595
19593TIP3    H180270   6.318   5.499  12.329  0.7041  0.2867  0.7874
19593TIP3    H280271   6.324   5.511  12.480 -0.7349  0.2555  0.8597
19594TIP3   OH280272   3.207   4.238  11.995  0.1912  0.2758  0.7507
19594TIP3    H180273   3.281   4.217  11.938  1.7037  0.7613  2.4495
19594TIP3    H280274   3.176   4.153  12.027  0.4106  0.1060  0.5138
19595TIP3   OH280275   1.876   0.799   3.070 -0.3309  0.0328  0.6722
19595TIP3    H180276   1.971   0.798   3.057 -0.2683 -0.1624  1.1439
19595TIP3    H280277   1.860   0.879   3.121 -0.5817  0.8276 -0.6226
19596TIP3   OH280278   1.399   1.198   0.795 -0.1427  0.9646 -0.2173
19596TIP3    H180279   1.453   1.147   0.735 -0.4166  1.3763 -0.8285
19596TIP3    H280280   1.461   1.251   0.845  0.1850 -0.3109  0.7771
19597TIP3   OH280281   2.701   6.616   2.146 -0.0163  0.0102 -0.4154
19597TIP3    H180282   2.774   6.587   2.200 -0.0229 -0.2491 -0.5464
19597TIP3    H280283   2.723   6.706   2.123 -1.1357  1.0030  2.0175
19598TIP3   OH280284   5.533   1.097   4.438 -0.5071 -0.5332  0.0913
19598TIP3    H180285   5.599   1.029   4.455  3.3887  2.3591 -1.8293
19598TIP3    H280286   5.517   1.091   4.344 -0.2844  0.9610 -0.0703
19599TIP3   OH280287   6.235   5.794  13.518  0.3727  0.1221 -0.1956
19599TIP3    H180288   6.319   5.840  13.512 -0.2431  1.1238 -1.8230
19599TIP3    H280289   6.192   5.835  13.593  0.5656  0.9902 -0.5342
19600TIP3   OH280290   3.358   4.580   4.528 -0.2161 -0.6048 -0.1288
19600TIP3    H180291   3.281   4.631   4.502  0.8249 -0.1173 -2.5150
19600TIP3    H280292   3.433   4.635   4.503  0.9185 -2.6678 -1.5785
19601TIP3   OH280293   0.699   0.156  13.390  0.7303  0.3188  0.6063
19601TIP3    H180294   0.676   0.109  13.310 -1.0856 -0.1445  1.3405
19601TIP3    H280295   0.664   0.244  13.376  0.1574  0.1570  0.9831
19602TIP3   OH280296   0.356   0.334   3.155  0.1962 -0.2714  0.1063
19602TIP3    H180297   0.376   0.339   3.061 -2.6437 -2.3092 -0.7274
19602TIP3    H280298   0.303   0.413   3.171  0.6386  0.0538 -0.0101
19603TIP3   OH280299   5.839   3.606  10.882 -0.1533  0.3715 -0.8320
19603TIP3    H180300   5.791   3.687  10.897 -0.9483 -0.0490 -1.0106
19603TIP3    H280301   5.864   3.609  10.790  0.9574  0.9968 -0.5206
19604TIP3   OH280302   0.552   0.492   1.523 -0.1006  0.6918 -0.3587
19604TIP3    H180303   0.501   0.476   1.602  0.7863  1.7331  0.4536
19604TIP3    H280304   0.606   0.414   1.513 -0.2657  0.5263  0.0171
19605TIP3   OH280305   6.007   3.971   4.546  0.1401 -0.0806 -0.5220
19605TIP3    H180306   6.099   3.992   4.566 -0.1627  0.9985 -0.1893
19605TIP3    H280307   5.956   4.022   4.609 -0.8511  3.4597 -3.7411
19606TIP3   OH280308   3.169   5.099  14.192  0.2514 -0.5114 -0.0453
19606TIP3    H180309   3.099   5.044  14.157  0.4943 -0.6356 -0.3329
19606TIP3    H280310   3.245   5.079  14.139  0.7322 -0.9878  0.7949
19607TIP3   OH280311   5.414   6.632   3.424 -0.3932  0.2982 -0.5783
19607TIP3    H180312   5.379   6.720   3.439 -1.5417 -0.0349 -1.1997
19607TIP3    H280313   5.337   6.576   3.420  0.3327 -0.7630 -0.1047
19608TIP3   OH280314   6.669   4.408  13.522  0.6383  0.1618 -0.0917
19608TIP3    H180315   6.746   4.424  13.576  0.6729  3.1118 -0.8381
19608TIP3    H280316   6.628   4.494  13.514 -1.2458 -0.8366 -1.9539
19609TIP3   OH280317   5.243   6.572   2.406 -0.3788  0.6066 -0.1417
19609TIP3    H180318   5.238   6.544   2.314  1.3605  1.9788 -0.7310
19609TIP3    H280319   5.294   6.504   2.449 -3.4172 -1.4468  0.5358
19610TIP3   OH280320   4.368   3.316  15.283 -0.1714  0.5715 -0.4421
19610TIP3    H180321   4.330   3.235  15.317  0.2047  0.8023  0.5786
19610TIP3    H280322   4.376   3.302  15.189 -0.3122 -0.4930 -0.3031
19611TIP3   OH280323   4.569   2.298   0.173  0.2359  0.0720  0.2216
19611TIP3    H180324   4.511   2.222   0.177  1.5859 -1.1141 -1.0561
19611TIP3    H280325   4.613   2.299   0.258 -0.6427  0.1432  0.6774
19612TIP3   OH280326   2.669   2.921   0.067  0.0624  0.1147  0.0421
19612TIP3    H180327   2.738   2.857   0.078  2.0960  1.9316 -1.3661
19612TIP3    H280328   2.624   2.923   0.152  0.7505 -2.1470  0.5311
19613TIP3   OH280329   0.623   5.856   4.811 -0.1672 -0.8783 -0.0454
19613TIP3    H180330   0.665   5.913   4.746  0.9759 -1.7699 -0.1061
19613TIP3    H280331   0.685   5.852   4.884 -0.8259 -1.0038  0.5158
19614TIP3   OH280332   5.014   4.795  12.802  0.0497  0.1237  0.1984
19614TIP3    H180333   5.017   4.890  12.791  1.5715  0.1699  0.6649
19614TIP3    H280334   5.064   4.779  12.882  0.1585 -1.0973 -0.0939
19615TIP3   OH280335   1.959   6.614  15.512  0.6462  0.1814  0.2096
19615TIP3    H180336   2.018   6.668  15.564 -0.3957  0.0772  1.5633
19615TIP3    H280337   1.919   6.555  15.575 -0.2449 -0.3412 -0.8147
19616TIP3   OH280338   1.677   4.878  12.450  0.1399 -0.6035 -0.3971
19616TIP3    H180339   1.648   4.969  12.457 -0.2121 -0.6720 -0.8672
19616TIP3    H280340   1.605   4.834  12.404  1.0048 -0.7712 -1.6434
19617TIP3   OH280341   6.372   5.225   0.440  0.0136  0.0649  0.0883
19617TIP3    H180342   6.375   5.130   0.430  1.2482  0.1706 -0.7830
19617TIP3    H280343   6.294   5.251   0.390 -1.2704 -0.6008  1.6662
19618TIP3   OH280344   2.488   0.612   3.290 -0.0843 -0.0944  0.6146
19618TIP3    H180345   2.435   0.536   3.267 -0.9077  0.6392  0.0371
19618TIP3    H280346   2.488   0.614   3.385 -0.6557 -0.3994  0.6212
19619TIP3   OH280347   1.969   2.264   4.107 -0.2967  0.3880  0.0962
19619TIP3    H180348   1.984   2.209   4.030  2.9260 -1.5302  1.8930
19619TIP3    H280349   1.962   2.353   4.071 -0.0824 -0.5369 -2.4615
19620TIP3   OH280350   6.690   2.546   5.648 -0.5818  0.2386  0.3369
19620TIP3    H180351   6.752   2.618   5.661 -2.6706  2.1273  0.4760
19620TIP3    H280352   6.660   2.523   5.736 -2.0645  1.2378  0.1195
19621TIP3   OH280353   5.286   5.240  15.855  0.1482 -0.0594 -0.1809
19621TIP3    H180354   5.320   5.255  15.943 -0.2626  0.4430 -0.1068
19621TIP3    H280355   5.283   5.326  15.815 -0.5117 -0.1702 -0.3797
19622TIP3   OH280356   2.874   2.156   1.824 -0.4839 -0.5308 -0.3774
19622TIP3    H180357   2.877   2.068   1.787 -0.8326 -0.9989  0.6878
19622TIP3    H280358   2.803   2.199   1.776 -0.1189 -0.7256 -1.1024
19623TIP3   OH280359   4.561   4.485   6.581  0.1665  0.1922 -0.0451
19623TIP3    H180360   4.648   4.486   6.622  0.1256  0.2314  0.0401
19623TIP3    H280361   4.559   4.566   6.529 -0.3142  0.8777  0.9928
19624TIP3   OH280362   2.886   6.032   3.661 -0.0265  0.1864 -0.1804
19624TIP3    H180363   2.907   6.068   3.575  0.6381 -0.8723 -0.4783
19624TIP3    H280364   2.841   6.104   3.706  0.0979  0.9396 -1.2060
19625TIP3   OH280365   0.536   0.838   0.153  0.0176 -0.5465 -0.0178
19625TIP3    H180366   0.485   0.837   0.072 -0.7402  0.6784  0.4259
19625TIP3    H280367   0.540   0.930   0.178  0.0888 -0.9298  1.4421
19626TIP3   OH280368   3.800   1.144  14.227 -0.4079  0.4493 -0.0462
19626TIP3    H180369   3.822   1.216  14.168  1.9967 -0.0776  0.1409
19626TIP3    H280370   3.802   1.066  14.171 -1.0080  0.2631  0.1783
19627TIP3   OH280371   0.092   1.645   3.502 -0.3212  0.0874  0.5374
19627TIP3    H180372   0.004   1.608   3.497 -0.2747 -0.0623  0.7789
19627TIP3    H280373   0.136   1.615   3.423 -0.4937  0.1823  0.4043
19628TIP3   OH280374   2.791   3.173  17.140 -0.0810  0.3097 -0.0524
19628TIP3    H180375   2.707   3.207  17.169 -0.7681 -0.9879 -0.4830
19628TIP3    H280376   2.784   3.078  17.151  1.3990  0.1934  0.0869
19629TIP3   OH280377   4.042   1.235  11.607  0.3034 -0.2344 -0.2170
19629TIP3    H180378   4.006   1.219  11.519 -0.5648 -0.3467  0.1516
19629TIP3    H280379   4.094   1.156  11.626 -0.0954 -0.5270 -0.3367
19630TIP3   OH280380   3.239   4.111  11.166 -0.1994  0.0843  0.0543
19630TIP3    H180381   3.299   4.185  11.155  0.3661 -0.3052  0.4073
19630TIP3    H280382   3.152   4.149  11.164  0.1024  0.9249  1.3380
19631TIP3   OH280383   0.100   6.484   4.984 -0.2902  0.2172 -0.2247
19631TIP3    H180384   0.117   6.561   5.038  1.1675  1.1062 -1.8586
19631TIP3    H280385   0.038   6.515   4.917 -0.4630 -0.3048 -0.3142
19632TIP3   OH280386   6.436   2.317  14.682  0.0524 -0.9309 -0.1407
19632TIP3    H180387   6.485   2.321  14.765 -1.1349 -0.5322  0.5716
19632TIP3    H280388   6.370   2.249  14.697 -1.4076  0.4510 -0.0231
19633TIP3   OH280389   2.433   4.845  15.964  0.3174 -0.1891  0.1303
19633TIP3    H180390   2.355   4.801  15.933  0.2488  0.2122 -0.2798
19633TIP3    H280391   2.402   4.931  15.994  0.7123  0.3174 -0.8545
19634TIP3   OH280392   1.542   2.859  12.374 -0.2338  0.0343  0.6632
19634TIP3    H180393   1.548   2.796  12.302 -0.5472  0.4692  0.2534
19634TIP3    H280394   1.450   2.887  12.374  0.0114  0.8645  0.5221
19635TIP3   OH280395   2.060   0.929   4.505  0.0796 -0.4112  0.7947
19635TIP3    H180396   1.971   0.962   4.520 -0.2707 -0.9563 -0.0289
19635TIP3    H280397   2.072   0.861   4.571  0.1801  0.1882  1.4069
19636TIP3   OH280398   1.509   2.841  12.071 -0.9631  0.7709  0.1657
19636TIP3    H180399   1.416   2.838  12.049 -0.8528 -0.2060 -0.2206
19636TIP3    H280400   1.551   2.880  11.994 -0.8459 -0.5466 -0.4669
19637TIP3   OH280401   3.831   4.865  14.792  0.0067  0.1482 -0.5556
19637TIP3    H180402   3.803   4.841  14.704 -0.1967 -1.0161 -0.1876
19637TIP3    H280403   3.922   4.834  14.798 -0.1318 -0.1999 -0.2062
19638TIP3   OH280404   3.958   6.555   4.435  0.0197  0.8711  0.5143
19638TIP3    H180405   3.876   6.550   4.483  0.5784 -0.6154  1.3768
19638TIP3    H280406   3.972   6.649   4.422 -1.2857  1.1965  1.2468
19639TIP3   OH280407   2.396   5.134   4.349  0.0654  0.0607  0.1248
19639TIP3    H180408   2.458   5.085   4.296  0.7913  0.1988  0.8206
19639TIP3    H280409   2.314   5.085   4.344 -0.1613  0.5522 -1.8486
19640TIP3   OH280410   0.122   3.200  11.506 -0.2446 -0.2893 -0.3830
19640TIP3    H180411   0.153   3.271  11.563 -0.6483 -0.9254  0.6647
19640TIP3    H280412   0.091   3.244  11.427 -0.9109  0.7500  0.4282
19641TIP3   OH280413   1.375   2.180   2.812  0.1170  0.3221  0.2580
19641TIP3    H180414   1.459   2.212   2.845  1.0178 -0.2429 -1.3700
19641TIP3    H280415   1.399   2.119   2.742 -1.6610  0.3107 -0.3796
19642TIP3   OH280416   2.234   3.035   2.093 -0.0755 -0.5799 -0.5236
19642TIP3    H180417   2.228   2.944   2.063  0.1932 -0.6003 -0.5198
19642TIP3    H280418   2.303   3.033   2.160 -0.0098 -0.3574 -0.5854
19643TIP3   OH280419   5.311   5.051   6.154  0.5300 -0.3444  0.2222
19643TIP3    H180420   5.295   4.975   6.210  0.5447 -0.1459  0.4972
19643TIP3    H280421   5.395   5.032   6.112 -0.7754 -1.8003 -1.8994
19644TIP3   OH280422   5.437   2.763   3.294  0.2155  0.2039  0.6045
19644TIP3    H180423   5.506   2.754   3.360 -0.1857  1.4936  1.2346
19644TIP3    H280424   5.454   2.847   3.252 -0.4007  0.0772  0.0857
19645TIP3   OH280425   2.538   4.802  15.659  0.7705  0.2480 -0.0722
19645TIP3    H180426   2.521   4.836  15.747  0.2831  0.1997 -0.1446
19645TIP3    H280427   2.520   4.708  15.667  0.1917  0.3302 -0.3535
19646TIP3   OH280428   0.895   6.405  11.632  0.0300  0.1161 -0.2011
19646TIP3    H180429   0.811   6.427  11.673  0.1552 -1.2134  0.8225
19646TIP3    H280430   0.960   6.456  11.680 -0.0737  0.3314 -0.2893
19647TIP3   OH280431   0.078   3.600  11.426  0.4196 -0.0142 -0.4781
19647TIP3    H180432   0.045   3.562  11.344  0.1139 -0.6417 -0.0656
19647TIP3    H280433   0.148   3.542  11.453  2.1473  1.4655 -1.5014
19648TIP3   OH280434   5.381   4.485   2.444 -0.4922 -0.6950  0.2294
19648TIP3    H180435   5.426   4.401   2.458  2.9481  1.2243  2.1225
19648TIP3    H280436   5.373   4.522   2.532  2.7270  2.9910 -0.7529
19649TIP3   OH280437   4.130   1.115   5.148  0.2177 -0.5233  0.2182
19649TIP3    H180438   4.175   1.081   5.071  1.4059 -1.2810  1.2139
19649TIP3    H280439   4.153   1.054   5.218  0.6227  1.1221  1.5882
19650TIP3   OH280440   5.777   2.749  16.293 -0.4736  0.5339  0.0735
19650TIP3    H180441   5.849   2.739  16.230  0.6919  2.4568  0.9933
19650TIP3    H280442   5.743   2.661  16.305  1.5967 -0.4228 -0.5671
19651TIP3   OH280443   3.353   5.112   3.998  0.2105 -0.0684  0.5637
19651TIP3    H180444   3.416   5.152   4.058  0.2939  0.9697 -0.1934
19651TIP3    H280445   3.404   5.043   3.953  0.3632 -0.3037  1.0827
19652TIP3   OH280446   3.152   2.928   3.816 -0.1623  0.7060  0.3492
19652TIP3    H180447   3.091   2.881   3.873 -1.6040 -1.2208 -2.5281
19652TIP3    H280448   3.143   3.020   3.841  0.3399 -0.0954  4.0190
19653TIP3   OH280449   2.023   0.514  13.133 -0.5718  0.5170 -0.1584
19653TIP3    H180450   1.982   0.440  13.179 -0.3992  0.5971  0.1284
19653TIP3    H280451   2.110   0.522  13.173 -1.2839  2.1049  1.2102
19654TIP3   OH280452   2.887   4.803   1.982 -0.1240 -0.3935 -0.1364
19654TIP3    H180453   2.904   4.897   1.983 -0.6218 -0.3043  0.5274
19654TIP3    H280454   2.934   4.771   1.905  1.3346  0.1401  0.4946
19655TIP3   OH280455   1.042   2.159   3.235 -0.2389  0.0176 -0.4369
19655TIP3    H180456   0.978   2.168   3.166 -0.7836  0.5901  0.1348
19655TIP3    H280457   1.105   2.230   3.220  0.2146 -0.4745 -0.9295
19656TIP3   OH280458   1.766   1.722  16.017 -0.2025  0.2487  0.2534
19656TIP3    H180459   1.774   1.662  15.943 -0.2230  0.6854 -0.1118
19656TIP3    H280460   1.675   1.751  16.015 -0.6629 -1.0390  1.4872
19657TIP3   OH280461   3.871   4.611   6.463  0.3449  0.1924 -0.3541
19657TIP3    H180462   3.841   4.546   6.399  2.5655 -0.7401 -0.5311
19657TIP3    H280463   3.810   4.602   6.536 -0.3730 -0.9198 -1.0548
19658TIP3   OH280464   6.288   3.095   5.212  0.6954 -0.8476  0.3468
19658TIP3    H180465   6.340   3.015   5.223  0.8877 -0.5710  1.5617
19658TIP3    H280466   6.218   3.087   5.276  0.4694 -0.2374  0.1781
19659TIP3   OH280467   3.045   3.395  15.294  0.0364 -0.2108 -0.1790
19659TIP3    H180468   3.093   3.358  15.220 -0.4119 -0.7517 -0.2142
19659TIP3    H280469   3.081   3.482  15.306  0.3854 -0.2685 -0.7852
19660TIP3   OH280470   4.050   2.294   1.776  0.4649 -0.3329 -0.1746
19660TIP3    H180471   4.102   2.246   1.711  0.3433 -0.2188 -0.3594
19660TIP3    H280472   4.017   2.370   1.728  0.2124 -0.3505 -0.0310
19661TIP3   OH280473   2.245   0.764   2.625 -0.0891 -0.7524  0.4360
19661TIP3    H180474   2.157   0.801   2.615 -0.5355 -2.2321 -2.0409
19661TIP3    H280475   2.295   0.803   2.553  0.6071 -1.6592  0.4142
19662TIP3   OH280476   1.953   3.416  12.046  0.0777 -0.0426  0.0937
19662TIP3    H180477   2.028   3.476  12.046 -0.5460  0.7788  1.6580
19662TIP3    H280478   1.877   3.474  12.048 -0.6254 -0.8715 -1.4268
19663TIP3   OH280479   3.700   1.515  15.548  0.0746 -0.1994  0.4965
19663TIP3    H180480   3.686   1.595  15.599 -0.7249  0.3697 -0.5669
19663TIP3    H280481   3.741   1.546  15.466 -1.2983 -0.7107 -0.4124
19664TIP3   OH280482   4.236   5.161  12.029 -0.0596 -0.1934  0.0503
19664TIP3    H180483   4.295   5.130  11.959 -0.8831 -0.5914 -0.4861
19664TIP3    H280484   4.275   5.244  12.058  0.9618 -0.6262 -0.0341
19665TIP3   OH280485   5.633   0.807  16.477 -0.0039 -0.5750 -0.1657
19665TIP3    H180486   5.664   0.744  16.412 -1.3940 -1.7518  0.2602
19665TIP3    H280487   5.589   0.875  16.426 -1.6919 -1.8407 -0.4806
19666TIP3   OH280488   6.770   2.758  15.719 -0.4147 -0.0906  0.1512
19666TIP3    H180489   6.784   2.802  15.803  0.9301  1.8507 -1.0213
19666TIP3    H280490   6.678   2.733  15.721 -0.8032  1.2428  1.6143
19667TIP3   OH280491   1.479   5.217   2.660 -0.1322 -0.3684 -0.3748
19667TIP3    H180492   1.542   5.279   2.695 -0.2784 -0.5432  0.1974
19667TIP3    H280493   1.394   5.253   2.685 -0.1995 -1.1838  0.6249
19668TIP3   OH280494   0.140   2.698   1.706 -0.5092  0.2752 -0.1568
19668TIP3    H180495   0.057   2.745   1.701  0.5458  2.1426 -1.3238
19668TIP3    H280496   0.205   2.767   1.723  1.0826 -0.7775 -1.7071
19669TIP3   OH280497   3.311   5.547  14.712  0.0740 -0.3408 -0.7772
19669TIP3    H180498   3.233   5.535  14.768  0.1372 -2.3491 -1.0387
19669TIP3    H280499   3.352   5.461  14.711  2.4139  0.7053 -0.5415
19670TIP3   OH280500   5.133   1.562  14.904 -0.0643 -0.1983  0.2868
19670TIP3    H180501   5.047   1.521  14.899  0.5347 -1.3383 -1.1781
19670TIP3    H280502   5.178   1.515  14.974 -1.4691  2.2261  3.0920
19671TIP3   OH280503   2.278   2.228  11.136  0.2990  0.0523  0.5050
19671TIP3    H180504   2.298   2.166  11.206 -2.6761 -2.8145 -0.9331
19671TIP3    H280505   2.295   2.180  11.056 -0.6804  1.6382 -0.7158
19672TIP3   OH280506   1.465   1.230   4.450 -0.6843  0.1466 -0.6836
19672TIP3    H180507   1.446   1.138   4.431  0.9894 -0.0366 -1.6086
19672TIP3    H280508   1.475   1.233   4.546  2.9795 -1.4828 -0.8569
19673TIP3   OH280509   2.877   5.806  11.727  0.2914 -0.4521  0.3503
19673TIP3    H180510   2.800   5.852  11.759  0.2602 -0.5808  0.4633
19673TIP3    H280511   2.950   5.864  11.748  0.4361 -1.1536  1.9681
19674TIP3   OH280512   0.376   1.810   2.615 -0.1136  0.0230  0.2396
19674TIP3    H180513   0.396   1.763   2.535 -0.4933 -1.0117  0.7311
19674TIP3    H280514   0.287   1.844   2.602 -1.0883 -2.0337  1.0275
19675TIP3   OH280515   0.769   1.995  12.170 -0.1450  0.2054  0.1373
19675TIP3    H180516   0.812   1.917  12.135  2.4623  1.2880  0.7337
19675TIP3    H280517   0.738   1.968  12.257  1.0686 -0.0939  0.4962
19676TIP3   OH280518   0.585   6.687   1.396 -0.4503 -1.0308  0.0404
19676TIP3    H180519   0.604   6.675   1.489  1.9492 -0.7990 -0.3756
19676TIP3    H280520   0.596   6.601   1.357 -0.7834 -0.9869 -0.1598
19677TIP3   OH280521   2.415   5.038   5.671  0.4169 -0.5899 -0.0382
19677TIP3    H180522   2.448   5.084   5.594 -0.5524  0.2357  0.0264
19677TIP3    H280523   2.405   5.105   5.738  0.5100 -1.1694  0.5753
19678TIP3   OH280524   6.134   4.646   2.131 -0.3093  0.0297  0.2486
19678TIP3    H180525   6.140   4.726   2.078 -0.5054 -0.5627 -0.6929
19678TIP3    H280526   6.079   4.587   2.079  1.2292 -1.3463  0.1081
19679TIP3   OH280527   2.970   2.193   4.034 -0.2045  0.3285 -0.6582
19679TIP3    H180528   2.921   2.120   4.073 -1.2670 -0.0692 -2.5980
19679TIP3    H280529   3.011   2.236   4.108  0.0573 -1.9416  0.6137
19680TIP3   OH280530   2.712   3.566  12.078  0.2656 -0.2722 -0.1968
19680TIP3    H180531   2.715   3.508  12.154 -0.0750  0.9552  0.7624
19680TIP3    H280532   2.628   3.545  12.036 -0.0245 -0.2191  0.3509
19681TIP3   OH280533   0.162   3.597   3.634  0.4194 -0.4848  0.3046
19681TIP3    H180534   0.153   3.617   3.540 -1.0904 -2.2231  0.0445
19681TIP3    H280535   0.147   3.681   3.677 -1.4769 -0.1238 -0.9220
19682TIP3   OH280536   0.738   2.858   2.897 -0.0964  0.5515  0.2447
19682TIP3    H180537   0.708   2.942   2.863 -3.0495 -0.7066 -0.5377
19682TIP3    H280538   0.789   2.820   2.825  0.9687  1.4791  0.4809
19683TIP3   OH280539   5.790   4.736  13.341  0.1881 -0.1073  0.5471
19683TIP3    H180540   5.788   4.726  13.436 -0.3851  0.4386  0.5991
19683TIP3    H280541   5.802   4.647  13.308 -3.4119 -0.9561  1.0545
19684TIP3   OH280542   0.405   5.466  16.073 -0.1666 -0.2146 -0.0799
19684TIP3    H180543   0.397   5.387  16.019  1.1276  0.8827 -2.0162
19684TIP3    H280544   0.321   5.509  16.065  0.4646  0.7398 -2.7113
19685TIP3   OH280545   2.375   2.055  14.846  0.0987  0.7268  0.0710
19685TIP3    H180546   2.361   2.110  14.769 -0.2191 -1.3995 -1.4722
19685TIP3    H280547   2.470   2.042  14.848  0.1085  0.7922  0.0578
19686TIP3   OH280548   0.832   2.102  15.910 -0.0901 -0.1718 -0.1173
19686TIP3    H180549   0.847   2.194  15.889  0.6470  0.3996  2.5223
19686TIP3    H280550   0.819   2.060  15.825  0.9796  2.1015 -1.5094
19687TIP3   OH280551   6.721   4.618   5.374  0.3073 -0.1239 -0.5751
19687TIP3    H180552   6.685   4.628   5.286 -0.8564  1.6074  0.0395
19687TIP3    H280553   6.812   4.644   5.367  0.0291  0.7374 -1.1476
19688TIP3   OH280554   2.417   2.991   6.417 -0.9261  0.1393  0.0985
19688TIP3    H180555   2.381   2.981   6.505  0.9984  1.5184  1.1251
19688TIP3    H280556   2.475   2.915   6.406 -0.2520  0.5724  0.5444
19689TIP3   OH280557   1.624   4.321   2.886  0.2307 -0.3619 -0.0251
19689TIP3    H180558   1.576   4.354   2.810  0.6831 -0.3006 -0.2872
19689TIP3    H280559   1.557   4.306   2.952 -0.0044  1.0532  0.0979
19690TIP3   OH280560   4.874   5.475  17.015 -0.3311  0.4360  0.1154
19690TIP3    H180561   4.898   5.567  17.002 -1.9673  0.7912 -0.6422
19690TIP3    H280562   4.870   5.465  17.110  1.3148  0.7241  0.2419
19691TIP3   OH280563   1.960   3.146  11.775  0.0192 -0.1995  0.2163
19691TIP3    H180564   1.885   3.199  11.801 -0.3682 -0.5076 -0.2613
19691TIP3    H280565   1.956   3.069  11.832  0.2028 -0.0317  0.4589
19692TIP3   OH280566   5.820   2.250  14.512 -0.2186  0.3441  0.9444
19692TIP3    H180567   5.788   2.280  14.426  0.6837  0.6627  0.7033
19692TIP3    H280568   5.761   2.178  14.535 -0.2674  0.0177 -0.1098
19693TIP3   OH280569   6.097   1.368  16.206 -0.0730 -0.1918  0.6443
19693TIP3    H180570   6.101   1.281  16.245  0.2282 -0.8763 -0.8633
19693TIP3    H280571   6.010   1.373  16.167 -0.2387  0.3430  1.0752
19694TIP3   OH280572   5.040   3.506   1.510  0.7842 -0.6138  0.2188
19694TIP3    H180573   5.060   3.494   1.603  0.7453  1.7741  0.5870
19694TIP3    H280574   5.112   3.558   1.476  0.7382 -1.3680 -1.1005
19695TIP3   OH280575   3.874   2.814   2.047 -0.2917  0.5320  0.1863
19695TIP3    H180576   3.897   2.733   2.001  0.8756  0.1744  1.3174
19695TIP3    H280577   3.829   2.784   2.126 -0.9561  1.0556  0.0093
19696TIP3   OH280578   0.737   0.617  12.750 -0.6407 -0.1233  0.5443
19696TIP3    H180579   0.718   0.612  12.844 -0.4241  1.7268  0.7234
19696TIP3    H280580   0.745   0.711  12.732 -0.7543 -0.4363 -1.3466
19697TIP3   OH280581   6.763   3.485   5.914 -0.5375 -0.1644 -0.0740
19697TIP3    H180582   6.727   3.571   5.935  0.0147  0.0234  0.1347
19697TIP3    H280583   6.838   3.476   5.972 -0.9482 -1.0526  0.3293
19698TIP3   OH280584   5.057   3.422  15.853 -0.3160  0.0007  0.0959
19698TIP3    H180585   5.140   3.407  15.808  0.6022  3.1084  0.5426
19698TIP3    H280586   5.082   3.463  15.936 -2.1374 -2.5460  2.0836
19699TIP3   OH280587   0.969   5.572   3.818  0.0664  0.2928 -0.2540
19699TIP3    H180588   1.030   5.553   3.746 -1.2116  0.0299 -1.2942
19699TIP3    H280589   0.895   5.514   3.803  1.0900 -2.1920  3.1149
19700TIP3   OH280590   0.551   5.442  15.639 -0.2866  0.0942 -0.4672
19700TIP3    H180591   0.514   5.366  15.596 -2.5388  0.1290  1.2098
19700TIP3    H280592   0.626   5.467  15.585  0.7895 -3.4696 -0.8859
19701TIP3   OH280593   0.086   0.388   1.510  0.0394  0.3048 -0.1323
19701TIP3    H180594   0.079   0.453   1.440  1.9025  0.9514  0.2087
19701TIP3    H280595   0.181   0.377   1.522 -0.2470 -1.3621  0.8557
19702TIP3   OH280596   3.958   3.178   4.080 -0.1952  0.1619 -0.5434
19702TIP3    H180597   3.902   3.224   4.142 -0.4453 -0.6469 -0.1575
19702TIP3    H280598   3.996   3.248   4.026 -1.3714  0.7472 -0.6504
19703TIP3   OH280599   3.882   6.386   0.701  0.2824  0.2416 -0.0554
19703TIP3    H180600   3.846   6.306   0.740  0.9571  0.1063  0.3046
19703TIP3    H280601   3.976   6.368   0.692  0.2647  0.5637 -1.0403
19704TIP3   OH280602   5.589   0.812   2.054 -1.0083  0.1977  0.0594
19704TIP3    H180603   5.497   0.810   2.077 -1.0593  2.6931  0.2992
19704TIP3    H280604   5.595   0.878   1.984  0.7295  1.0113  0.9068
19705TIP3   OH280605   3.290   2.889  10.684 -0.3749 -0.0558  0.4973
19705TIP3    H180606   3.241   2.959  10.640 -2.0852 -0.7843  1.1547
19705TIP3    H280607   3.232   2.861  10.755  0.3994 -1.9623  0.4128
19706TIP3   OH280608   6.347   4.601   1.832 -0.4416 -0.2089 -0.0934
19706TIP3    H180609   6.325   4.509   1.848 -1.3910  0.2261  1.3632
19706TIP3    H280610   6.381   4.632   1.916 -0.7933  0.9491 -0.3616
19707TIP3   OH280611   5.914   0.856   5.135 -0.2394 -0.3380  0.2330
19707TIP3    H180612   5.846   0.798   5.102 -0.3911  0.0944 -0.2208
19707TIP3    H280613   5.931   0.917   5.064  0.6539 -0.4578  0.3257
19708TIP3   OH280614   6.079   3.922   1.896  0.3210  0.1571  0.4021
19708TIP3    H180615   6.009   3.985   1.916  0.6111  0.4009  0.6650
19708TIP3    H280616   6.042   3.866   1.828  0.1947  0.8684 -0.1277
19709TIP3   OH280617   1.396   2.299   5.759  0.3737 -0.1573 -0.2295
19709TIP3    H180618   1.432   2.239   5.824  0.5330 -0.4470 -0.5824
19709TIP3    H280619   1.352   2.367   5.811  0.7949 -0.1974  0.1879
19710TIP3   OH280620   1.049   0.728  12.464 -0.3320 -0.1352 -0.0984
19710TIP3    H180621   0.978   0.664  12.460 -0.4182  0.0296 -2.2361
19710TIP3    H280622   1.102   0.709  12.386  1.7303  0.0315  1.1973
19711TIP3   OH280623   3.777   5.908   2.648 -0.3420 -0.3098 -0.7240
19711TIP3    H180624   3.712   5.839   2.632 -0.0268 -0.7902  0.0281
19711TIP3    H280625   3.859   5.861   2.662 -0.3793  0.1062  1.1890
19712TIP3   OH280626   1.420   3.296  14.632  0.1480 -0.0865  0.2417
19712TIP3    H180627   1.345   3.292  14.572 -0.4227  1.5374  0.7638
19712TIP3    H280628   1.445   3.205  14.646 -0.4809 -0.5618 -1.4884
19713TIP3   OH280629   1.695   6.492   2.538  0.2903 -0.4690 -0.7974
19713TIP3    H180630   1.647   6.441   2.473  0.3004  1.7656 -2.7099
19713TIP3    H280631   1.667   6.583   2.522 -0.6492  0.1256  3.1733
19714TIP3   OH280632   3.986   1.433   1.324  0.1234  0.2181 -0.2678
19714TIP3    H180633   3.921   1.390   1.268 -1.1614  1.2878  0.3251
19714TIP3    H280634   3.998   1.519   1.284  0.2996  0.4496  0.2751
19715TIP3   OH280635   4.799   2.206   0.626 -0.1326  0.4389  0.2309
19715TIP3    H180636   4.759   2.173   0.706 -1.3221 -0.5547 -0.7253
19715TIP3    H280637   4.785   2.136   0.562 -0.8115  1.9103 -1.3127
19716TIP3   OH280638   0.862   1.037  10.943 -0.6091 -0.2424  0.1920
19716TIP3    H180639   0.932   0.974  10.956 -2.2936 -1.6887  3.5218
19716TIP3    H280640   0.822   1.013  10.860  1.3904 -0.8111 -0.6472
19717TIP3   OH280641   0.766   1.780   3.206 -0.7810 -0.3581 -0.0236
19717TIP3    H180642   0.850   1.776   3.160 -0.8208  1.5664 -0.3384
19717TIP3    H280643   0.769   1.708   3.268  1.5407  0.2436  0.6555
19718TIP3   OH280644   6.456   0.679   2.814  0.6778  0.2230 -0.0197
19718TIP3    H180645   6.446   0.773   2.824  0.5267  0.1247  0.8731
19718TIP3    H280646   6.372   0.648   2.781  0.9165  0.4666 -0.8690
19719TIP3   OH280647   1.474   2.516  11.693  0.1942 -0.0025 -0.2574
19719TIP3    H180648   1.441   2.431  11.664 -0.6723  0.1201  0.3274
19719TIP3    H280649   1.466   2.514  11.788  0.1484  0.7415 -0.2410
19720TIP3   OH280650   5.543   0.729   5.648  0.5244 -0.2560  0.2606
19720TIP3    H180651   5.470   0.779   5.611  1.9874  0.3772 -1.9919
19720TIP3    H280652   5.548   0.650   5.594  2.6216  0.6123 -0.9713
19721TIP3   OH280653   4.165   3.399  13.865 -0.0255 -0.3989  0.1622
19721TIP3    H180654   4.196   3.483  13.833 -2.1203  0.6575  0.6860
19721TIP3    H280655   4.097   3.373  13.803 -0.1200 -1.1850  0.5777
19722TIP3   OH280656   2.858   6.149  12.059  0.0393 -0.3699  0.2057
19722TIP3    H180657   2.923   6.196  12.111 -0.4032  1.6579 -0.9568
19722TIP3    H280658   2.811   6.218  12.012 -1.4317 -1.9349 -0.7219
19723TIP3   OH280659   4.505   4.207  11.120 -0.5127 -0.0390  0.5817
19723TIP3    H180660   4.493   4.301  11.106 -3.8079 -0.4861 -0.5247
19723TIP3    H280661   4.570   4.181  11.054 -2.6138  0.8827 -2.0335
19724TIP3   OH280662   4.789   0.293   4.819  0.0243  0.1909 -0.1885
19724TIP3    H180663   4.834   0.222   4.864 -0.0717 -0.4760 -1.1062
19724TIP3    H280664   4.810   0.279   4.726 -3.6933 -1.4724 -0.9984
19725TIP3   OH280665   4.984   4.990  11.062 -0.0022  0.3571 -0.1793
19725TIP3    H180666   4.925   5.051  11.017 -0.5846  0.2724  0.4732
19725TIP3    H280667   4.929   4.942  11.123  0.2172 -1.7021 -1.5169
19726TIP3   OH280668   3.446   4.967  15.081  0.0892  0.4060  0.3897
19726TIP3    H180669   3.527   4.929  15.048 -0.7316 -0.5221 -0.6065
19726TIP3    H280670   3.438   4.935  15.171  0.3653 -0.2231  0.1875
19727TIP3   OH280671   0.276   2.381  11.939 -0.2857  0.3472  0.1641
19727TIP3    H180672   0.239   2.404  11.854  0.0348 -0.8503 -0.3110
19727TIP3    H280673   0.353   2.328  11.919 -0.3175 -0.1157  1.2025
19728TIP3   OH280674   1.352   4.979   5.315 -1.3487  0.3212 -0.4801
19728TIP3    H180675   1.317   5.020   5.235 -1.1986  0.8245 -0.2894
19728TIP3    H280676   1.365   5.052   5.376  1.0220  0.3260 -0.8967
19729TIP3   OH280677   6.330   6.661  14.902 -0.0057 -0.2241  0.3069
19729TIP3    H180678   6.246   6.653  14.857 -0.3773 -0.0962  0.9518
19729TIP3    H280679   6.351   6.572  14.928  0.0234 -0.2473  0.2023
19730TIP3   OH280680   0.555   5.142   1.788 -0.1271  0.3514  0.0741
19730TIP3    H180681   0.532   5.164   1.698  0.1822  1.9433  0.3447
19730TIP3    H280682   0.607   5.062   1.781  2.2335  1.8725 -1.4890
19731TIP3   OH280683   5.668   3.963  11.930 -0.2701  0.0819 -0.1622
19731TIP3    H180684   5.756   3.924  11.936 -0.6491 -0.6082  2.7192
19731TIP3    H280685   5.670   4.036  11.993 -2.2634 -1.1775  1.4919
19732TIP3   OH280686   3.583   3.795  11.915  0.7516 -0.6423  0.2081
19732TIP3    H180687   3.597   3.710  11.957  0.5496 -1.0600 -0.5458
19732TIP3    H280688   3.557   3.773  11.826  0.9051  0.2210 -0.0560
19733TIP3   OH280689   6.764   6.423  11.361 -0.1851  0.4499  0.0672
19733TIP3    H180690   6.834   6.488  11.366  1.0515 -0.8451  0.2569
19733TIP3    H280691   6.741   6.405  11.452 -1.6163  1.6885  0.0010
19734TIP3   OH280692   3.719   1.928  13.471 -0.1957 -0.6393  0.5053
19734TIP3    H180693   3.701   1.890  13.385 -0.8957 -1.9850  1.2124
19734TIP3    H280694   3.634   1.958  13.503  0.1214  0.1978  0.5875
19735TIP3   OH280695   0.293   6.661   3.587 -0.3771 -0.5749 -0.1122
19735TIP3    H180696   0.366   6.633   3.641 -0.3768 -2.6643 -1.0931
19735TIP3    H280697   0.296   6.756   3.590  1.4291 -0.6212  1.1111
19736TIP3   OH280698   0.566   3.505   1.634 -0.7449  0.4490 -0.5590
19736TIP3    H180699   0.654   3.479   1.607 -1.3852 -0.7631 -1.6347
19736TIP3    H280700   0.511   3.481   1.559 -2.4073 -1.6501  1.1944
19737TIP3   OH280701   3.867   4.192   2.853 -0.2734  0.2277  0.1587
19737TIP3    H180702   3.829   4.225   2.772  1.6480  2.9678  0.2430
19737TIP3    H280703   3.794   4.191   2.916 -1.2334  0.4577 -0.9257
19738TIP3   OH280704   2.640   2.895   5.318 -0.1916 -0.1217  0.2680
19738TIP3    H180705   2.641   2.978   5.366 -0.4558  0.6013 -0.9457
19738TIP3    H280706   2.551   2.862   5.330 -0.4826  0.4237 -0.3054
19739TIP3   OH280707   3.632   1.754  16.123 -0.3723  0.0641  0.0213
19739TIP3    H180708   3.721   1.789  16.128 -0.1334 -0.6391  1.0852
19739TIP3    H280709   3.641   1.670  16.077 -0.6553  0.4845 -0.8206
19740TIP3   OH280710   6.803   3.163   5.073  0.6256 -0.5920  0.1024
19740TIP3    H180711   6.759   3.134   4.993 -1.9280 -1.0012  1.5243
19740TIP3    H280712   6.791   3.258   5.073 -3.3138 -0.8646  1.8895
19741TIP3   OH280713   4.306   4.182   2.603  0.2409  0.4532  0.3453
19741TIP3    H180714   4.329   4.163   2.694  1.7121  0.4753  0.0182
19741TIP3    H280715   4.324   4.100   2.556 -0.0999  0.5645  0.0196
19742TIP3   OH280716   0.288   3.522  12.908  0.5904 -0.6329  0.4408
19742TIP3    H180717   0.201   3.556  12.886  0.7041 -0.1953  0.6777
19742TIP3    H280718   0.321   3.581  12.975  0.8794 -1.0786  0.6956
19743TIP3   OH280719   1.716   4.989   4.872 -0.1950  0.5634  0.4433
19743TIP3    H180720   1.726   4.901   4.836  0.4219  0.4525  0.8649
19743TIP3    H280721   1.651   5.031   4.816  0.2839  0.1890 -0.4131
19744TIP3   OH280722   4.739   6.736   4.336  0.5879 -0.0597 -0.6563
19744TIP3    H180723   4.733   6.665   4.399 -1.4464 -0.0317 -0.7720
19744TIP3    H280724   4.830   6.733   4.304  0.7959 -1.9609  0.0471
19745TIP3   OH280725   3.837   2.633  14.587 -0.4300 -0.0689  0.1248
19745TIP3    H180726   3.756   2.586  14.567  0.6119 -1.4586 -1.0138
19745TIP3    H280727   3.905   2.566  14.584  0.7237  0.9815  1.5235
19746TIP3   OH280728   6.032   1.097   4.573  0.0614  0.1714  0.2963
19746TIP3    H180729   5.995   1.153   4.640 -0.6921 -0.6032  0.5462
19746TIP3    H280730   6.022   1.008   4.608  2.0689 -0.0974  0.3419
19747TIP3   OH280731   1.451   1.383   2.750  0.4684  0.7140 -0.2831
19747TIP3    H180732   1.426   1.464   2.795 -0.7558  0.7394 -0.9476
19747TIP3    H280733   1.520   1.345   2.804 -1.5904  0.2224  2.1928
19748TIP3   OH280734   5.914   3.010  11.157 -0.0866  0.2548 -0.4108
19748TIP3    H180735   5.949   2.929  11.195  1.1402 -0.6060 -3.1047
19748TIP3    H280736   5.883   2.984  11.071 -0.6977  2.4800 -0.9120
19749TIP3   OH280737   1.268   3.448  13.429  0.0632  0.6216  0.3754
19749TIP3    H180738   1.294   3.457  13.337  0.3821  0.5791  0.4608
19749TIP3    H280739   1.196   3.511  13.440 -1.6845 -1.1173 -0.5401
19750TIP3   OH280740   1.708   0.981  11.784 -0.2550 -0.0274 -0.1936
19750TIP3    H180741   1.761   1.056  11.810  0.8064 -1.1221  0.9789
19750TIP3    H280742   1.683   0.999  11.693 -0.0635  1.7295  0.0643
19751TIP3   OH280743   3.661   6.046  13.606 -0.0998  0.0498 -0.2271
19751TIP3    H180744   3.611   6.047  13.688  0.2167 -0.1452 -0.0286
19751TIP3    H280745   3.648   6.133  13.569  0.5122  0.4581  0.4936
19752TIP3   OH280746   6.840   3.222  17.113 -0.1776 -0.2624 -0.0903
19752TIP3    H180747   6.807   3.135  17.137 -1.4367 -0.2797 -1.7299
19752TIP3    H280748   6.846   3.220  17.018  0.6831  1.1616 -0.1001
19753TIP3   OH280749   4.774   4.623  11.100  0.2871 -0.0930  0.0309
19753TIP3    H180750   4.783   4.696  11.162 -0.0837 -0.2662  0.2969
19753TIP3    H280751   4.862   4.609  11.066  0.6527 -0.5057  1.1031
19754TIP3   OH280752   1.142   4.561  11.041  0.0718  0.1544 -0.3348
19754TIP3    H180753   1.056   4.603  11.040 -0.1964 -0.3726 -2.2558
19754TIP3    H280754   1.186   4.599  11.118 -0.6126  2.9651 -1.2186
19755TIP3   OH280755   1.515   5.275  11.754  0.9607  0.3598  0.2865
19755TIP3    H180756   1.560   5.217  11.816 -0.0833 -1.8657 -0.9351
19755TIP3    H280757   1.567   5.268  11.673 -0.5929 -0.9798 -0.6534
19756TIP3   OH280758   1.172   5.555  13.403 -0.3178  0.3964 -0.4323
19756TIP3    H180759   1.256   5.562  13.449 -0.4400 -1.0959  0.0920
19756TIP3    H280760   1.190   5.496  13.329 -0.6364  1.0332 -1.0316
19757TIP3   OH280761   2.991   2.306  14.082  0.0843 -0.3361 -0.1632
19757TIP3    H180762   3.051   2.355  14.025 -0.4730 -0.3372 -0.7580
19757TIP3    H280763   3.025   2.322  14.171  0.0024  1.0298 -0.3511
19758TIP3   OH280764   0.254   1.666  17.028 -0.4477 -0.6849  0.4484
19758TIP3    H180765   0.287   1.669  17.118  0.6182 -0.2253  0.0625
19758TIP3    H280766   0.220   1.753  17.012  0.8598 -0.2550 -0.1122
19759TIP3   OH280767   6.398   2.240   2.539 -0.3471  0.4679 -0.4678
19759TIP3    H180768   6.442   2.281   2.613  1.0301 -1.3361 -0.2299
19759TIP3    H280769   6.339   2.176   2.579  1.7092 -1.8243 -0.8295
19760TIP3   OH280770   4.144   4.408   3.242  0.2284  0.3879  0.1475
19760TIP3    H180771   4.102   4.369   3.166  1.6875 -0.6986 -0.1531
19760TIP3    H280772   4.086   4.388   3.316  0.4289 -1.5061 -0.1614
19761TIP3   OH280773   4.193   4.856  15.649  0.3714  0.0597 -0.1685
19761TIP3    H180774   4.166   4.902  15.570  1.0213  0.3809 -0.2191
19761TIP3    H280775   4.112   4.832  15.693 -0.0377  2.7308  0.7093
19762TIP3   OH280776   6.353   0.229   1.748 -0.3068  0.1971 -0.1324
19762TIP3    H180777   6.422   0.200   1.688 -1.6257 -0.3247 -1.4489
19762TIP3    H280778   6.397   0.292   1.805  0.4225  3.0659 -3.5101
19763TIP3   OH280779   3.547   0.976  12.137 -0.4243  0.6810  0.7249
19763TIP3    H180780   3.618   1.029  12.100 -0.1112  0.2802  0.7467
19763TIP3    H280781   3.467   1.026  12.118  0.0190  2.2837  2.6765
19764TIP3   OH280782   4.388   3.936   0.605 -0.0988 -0.8111 -0.3047
19764TIP3    H180783   4.421   4.023   0.629 -2.4662 -0.3833  1.8374
19764TIP3    H280784   4.354   3.946   0.516  1.4151 -0.1358 -0.8426
19765TIP3   OH280785   5.612   2.934  15.266 -0.0006 -0.0658  0.1165
19765TIP3    H180786   5.539   2.987  15.237  0.8097  1.4271  0.6789
19765TIP3    H280787   5.622   2.867  15.199 -0.5992  0.9375 -1.0111
19766TIP3   OH280788   5.589   3.270   1.825  0.0448 -0.3596 -0.0819
19766TIP3    H180789   5.664   3.215   1.845 -0.1267 -1.3503 -1.9715
19766TIP3    H280790   5.534   3.266   1.904  0.1253 -2.7491 -0.0906
19767TIP3   OH280791   4.324   5.626  16.745 -0.3705  0.3269  1.0175
19767TIP3    H180792   4.360   5.714  16.753 -2.6124  1.6674 -1.8826
19767TIP3    H280793   4.365   5.577  16.817  4.2194  2.5197  0.2730
19768TIP3   OH280794   3.223   5.988  13.149  0.7956 -0.0011 -0.3974
19768TIP3    H180795   3.294   5.946  13.102  0.4205 -0.4892 -0.5330
19768TIP3    H280796   3.147   5.930  13.136  0.2269  0.7957 -0.7365
19769TIP3   OH280797   1.170   5.852   5.844  0.1465 -0.8388 -0.9164
19769TIP3    H180798   1.208   5.876   5.928 -2.0667 -0.1462 -0.0608
19769TIP3    H280799   1.128   5.768   5.859  1.0075 -1.4564 -1.7780
19770TIP3   OH280800   5.658   5.240  11.486  0.6171  0.1259  0.1265
19770TIP3    H180801   5.615   5.156  11.502 -0.8163  0.6540 -0.6844
19770TIP3    H280802   5.749   5.227  11.513  0.3227 -1.5393  0.4182
19771TIP3   OH280803   5.778   4.950   1.101 -0.1025  0.0570  0.0978
19771TIP3    H180804   5.785   4.997   1.184  0.1413  0.5239 -0.1800
19771TIP3    H280805   5.811   4.863   1.120  2.5528  0.9357 -0.1242
19772TIP3   OH280806   2.562   1.981   3.634 -0.0141 -0.6830  0.2642
19772TIP3    H180807   2.546   1.901   3.584 -1.2693 -1.1650  1.3849
19772TIP3    H280808   2.504   2.046   3.595 -1.4491 -1.2175  1.4008
19773TIP3   OH280809   4.701   0.556  15.420 -0.2151 -0.1802 -0.1200
19773TIP3    H180810   4.659   0.500  15.355 -0.4065 -0.7392  0.4742
19773TIP3    H280811   4.637   0.564  15.491  0.2934 -0.2463  0.3635
19774TIP3   OH280812   1.206   2.010   4.677  0.1340  0.1043 -0.3349
19774TIP3    H180813   1.272   1.951   4.714  1.1211  1.0494 -0.5499
19774TIP3    H280814   1.236   2.098   4.700 -1.7121  0.5322  0.6404
19775TIP3   OH280815   0.314   1.525  13.131  0.0888  0.1565  0.4900
19775TIP3    H180816   0.399   1.482  13.125 -0.1723 -0.4335  0.8698
19775TIP3    H280817   0.254   1.467  13.085 -0.5021 -0.5601  2.0771
19776TIP3   OH280818   6.190   2.011   5.501  0.4548 -0.1492  0.4972
19776TIP3    H180819   6.190   2.038   5.592 -0.3909  1.2134  0.1109
19776TIP3    H280820   6.281   1.983   5.484  0.8536  0.5312  1.4724
19777TIP3   OH280821   3.225   6.836  13.062  1.2580 -0.0987  0.1554
19777TIP3    H180822   3.156   6.820  13.127  1.2738 -0.3881  0.1006
19777TIP3    H280823   3.181   6.826  12.978  1.6407 -1.5613  0.1006
19778TIP3   OH280824   1.761   5.213   0.147 -0.9370 -0.3656  1.1593
19778TIP3    H180825   1.776   5.150   0.077 -0.7536  0.3630  0.5248
19778TIP3    H280826   1.699   5.276   0.110 -0.5640  0.2271  1.5233
19779TIP3   OH280827   2.011   5.240   3.137 -0.0471  0.3621 -0.0343
19779TIP3    H180828   1.996   5.313   3.197  0.0382  0.6477 -0.3648
19779TIP3    H280829   1.943   5.176   3.161  2.3389 -1.3211  3.1482
19780TIP3   OH280830   2.152   0.132  12.415  0.2086  0.6648  0.0510
19780TIP3    H180831   2.215   0.112  12.485 -1.1039 -1.6428  0.7037
19780TIP3    H280832   2.206   0.147  12.337  1.6011 -1.3842  0.5326
19781TIP3   OH280833   0.989   6.424  13.438 -0.0930 -0.4914  0.5139
19781TIP3    H180834   0.916   6.374  13.474  0.6161 -1.2805  0.8939
19781TIP3    H280835   0.973   6.426  13.344 -0.1388 -1.4275  0.4934
19782TIP3   OH280836   4.199   0.289  13.966 -0.6208 -0.1102 -0.0328
19782TIP3    H180837   4.235   0.218  13.913 -1.3899 -1.9952  1.8233
19782TIP3    H280838   4.109   0.263  13.983 -0.5050  0.5787  1.8721
19783TIP3   OH280839   0.537   1.940  10.932  0.0626 -0.3013  0.3362
19783TIP3    H180840   0.460   1.899  10.971  0.2743 -3.1551 -1.9373
19783TIP3    H280841   0.611   1.891  10.968  0.2569 -3.2315 -3.4100
19784TIP3   OH280842   0.183   3.549  14.221  0.1676  0.1859  0.2181
19784TIP3    H180843   0.120   3.618  14.201 -0.1905  0.1391  1.1014
19784TIP3    H280844   0.268   3.593  14.224  0.0058  0.4923  0.2896
19785TIP3   OH280845   1.208   3.621  14.985 -0.2157 -0.0304  0.1339
19785TIP3    H180846   1.237   3.533  14.960  0.0903 -0.0571  0.5661
19785TIP3    H280847   1.285   3.676  14.968 -0.7623  0.3616 -1.2217
19786TIP3   OH280848   5.838   2.007  16.876 -0.1762  0.4032  0.0043
19786TIP3    H180849   5.906   2.063  16.913  0.4071 -1.6375  2.3500
19786TIP3    H280850   5.886   1.934  16.836 -0.9376  0.5420 -1.1851
19787TIP3   OH280851   0.283   5.023  13.025 -0.3791 -0.4823 -0.4824
19787TIP3    H180852   0.323   5.054  13.106 -0.9719 -0.5323 -0.1651
19787TIP3    H280853   0.199   4.986  13.053 -1.4735  1.2383 -1.3450
19788TIP3   OH280854   2.030   3.407  11.643  0.2031 -0.6212 -0.3887
19788TIP3    H180855   2.040   3.315  11.669  0.8099 -0.6273 -0.6090
19788TIP3    H280856   2.116   3.430  11.606  0.3572  0.3104  0.5193
19789TIP3   OH280857   0.101   4.600  13.016 -0.3457  0.4024  0.1348
19789TIP3    H180858   0.125   4.553  12.936 -2.0864  0.4649 -0.4533
19789TIP3    H280859   0.153   4.681  13.013  0.3123 -0.0260 -0.4234
19790TIP3   OH280860   5.628   6.814   0.933  0.7119 -0.0376  0.1808
19790TIP3    H180861   5.686   6.748   0.896  0.2806  0.0790 -0.7159
19790TIP3    H280862   5.593   6.774   1.012  1.1859 -0.5111  0.1560
19791TIP3   OH280863   3.283   2.580  12.589 -0.2918 -0.3166  0.0150
19791TIP3    H180864   3.236   2.656  12.623  0.0309  0.2172 -0.7218
19791TIP3    H280865   3.232   2.505  12.618 -1.2334  0.2301 -0.2157
19792TIP3   OH280866   4.314   3.005  13.227  0.3519  0.1906  0.4269
19792TIP3    H180867   4.371   3.058  13.171 -1.5909  2.4731  0.4844
19792TIP3    H280868   4.283   2.935  13.170  1.7080 -0.0094 -0.1059
19793TIP3   OH280869   4.065   0.004   4.804  0.2727  0.0848 -0.0535
19793TIP3    H180870   4.125   0.024   4.876  0.4874 -0.2356 -0.1439
19793TIP3    H280871   3.984  -0.026   4.847 -0.1980  1.5063  0.1004
19794TIP3   OH280872   4.955   0.507  12.160  0.1128  0.2394  0.4962
19794TIP3    H180873   4.872   0.519  12.114  0.6761  1.0076 -0.3553
19794TIP3    H280874   4.996   0.593  12.158  0.7059 -0.0051  1.3827
19795TIP3   OH280875   3.030   4.737  11.861 -0.6015 -0.2167  0.6938
19795TIP3    H180876   3.020   4.777  11.775  0.2617  0.6052  0.9653
19795TIP3    H280877   3.078   4.656  11.845 -0.8166 -0.2798  0.3554
19796TIP3   OH280878   4.778   4.792  12.487  0.5185  0.5840  0.3779
19796TIP3    H180879   4.839   4.865  12.494  0.4342  0.6833  0.0661
19796TIP3    H280880   4.745   4.796  12.397 -0.6478  1.0851  0.8147
19797TIP3   OH280881   4.313   0.983  16.922 -0.0401 -0.0997 -0.4251
19797TIP3    H180882   4.264   1.055  16.962 -0.7970  0.3288 -2.0529
19797TIP3    H280883   4.246   0.916  16.905  0.3576 -0.4684 -0.5503
19798TIP3   OH280884   2.406   5.449  17.020 -0.3881  0.4809  0.2976
19798TIP3    H180885   2.411   5.491  17.106 -0.4580  0.1880  0.4454
19798TIP3    H280886   2.478   5.386  17.021 -1.6126 -0.9791  0.9308
19799TIP3   OH280887   5.079   4.994   3.886  0.2797 -0.3606  0.3840
19799TIP3    H180888   5.094   4.900   3.886 -2.3948 -0.8748 -1.5825
19799TIP3    H280889   4.997   5.005   3.934  0.5916  1.0049  0.6493
19800TIP3   OH280890   0.184   6.209   2.443  0.0907  0.2190 -0.1119
19800TIP3    H180891   0.250   6.146   2.470  1.1189  1.4480  0.3797
19800TIP3    H280892   0.124   6.216   2.518 -0.5695 -0.8186 -0.5193
19801TIP3   OH280893   4.161   2.946   2.885 -0.0938  0.0280  0.0800
19801TIP3    H180894   4.074   2.961   2.922  0.5956  0.3957  1.6353
19801TIP3    H280895   4.146   2.889   2.810 -1.9129  1.8570 -1.0642
19802TIP3   OH280896   0.816   5.810   5.723  0.1049  0.5265  0.0046
19802TIP3    H180897   0.812   5.717   5.745  2.0685 -0.0432 -1.7534
19802TIP3    H280898   0.735   5.826   5.675  0.5118 -0.7435 -1.1663
19803TIP3   OH280899   5.881   4.466   5.537 -0.0185 -0.0601  0.0467
19803TIP3    H180900   5.944   4.410   5.583  0.3187  1.5396  1.6622
19803TIP3    H280901   5.934   4.522   5.481 -0.2739 -0.6691 -0.8214
19804TIP3   OH280902   4.515   0.547   3.867 -0.1026  0.5023 -0.1422
19804TIP3    H180903   4.469   0.625   3.835  1.0906  0.7776 -1.2929
19804TIP3    H280904   4.485   0.476   3.810  0.7224  0.6489 -0.7825
19805TIP3   OH280905   4.526   3.180   4.216 -0.0944  0.0520  0.9123
19805TIP3    H180906   4.545   3.185   4.310 -0.7718  1.3391  1.0053
19805TIP3    H280907   4.542   3.269   4.184 -1.5887  0.0709  0.1502
19806TIP3   OH280908   2.752   6.276   5.751  0.9254  0.2311 -0.5908
19806TIP3    H180909   2.780   6.188   5.778 -0.8240 -0.3252 -0.4004
19806TIP3    H280910   2.833   6.325   5.739  1.9691 -1.5188 -1.0692
19807TIP3   OH280911   2.850   2.304  14.963  0.1991 -0.2090 -0.0566
19807TIP3    H180912   2.821   2.376  15.020 -1.6637 -0.7289 -0.3043
19807TIP3    H280913   2.862   2.345  14.878 -0.9421 -0.1862 -0.2187
19808TIP3   OH280914   4.242   0.294  13.583  0.3080  0.5392 -0.0018
19808TIP3    H180915   4.279   0.217  13.626  0.0732 -0.6375 -1.7615
19808TIP3    H280916   4.193   0.258  13.508  0.1592  2.3955 -0.8558
19809TIP3   OH280917   0.639   2.421  14.090 -0.3330  0.3052 -0.2355
19809TIP3    H180918   0.565   2.366  14.063  0.1470 -0.0032 -0.9637
19809TIP3    H280919   0.691   2.364  14.147 -0.1202  0.1802 -0.5530
19810TIP3   OH280920   3.652   4.520  16.359  0.4075 -0.1999  0.4058
19810TIP3    H180921   3.744   4.499  16.343  0.1185 -0.0864 -1.6652
19810TIP3    H280922   3.634   4.596  16.304 -1.0120 -0.4750  0.4313
19811TIP3   OH280923   1.277   3.734  11.294 -0.2128 -0.5845 -0.3520
19811TIP3    H180924   1.252   3.825  11.308  0.2506 -0.4140 -0.6194
19811TIP3    H280925   1.195   3.690  11.273 -0.4858 -0.2929  0.0838
19812TIP3   OH280926   0.197   1.171   0.450 -0.1506 -0.9902  0.1119
19812TIP3    H180927   0.242   1.114   0.513  1.2668  0.7521  0.7579
19812TIP3    H280928   0.124   1.118   0.418  0.3783 -2.7155  1.5838
19813TIP3   OH280929   1.803   3.590   5.593 -0.4889  0.3181  0.6604
19813TIP3    H180930   1.779   3.668   5.644  0.9554  0.0370  1.8197
19813TIP3    H280931   1.759   3.518   5.638 -0.2560  0.2208  0.7285
19814TIP3   OH280932   2.572   1.109   1.672 -0.5094  0.4836 -0.0402
19814TIP3    H180933   2.575   1.125   1.577  0.8805  1.3918  0.1232
19814TIP3    H280934   2.560   1.196   1.710 -0.7180  0.1615  0.6427
19815TIP3   OH280935   6.584   4.843  16.736 -0.4196  0.0080  0.0686
19815TIP3    H180936   6.493   4.824  16.714 -0.4647 -0.4638  0.6284
19815TIP3    H280937   6.584   4.935  16.762 -0.9522 -0.2794  1.1386
19816TIP3   OH280938   1.042   0.827  13.985 -0.0086 -0.1990  0.5087
19816TIP3    H180939   0.992   0.760  13.938  1.2067 -0.3933 -0.5439
19816TIP3    H280940   1.101   0.864  13.920 -0.2876  1.5660  1.2069
19817TIP3   OH280941   2.980   6.047   0.835  0.1487  0.3081 -0.3546
19817TIP3    H180942   2.909   6.111   0.825 -0.1123 -0.1517 -1.5979
19817TIP3    H280943   2.935   5.962   0.833  0.3031  0.0245  2.7198
19818TIP3   OH280944   5.967   0.549   3.638  0.3535  0.4802 -0.4192
19818TIP3    H180945   5.987   0.639   3.664  1.7975  0.2025 -0.4599
19818TIP3    H280946   5.998   0.543   3.548 -1.6619  0.5150 -1.1646
19819TIP3   OH280947   1.629   3.744   3.836  0.4970  0.0380  0.1399
19819TIP3    H180948   1.572   3.801   3.888 -0.3012  0.7678 -1.4529
19819TIP3    H280949   1.570   3.679   3.799  1.3166 -1.5201  1.4506
19820TIP3   OH280950   2.752   2.193  17.127 -0.3562  0.3272  0.0655
19820TIP3    H180951   2.720   2.199  17.217 -1.1295  0.0261 -0.1788
19820TIP3    H280952   2.780   2.282  17.105  0.0382  0.3591  0.6673
19821TIP3   OH280953   6.710   2.800   5.140 -0.5564 -0.3302 -0.0532
19821TIP3    H180954   6.803   2.811   5.159 -0.5227  0.8571 -0.8176
19821TIP3    H280955   6.690   2.870   5.077 -2.1943  0.0748  0.8691
19822TIP3   OH280956   2.108   1.416   0.995 -0.5424 -0.3120 -0.2482
19822TIP3    H180957   2.027   1.465   0.980 -0.0749  0.6107  0.1677
19822TIP3    H280958   2.177   1.482   0.994  0.2370 -1.1060 -0.7475
19823TIP3   OH280959   1.152   0.309   4.792  0.1211 -0.5711 -0.8137
19823TIP3    H180960   1.176   0.378   4.853 -0.1281 -0.1084 -1.2311
19823TIP3    H280961   1.056   0.314   4.787  0.1437 -0.5622 -1.2862
19824TIP3   OH280962   5.495   4.738   3.258 -0.0758 -0.0994 -0.0995
19824TIP3    H180963   5.521   4.791   3.333  1.4145 -0.0075 -0.6611
19824TIP3    H280964   5.418   4.690   3.289  0.8977 -0.5895  1.7091
19825TIP3   OH280965   6.706   6.670  10.702 -0.1155 -0.4798  0.3124
19825TIP3    H180966   6.638   6.630  10.648 -0.2055  1.5910 -1.2321
19825TIP3    H280967   6.663   6.685  10.787 -1.0623 -0.7172 -0.1084
19826TIP3   OH280968   2.749   2.422   4.190 -0.6731 -0.0419  0.4238
19826TIP3    H180969   2.824   2.362   4.191 -0.8740 -0.2905  0.6848
19826TIP3    H280970   2.688   2.385   4.255 -0.4986  0.8229  1.0959
19827TIP3   OH280971   6.793   4.458  11.096  0.4473 -0.0389 -0.5658
19827TIP3    H180972   6.809   4.551  11.079 -0.3129  0.1551 -0.2427
19827TIP3    H280973   6.758   4.424  11.013 -1.6622  0.5360  0.0365
19828TIP3   OH280974   3.242   0.394  15.450  0.2727  0.3879  0.0595
19828TIP3    H180975   3.307   0.461  15.425  0.2395 -0.0720 -1.3344
19828TIP3    H280976   3.292   0.331  15.502  0.7455  0.4953 -0.2536
19829TIP3   OH280977   0.759   5.589   0.683  0.0573 -0.4715 -0.3284
19829TIP3    H180978   0.674   5.627   0.661 -0.0627 -0.3267  0.3526
19829TIP3    H280979   0.756   5.577   0.778  0.5486 -1.0808 -0.3811
19830TIP3   OH280980   2.244   4.791  12.112 -0.4664  0.2852 -0.4951
19830TIP3    H180981   2.225   4.718  12.053  0.4495 -0.2416 -0.1649
19830TIP3    H280982   2.159   4.830  12.131 -0.7890  0.4438 -2.1374
19831TIP3   OH280983   1.734   3.188   5.540 -0.2717 -0.2608  0.4092
19831TIP3    H180984   1.808   3.182   5.479 -0.7233  2.1666 -0.4952
19831TIP3    H280985   1.762   3.252   5.605 -0.3288 -1.8333  2.0532
19832TIP3   OH280986   6.069   3.654  12.507 -0.6908 -0.2378 -0.4354
19832TIP3    H180987   6.025   3.622  12.429  1.2372  0.6787 -1.9917
19832TIP3    H280988   6.115   3.577  12.542 -1.1388 -0.5361 -0.4985
19833TIP3   OH280989   6.826   5.314  17.010  0.2247  0.4046 -0.3928
19833TIP3    H180990   6.827   5.402  17.047  0.9948  0.9319 -1.6098
19833TIP3    H280991   6.903   5.310  16.953 -1.3366 -0.0317 -2.6199
19834TIP3   OH280992   6.411   6.462  15.478  0.2169  0.2964  0.5721
19834TIP3    H180993   6.479   6.461  15.545 -1.3629  0.6441  2.2718
19834TIP3    H280994   6.386   6.371  15.468 -0.0816  0.3206  1.0557
19835TIP3   OH280995   4.290   2.804  13.051  0.2915  0.1760 -0.2080
19835TIP3    H180996   4.226   2.814  12.981 -0.0732 -1.0699 -0.0759
19835TIP3    H280997   4.274   2.717  13.086  2.2304 -0.2916 -0.3563
19836TIP3   OH280998   0.625   1.657  12.229 -0.6078  0.6512  0.1118
19836TIP3    H180999   0.549   1.640  12.285 -0.8221 -0.4987 -0.4924
19836TIP3    H281000   0.678   1.577  12.236 -0.8599  0.2882 -1.6463
19837TIP3   OH281001   6.171   3.363  15.156  0.4369  0.1114 -0.2844
19837TIP3    H181002   6.152   3.448  15.194 -2.3102  0.2227 -1.6927
19837TIP3    H281003   6.153   3.373  15.063  1.9455 -1.5369 -0.8212
19838TIP3   OH281004   3.695   5.072  13.646  0.5516  0.6773 -0.3003
19838TIP3    H181005   3.624   5.122  13.687 -0.0290 -0.2413 -0.1490
19838TIP3    H281006   3.759   5.061  13.716 -0.2338 -0.5009  0.2581
19839TIP3   OH281007   1.877   3.937   4.529  0.1729  0.1845 -0.5141
19839TIP3    H181008   1.892   3.855   4.577  0.5370  0.5979  0.0840
19839TIP3    H281009   1.790   3.925   4.490 -0.4716  0.1266  0.8695
19840TIP3   OH281010   2.418   5.862  16.448  0.3123  0.2089 -0.4888
19840TIP3    H181011   2.376   5.778  16.462  0.4169  0.1519 -0.5118
19840TIP3    H281012   2.346   5.924  16.438  0.2347  0.2563  0.3237
19841TIP3   OH281013   5.814   1.711   4.587 -0.0967  0.4992 -0.5732
19841TIP3    H181014   5.827   1.644   4.654  0.1944 -0.0762 -1.2027
19841TIP3    H281015   5.815   1.664   4.504 -1.3763  1.0773 -0.9490
19842TIP3   OH281016   0.779   6.424   4.565  0.1733 -0.0103 -0.6508
19842TIP3    H181017   0.749   6.456   4.480 -1.2208  0.6954  0.0800
19842TIP3    H281018   0.715   6.358   4.590 -0.6922  1.3472  0.8301
19843TIP3   OH281019   3.832   4.643   0.298 -0.0771 -0.3534 -0.1561
19843TIP3    H181020   3.789   4.725   0.322 -0.3151 -0.6105  0.3147
19843TIP3    H281021   3.771   4.575   0.326  1.1202 -0.7731  1.6196
19844TIP3   OH281022   6.839   4.680  13.373  0.7330  0.1561  0.2070
19844TIP3    H181023   6.867   4.597  13.333  1.2309  0.3192  0.2136
19844TIP3    H281024   6.766   4.656  13.429  0.0523 -0.0936 -0.7462
19845TIP3   OH281025   3.107   5.052  16.184 -0.0877 -0.2343 -0.2221
19845TIP3    H181026   3.056   5.132  16.183 -0.5925 -0.5507  0.0532
19845TIP3    H281027   3.105   5.022  16.275  1.8692  0.5499  0.1308
19846TIP3   OH281028   0.592   2.907  16.335  0.3026  0.2215 -0.0845
19846TIP3    H181029   0.520   2.864  16.381  0.4595  0.9365  0.8771
19846TIP3    H281030   0.628   2.968  16.400  1.0147  0.7243 -0.9338
19847TIP3   OH281031   0.281   1.449   3.641 -0.2236  0.2366 -0.1492
19847TIP3    H181032   0.200   1.455   3.691 -0.1515 -0.1381  0.0188
19847TIP3    H281033   0.257   1.475   3.553 -0.2082  1.5778  0.2276
19848TIP3   OH281034   1.175   0.057   4.349  0.2822 -0.8966  0.0971
19848TIP3    H181035   1.263   0.040   4.314 -0.0004 -1.3959 -0.4005
19848TIP3    H281036   1.122   0.075   4.271 -0.1787 -1.1870  0.3396
19849TIP3   OH281037   4.233   0.522  10.923  0.1974  0.0138  0.5133
19849TIP3    H181038   4.235   0.617  10.937 -1.6103 -0.1215  2.0205
19849TIP3    H281039   4.140   0.500  10.925  0.6182 -1.8605  0.6108
19850TIP3   OH281040   5.893   0.326  14.104  0.1055 -0.0146  0.7191
19850TIP3    H181041   5.859   0.240  14.129 -0.5268 -0.1618 -0.5997
19850TIP3    H281042   5.932   0.313  14.018 -2.0563  1.4733 -0.5844
19851TIP3   OH281043   1.788   1.176  15.033 -0.1088 -0.7602  0.0720
19851TIP3    H181044   1.883   1.165  15.037 -0.2362 -1.8838  0.3625
19851TIP3    H281045   1.758   1.105  14.977 -0.8018 -0.5695  0.1960
19852TIP3   OH281046   6.182   5.371  11.952  0.5130 -0.0666  0.3330
19852TIP3    H181047   6.213   5.384  11.862  2.7833  0.0271  1.0779
19852TIP3    H281048   6.112   5.307  11.943 -0.0151  0.6934 -1.6079
19853TIP3   OH281049   3.259   4.376  13.366 -0.0947  0.3417 -0.2438
19853TIP3    H181050   3.279   4.349  13.276 -1.2116 -0.4343 -0.2725
19853TIP3    H281051   3.262   4.472  13.363  0.4055  0.3107 -0.9794
19854TIP3   OH281052   1.460   2.499   1.081  0.3388  0.1897  0.0363
19854TIP3    H181053   1.402   2.505   1.157 -0.8996  1.1129 -0.9373
19854TIP3    H281054   1.454   2.584   1.039  0.2708 -0.5928 -1.6236
19855TIP3   OH281055   4.585   0.453   3.157 -0.1956 -0.6548  0.1418
19855TIP3    H181056   4.519   0.476   3.223 -0.7428 -1.5361 -0.0748
19855TIP3    H281057   4.573   0.359   3.143  2.5046 -1.3363  1.6271
19856TIP3   OH281058   5.740   2.603  17.127 -0.2674 -0.4089  0.2024
19856TIP3    H181059   5.820   2.634  17.169 -1.0050  0.9908  0.6152
19856TIP3    H281060   5.720   2.669  17.061 -0.6358 -1.1808 -0.4828
19857TIP3   OH281061   5.910   6.632  10.286 -0.4043 -0.3315 -0.2074
19857TIP3    H181062   5.870   6.546  10.283 -1.7115  0.0891  2.3589
19857TIP3    H281063   5.904   6.658  10.378  3.6940  0.7904 -0.0514
19858TIP3   OH281064   2.566   5.103   0.429  0.2232 -0.0133 -0.0795
19858TIP3    H181065   2.479   5.070   0.407 -0.3150  1.0621  0.3612
19858TIP3    H281066   2.554   5.149   0.512  1.3935 -0.5750  0.4330
19859TIP3   OH281067   2.527   2.663  13.549  0.3775 -0.6807 -0.4710
19859TIP3    H181068   2.536   2.751  13.514 -2.7610 -0.0499 -0.0252
19859TIP3    H281069   2.574   2.665  13.632  0.2369  0.6297 -0.4086
19860TIP3   OH281070   3.647   6.765   5.419 -0.0058 -0.2452  0.2718
19860TIP3    H181071   3.699   6.690   5.445  0.8283  0.2420  0.0579
19860TIP3    H281072   3.590   6.732   5.349  1.9949 -0.1709 -1.4798
19861TIP3   OH281073   0.922   6.580  16.107  0.1139  0.6380  0.2225
19861TIP3    H181074   0.942   6.567  16.015 -0.7760  5.5285 -0.9463
19861TIP3    H281075   0.850   6.520  16.125  1.6044 -1.8859 -1.5543
19862TIP3   OH281076   6.045   3.209   2.965  0.4799 -0.3122  0.4963
19862TIP3    H181077   6.114   3.180   2.905  0.9489 -0.3061  1.0194
19862TIP3    H281078   5.992   3.269   2.913  0.8451 -0.3471  0.0689
19863TIP3   OH281079   6.476   3.001   0.257  0.1194 -0.3133  0.1120
19863TIP3    H181080   6.441   3.029   0.342  0.5713 -0.2516  0.2816
19863TIP3    H281081   6.477   3.080   0.204 -0.5974 -0.4430 -0.1071
19864TIP3   OH281082   5.247   0.112  13.917  0.6651 -0.3096 -0.2518
19864TIP3    H181083   5.339   0.132  13.897  1.0267 -0.6673  0.9559
19864TIP3    H281084   5.197   0.181  13.873  1.5379  0.1574 -0.5351
19865TIP3   OH281085   5.676   4.118   2.319  0.6893 -0.0997  0.0787
19865TIP3    H181086   5.654   4.077   2.235 -1.9093  1.3642 -0.0687
19865TIP3    H281087   5.771   4.112   2.325  0.6996 -3.4986 -1.2231
19866TIP3   OH281088   6.479   3.211  16.795  0.6435  0.1095 -0.7516
19866TIP3    H181089   6.499   3.283  16.855 -0.8079  0.6461 -0.8666
19866TIP3    H281090   6.514   3.133  16.839  0.4083  0.6070  0.3680
19867TIP3   OH281091   5.009   0.386   3.612 -0.1249  0.5632 -0.6832
19867TIP3    H181092   4.970   0.420   3.531  1.4403 -0.2947 -1.8514
19867TIP3    H281093   5.101   0.413   3.607  0.6720 -1.9198 -0.6223
19868TIP3   OH281094   4.474   5.038   0.644 -0.2529  0.5014  0.4522
19868TIP3    H181095   4.459   4.944   0.636  0.5297  0.3976  0.1242
19868TIP3    H281096   4.429   5.075   0.567 -2.7833  0.6944  1.8945
19869TIP3   OH281097   0.216   3.259   1.368 -0.3377  0.4774  0.4105
19869TIP3    H181098   0.130   3.225   1.393  0.0820 -0.1017  1.1028
19869TIP3    H281099   0.229   3.229   1.278 -1.1251  1.1109  0.0670
19870TIP3   OH281100   4.527   5.827  16.308  0.2903  0.4295  0.3416
19870TIP3    H181101   4.575   5.861  16.384 -0.7131  1.1074  0.6918
19870TIP3    H281102   4.463   5.895  16.288 -0.8464 -0.6678  0.1944
19871TIP3   OH281103   4.972   5.915  15.602  0.9606 -0.9505  0.4246
19871TIP3    H181104   4.928   5.916  15.687  0.3064 -0.5103  0.0936
19871TIP3    H281105   4.904   5.884  15.541  0.5451  1.3587 -0.3840
19872TIP3   OH281106   6.211   6.162   5.302 -0.6627 -0.4176  0.3967
19872TIP3    H181107   6.151   6.119   5.363  0.0318 -0.3996  1.1171
19872TIP3    H281108   6.298   6.130   5.328 -0.2984  0.0884 -0.1758
19873TIP3   OH281109   5.789   0.198   1.865 -0.0707 -0.1082  0.4398
19873TIP3    H181110   5.731   0.167   1.935  0.8049 -1.8930  0.4319
19873TIP3    H281111   5.780   0.133   1.796  1.1402  0.1619  0.0072
19874TIP3   OH281112   4.995   4.924  14.578 -0.0858  0.4058  0.0981
19874TIP3    H181113   4.986   4.887  14.666 -0.4133  1.7582  0.6524
19874TIP3    H281114   5.048   5.003  14.589 -1.0832  1.2290 -0.7166
19875TIP3   OH281115   0.666   5.794  13.686  0.3294 -1.0414  0.0000
19875TIP3    H181116   0.752   5.798  13.644 -0.1809  2.2202 -1.0544
19875TIP3    H281117   0.604   5.810  13.615 -0.9197 -0.4411  1.1855
19876TIP3   OH281118   4.506   5.505  11.932  0.1958 -0.0852  0.4898
19876TIP3    H181119   4.580   5.459  11.892  0.9164  0.9375  0.6170
19876TIP3    H281120   4.531   5.597  11.931 -1.7504  0.5057 -0.9093
19877TIP3   OH281121   1.384   6.154  12.591  0.0512 -0.3992 -0.4391
19877TIP3    H181122   1.391   6.058  12.591  2.6925 -0.3093 -2.7222
19877TIP3    H281123   1.474   6.185  12.590 -0.6993  2.2184  1.4964
19878TIP3   OH281124   2.910   4.882   2.666  0.2220 -0.3200 -0.3004
19878TIP3    H181125   2.953   4.905   2.748 -0.5430 -1.8496  0.5821
19878TIP3    H281126   2.817   4.876   2.689 -0.3847  1.7383 -1.8866
19879TIP3   OH281127   2.435   6.341   0.538  0.1909 -0.1590  0.2805
19879TIP3    H181128   2.496   6.408   0.506 -2.1431  2.0236  0.0632
19879TIP3    H281129   2.359   6.350   0.481 -0.4964 -2.5807  0.7352
19880TIP3   OH281130   0.316   6.718  11.624 -0.1013 -0.3404 -0.3567
19880TIP3    H181131   0.375   6.793  11.638 -0.8749  0.4778 -1.3112
19880TIP3    H281132   0.233   6.746  11.663 -0.2910 -0.8686 -0.3799
19881TIP3   OH281133   1.746   0.647  13.497  0.0437  0.0586  0.0228
19881TIP3    H181134   1.693   0.619  13.422 -0.4746  0.7303  0.1292
19881TIP3    H281135   1.689   0.707  13.546  0.4991 -0.1074  0.7708
19882TIP3   OH281136   0.303   4.377   1.516  0.2571  0.2487  0.3138
19882TIP3    H181137   0.360   4.338   1.449  0.6132  1.5104 -0.1561
19882TIP3    H281138   0.266   4.302   1.563 -2.3224 -0.9210 -3.1348
19883TIP3   OH281139   1.864   4.025   3.742  0.5725 -0.0189  0.3040
19883TIP3    H181140   1.881   3.961   3.673 -0.6196 -1.2323  1.0758
19883TIP3    H281141   1.778   4.062   3.721  1.8542  2.4838 -0.9371
19884TIP3   OH281142   4.730   3.473  14.560  0.5327 -0.7975  0.0988
19884TIP3    H181143   4.739   3.402  14.624  0.7909 -1.2309 -0.4110
19884TIP3    H281144   4.766   3.437  14.479  0.9587  0.0272 -0.0861
19885TIP3   OH281145   2.427   0.005   5.587 -1.0112 -0.6957 -0.3667
19885TIP3    H181146   2.491   0.017   5.657 -1.6707 -0.6491  0.2415
19885TIP3    H281147   2.378   0.087   5.585 -0.5489 -0.4165 -1.3726
19886TIP3   OH281148   5.302   6.257  14.388 -0.4043 -0.0930 -0.3461
19886TIP3    H181149   5.352   6.233  14.466 -1.9275  1.6959  1.2886
19886TIP3    H281150   5.357   6.320  14.342 -0.1483  0.0463  0.1485
19887TIP3   OH281151   0.391   1.948   1.887  0.8010 -0.4788  0.2367
19887TIP3    H181152   0.321   1.997   1.843  0.6640 -0.5288  0.3978
19887TIP3    H281153   0.454   1.928   1.818 -0.8499 -3.2198 -0.6189
19888TIP3   OH281154   4.722   3.390  13.312 -0.4163 -0.0451  0.1719
19888TIP3    H181155   4.673   3.313  13.341 -0.4927  0.0913  0.4201
19888TIP3    H281156   4.742   3.374  13.220 -1.2706  0.0646 -0.0476
19889TIP3   OH281157   4.311   6.047  14.876  0.3267 -0.3549 -0.2393
19889TIP3    H181158   4.293   6.043  14.782  0.4471  0.4118 -0.3005
19889TIP3    H281159   4.373   6.119  14.885  2.3114 -2.0030  0.1342
19890TIP3   OH281160   6.479   5.673  11.665 -0.3342 -0.0513 -0.2877
19890TIP3    H181161   6.553   5.614  11.654 -0.3817 -0.2447  0.4147
19890TIP3    H281162   6.478   5.725  11.584 -0.0988 -0.7847 -0.7737
19891TIP3   OH281163   4.922   6.316   3.552  0.0926 -0.0740  0.3709
19891TIP3    H181164   4.969   6.306   3.634 -0.6000 -1.7050  0.6280
19891TIP3    H281165   4.928   6.229   3.511  0.5096  0.7306 -1.3546
19892TIP3   OH281166   6.076   0.556   5.779 -0.3736  0.0397  0.6748
19892TIP3    H181167   6.091   0.545   5.685  0.4573 -0.6171  0.8704
19892TIP3    H281168   5.982   0.546   5.789 -0.3121 -1.4916  0.0936
19893TIP3   OH281169   4.220   5.916   0.870 -0.2505 -0.2264  0.7808
19893TIP3    H181170   4.125   5.914   0.861 -0.2374 -0.7248  0.7265
19893TIP3    H281171   4.235   5.941   0.961 -0.4540 -1.2963  1.1287
19894TIP3   OH281172   2.528   2.084   1.131  0.3826  0.4136  0.0870
19894TIP3    H181173   2.603   2.030   1.157 -0.0436 -0.9343 -1.3411
19894TIP3    H281174   2.485   2.106   1.213 -0.5042 -3.0640  0.7224
19895TIP3   OH281175   3.996   2.833   0.766  0.5385 -0.1970 -0.4497
19895TIP3    H181176   3.995   2.860   0.858 -1.9398  0.3606 -0.5634
19895TIP3    H281177   4.025   2.911   0.719  1.6114 -0.4181 -0.1767
19896TIP3   OH281178   3.933   0.732  15.708 -0.6423  0.5325  0.0862
19896TIP3    H181179   3.891   0.807  15.665 -1.2840  0.6244  0.8468
19896TIP3    H281180   3.870   0.704  15.775  0.3606  0.4605  1.0288
19897TIP3   OH281181   1.343   4.235   2.137 -0.0385  0.3877 -0.3322
19897TIP3    H181182   1.274   4.287   2.095 -0.9235  0.2563  0.8942
19897TIP3    H281183   1.312   4.223   2.227  0.9798 -0.7810 -0.1141
19898TIP3   OH281184   3.200   4.564  16.662  0.0880 -0.5827 -0.0270
19898TIP3    H181185   3.248   4.563  16.579 -2.2164  0.7406 -1.5014
19898TIP3    H281186   3.175   4.473  16.677 -0.2744 -0.7050 -1.2935
19899TIP3   OH281187   1.006   2.706   6.175 -0.2559  0.4378  0.4697
19899TIP3    H181188   1.092   2.748   6.176 -1.1081  2.3033  1.9360
19899TIP3    H281189   0.944   2.779   6.174 -1.8157 -0.8031  1.6325
19900TIP3   OH281190   6.543   0.120  11.152 -0.4906  0.2527 -0.8096
19900TIP3    H181191   6.512   0.131  11.241 -1.4127  0.7219 -1.1770
19900TIP3    H281192   6.581   0.205  11.130  0.3745 -0.0768 -0.6346
19901TIP3   OH281193   2.113   0.062   1.107  1.0460 -0.4655  0.2712
19901TIP3    H181194   2.055   0.030   1.177 -0.7590 -0.4179 -1.1249
19901TIP3    H281195   2.168   0.127   1.150 -2.7260  2.6550  0.9888
19902TIP3   OH281196   4.441   4.197   5.213 -0.7504  0.2875 -0.1329
19902TIP3    H181197   4.499   4.239   5.276 -0.1095 -0.7637  0.0153
19902TIP3    H281198   4.360   4.247   5.217 -1.1699 -0.4535  2.4106
19903TIP3   OH281199   4.526   4.988  12.824 -0.1115  0.5370 -0.4301
19903TIP3    H181200   4.567   4.931  12.758  0.4030  1.4555 -0.9317
19903TIP3    H281201   4.484   4.928  12.885  2.2314 -0.5196  0.2833
19904TIP3   OH281202   1.275   4.450  15.725 -0.5904 -0.0317  0.4856
19904TIP3    H181203   1.344   4.513  15.703 -1.7443  1.5835  1.2930
19904TIP3    H281204   1.319   4.386  15.782  0.5743  0.0833 -0.2427
19905TIP3   OH281205   4.164   3.574  14.256 -0.3239  0.1019  0.5194
19905TIP3    H181206   4.109   3.608  14.326  3.2044 -0.8745  4.1570
19905TIP3    H281207   4.130   3.486  14.240 -0.8424  0.1170  1.4716
19906TIP3   OH281208   0.477   6.162   5.115 -0.0642  0.1845  0.0397
19906TIP3    H181209   0.483   6.088   5.176 -0.7998 -1.0469 -1.3431
19906TIP3    H281210   0.566   6.170   5.080 -0.7749 -2.8060 -2.8796
19907TIP3   OH281211   5.836   4.028   2.621  0.1482 -0.2302 -0.2859
19907TIP3    H181212   5.812   4.119   2.640 -1.4541 -0.6340 -0.1660
19907TIP3    H281213   5.907   4.034   2.558  1.8658  1.1182  1.6528
19908TIP3   OH281214   1.405   2.750   4.355  0.7245 -0.7078 -0.0391
19908TIP3    H181215   1.452   2.829   4.327 -0.0665 -0.5559 -0.9877
19908TIP3    H281216   1.371   2.771   4.442 -0.1517  0.3087 -0.6044
19909TIP3   OH281217   1.311   5.936   4.982  0.9075 -0.5173  0.4344
19909TIP3    H181218   1.286   5.844   4.995 -0.8270  0.0924  1.6916
19909TIP3    H281219   1.271   5.959   4.898 -0.4111 -0.3823  1.0646
19910TIP3   OH281220   2.452   1.297   2.470  0.3810 -1.0321  0.4684
19910TIP3    H181221   2.396   1.372   2.449 -0.6080 -1.6040  1.0070
19910TIP3    H281222   2.505   1.327   2.543  0.4945 -0.6220  0.2221
19911TIP3   OH281223   5.303   5.090   2.808  0.1570 -0.1832 -0.3546
19911TIP3    H181224   5.241   5.072   2.879 -0.4763  1.2816 -0.4962
19911TIP3    H281225   5.389   5.073   2.847 -0.1770  0.6866  0.8152
19912TIP3   OH281226   2.434   1.972  16.826  0.4060  0.0105 -0.3148
19912TIP3    H181227   2.416   2.043  16.887  1.7822 -0.4381  0.6588
19912TIP3    H281228   2.347   1.943  16.796 -0.2538  0.7606  0.8071
19913TIP3   OH281229   6.836   3.940   2.279  0.7771  0.0607  0.2435
19913TIP3    H181230   6.791   4.023   2.293  1.9919  1.2561 -2.2710
19913TIP3    H281231   6.897   3.957   2.207  2.3215 -2.5663  0.7728
19914TIP3   OH281232   4.379   6.391  13.544 -0.3297  0.5915  0.4549
19914TIP3    H181233   4.380   6.335  13.467 -2.7709  0.7157  0.2409
19914TIP3    H281234   4.427   6.342  13.611 -2.7765 -2.0958  0.4299
19915TIP3   OH281235   0.483   0.506   2.039 -0.0634 -0.2540  0.3798
19915TIP3    H181236   0.468   0.563   2.114 -0.4193  1.4446 -0.9348
19915TIP3    H281237   0.395   0.488   2.004  0.0769 -1.2526  0.5033
19916TIP3   OH281238   2.288   5.803   4.932 -0.0513  0.3673 -0.1392
19916TIP3    H181239   2.263   5.869   4.868  0.9165  0.6249 -0.2633
19916TIP3    H281240   2.209   5.751   4.945 -0.9875  1.8374  0.3196
19917TIP3   OH281241   2.484   1.422   0.873  0.2315  0.4016 -0.1080
19917TIP3    H181242   2.410   1.482   0.880 -0.4069 -0.3689 -0.1417
19917TIP3    H281243   2.513   1.408   0.964 -2.2413 -2.4186  0.4118
19918TIP3   OH281244   3.797   2.476   0.770 -0.0757 -0.3663  0.3827
19918TIP3    H181245   3.761   2.488   0.682  1.3227 -0.9168 -0.3057
19918TIP3    H281246   3.886   2.511   0.764 -0.7117  1.8750  2.2845
19919TIP3   OH281247   0.016   2.716  15.226 -0.5368  0.0347  0.0407
19919TIP3    H181248   0.022   2.791  15.166 -0.6357  0.8838  1.0446
19919TIP3    H281249  -0.057   2.664  15.192  0.5037 -0.4623 -1.5667
19920TIP3   OH281250   5.178   1.410  14.326  0.5827 -0.4932  0.3023
19920TIP3    H181251   5.216   1.498  14.324 -1.3379  0.4290  1.3550
19920TIP3    H281252   5.238   1.359  14.380  1.0349  0.5274  0.7866
19921TIP3   OH281253   0.927   5.843   4.798  0.2394 -0.1092 -0.0718
19921TIP3    H181254   1.022   5.845   4.810  0.2162  0.9936  0.0591
19921TIP3    H281255   0.907   5.926   4.753 -0.3889 -1.3434 -2.2302
19922TIP3   OH281256   5.788   1.698  12.218 -0.0301 -0.4371 -0.1956
19922TIP3    H181257   5.817   1.785  12.190  0.7067 -0.6473 -0.1030
19922TIP3    H281258   5.730   1.668  12.147 -0.3934  0.1814 -0.1626
19923TIP3   OH281259   2.797   6.341  11.509  0.4702  0.0038 -1.0226
19923TIP3    H181260   2.722   6.372  11.560  0.3720 -0.1244 -1.0887
19923TIP3    H281261   2.782   6.247  11.498  1.5877 -0.4151  0.5982
19924TIP3   OH281262   1.661   0.914  13.605  0.1371 -0.2945 -0.2803
19924TIP3    H181263   1.641   0.968  13.681  1.5756 -0.0099 -0.0791
19924TIP3    H281264   1.755   0.924  13.592  0.4904 -2.7949 -0.1995
19925TIP3   OH281265   2.417   6.596  11.758 -0.0985 -0.3710  0.6013
19925TIP3    H181266   2.374   6.681  11.771  0.2799 -0.1525  0.4392
19925TIP3    H281267   2.381   6.541  11.828 -2.1528 -0.8029 -0.7066
19926TIP3   OH281268   3.346   1.253   3.804  0.0498 -0.0190  0.3560
19926TIP3    H181269   3.256   1.263   3.773  0.4422 -0.6098 -1.0696
19926TIP3    H281270   3.349   1.301   3.886 -0.8224  2.4882 -0.9666
19927TIP3   OH281271   1.468   5.469   1.284 -0.0982 -0.1094  0.1165
19927TIP3    H181272   1.425   5.525   1.219 -1.1129 -0.7424  0.2249
19927TIP3    H281273   1.509   5.399   1.233  0.6655  0.3929  0.0276
19928TIP3   OH281274   3.268   0.175   1.151 -0.4728 -0.9589  0.0168
19928TIP3    H181275   3.327   0.154   1.079 -0.6596 -0.3782 -0.3214
19928TIP3    H281276   3.197   0.111   1.144  1.7937 -4.1092  2.6412
19929TIP3   OH281277   1.616   2.595  11.471 -0.1413  0.2349 -0.5656
19929TIP3    H181278   1.676   2.655  11.514 -0.9837  0.5919  0.1259
19929TIP3    H281279   1.539   2.593  11.527 -1.1829  0.5377 -1.9445
19930TIP3   OH281280   2.262   4.900   1.857  0.5016  0.1096  0.1595
19930TIP3    H181281   2.210   4.916   1.778  1.0397  0.2358 -0.1707
19930TIP3    H281282   2.333   4.964   1.852 -0.5118  1.4405  1.7057
19931TIP3   OH281283   6.277   2.207  15.827  0.1318 -0.1925 -0.0645
19931TIP3    H181284   6.308   2.174  15.742 -0.8757  1.1395 -0.9883
19931TIP3    H281285   6.183   2.190  15.827 -0.2165  1.5564 -0.0834
19932TIP3   OH281286   6.373   6.180  16.183  0.1079  0.4463 -0.6205
19932TIP3    H181287   6.400   6.262  16.141  1.1378  0.1126 -0.6415
19932TIP3    H281288   6.380   6.115  16.113 -1.1236  0.4052 -0.7160
19933TIP3   OH281289   4.687   4.545   0.120  0.3648  0.0666 -0.7256
19933TIP3    H181290   4.626   4.560   0.047  2.5516 -0.9395 -2.9141
19933TIP3    H281291   4.773   4.565   0.083  1.8467 -2.9952  0.7582
19934TIP3   OH281292   3.079   4.283  14.553  0.3073  0.4444  0.7169
19934TIP3    H181293   3.106   4.350  14.616  0.1274  0.4876  0.7495
19934TIP3    H281294   3.009   4.236  14.598 -1.0595  1.6093 -0.1282
19935TIP3   OH281295   0.577   5.090   5.551  0.6547 -0.4323 -0.2977
19935TIP3    H181296   0.523   5.033   5.497 -0.9329 -0.2378  1.0132
19935TIP3    H281297   0.586   5.171   5.500  0.7215 -0.9004 -1.0345
19936TIP3   OH281298   2.657   5.297  12.354  0.3371 -0.4756 -0.0478
19936TIP3    H181299   2.605   5.302  12.274  0.5666  1.9761 -0.1167
19936TIP3    H281300   2.681   5.388  12.372  1.6918 -1.1710  1.8941
19937TIP3   OH281301   0.992   6.065   0.649  0.2463 -0.3674  0.0519
19937TIP3    H181302   0.897   6.072   0.657  0.1447  1.1574 -1.8578
19937TIP3    H281303   1.025   6.153   0.665  1.5188 -1.0935  1.8689
19938TIP3   OH281304   2.966   6.552   4.997  0.0793 -0.2237 -0.4206
19938TIP3    H181305   2.946   6.640   4.965  1.4329  0.4909  0.6086
19938TIP3    H281306   2.914   6.543   5.076 -2.1776 -1.4579 -1.9143
19939TIP3   OH281307   2.158   1.573   2.745 -0.0175  0.3226 -0.1317
19939TIP3    H181308   2.178   1.486   2.780 -0.3844 -0.0269 -0.7817
19939TIP3    H281309   2.067   1.589   2.771 -1.0977 -0.9308 -2.8572
19940TIP3   OH281310   4.934   3.363  16.886  0.8217  0.2847  0.2173
19940TIP3    H181311   4.889   3.302  16.944 -0.6280 -0.1119 -1.2524
19940TIP3    H281312   4.985   3.419  16.944  1.0837 -1.4144  1.6998
19941TIP3   OH281313   3.870   1.217   4.596  0.0933  1.0107 -0.0304
19941TIP3    H181314   3.926   1.188   4.523 -0.6327 -2.1619  0.5473
19941TIP3    H281315   3.927   1.213   4.672  0.0455  1.4352  0.0321
19942TIP3   OH281316   3.368   1.061  16.780 -0.2456 -0.1684 -0.7637
19942TIP3    H181317   3.347   1.152  16.801 -0.7321 -0.1795 -1.1790
19942TIP3    H281318   3.376   1.018  16.865 -0.0409  0.2542 -0.5667
19943TIP3   OH281319   4.175   5.076  13.556  0.3600 -0.0560 -0.3147
19943TIP3    H181320   4.081   5.069  13.539  0.8483 -1.9857 -2.7101
19943TIP3    H281321   4.213   4.999  13.515  3.0566  0.7966  0.3739
19944TIP3   OH281322   4.324   4.251   2.889 -0.1211 -0.0185 -0.4436
19944TIP3    H181323   4.339   4.339   2.855  1.4768 -0.1239 -0.0905
19944TIP3    H281324   4.239   4.256   2.933  0.7465  1.8393  1.1188
19945TIP3   OH281325   2.399   4.997  12.609  0.0519 -0.6809 -0.6366
19945TIP3    H181326   2.434   5.086  12.620  0.9031 -1.2286  1.6716
19945TIP3    H281327   2.476   4.940  12.615 -0.7063 -1.6688 -0.0017
19946TIP3   OH281328   0.316   3.006  16.751  0.1557  0.0817 -0.0654
19946TIP3    H181329   0.255   2.944  16.790  0.4216 -0.2578 -0.1844
19946TIP3    H281330   0.394   2.955  16.732  0.8817  0.7362  1.0544
19947TIP3   OH281331   1.361   2.263   1.653 -0.6784 -0.0808 -0.0786
19947TIP3    H181332   1.373   2.182   1.604 -1.9267 -0.6998  0.5782
19947TIP3    H281333   1.439   2.272   1.707  1.3166  1.2396 -2.9465
19948TIP3   OH281334   4.997   5.684   1.495  0.6105 -0.1811  0.3562
19948TIP3    H181335   5.069   5.667   1.435 -0.2670  0.1065 -0.8098
19948TIP3    H281336   5.011   5.622   1.567  1.2738 -1.0345 -0.4844
19949TIP3   OH281337   6.401   2.301   2.990  0.5105 -0.1385 -0.6640
19949TIP3    H181338   6.479   2.302   2.934 -0.4108 -0.0865 -1.9975
19949TIP3    H281339   6.416   2.228   3.050  1.7468  0.1058 -0.6398
19950TIP3   OH281340   1.461   4.740  12.359 -0.2198  0.3375 -0.3569
19950TIP3    H181341   1.375   4.733  12.318 -0.1558  0.7275 -0.5649
19950TIP3    H281342   1.454   4.687  12.439 -0.3032 -0.5410 -0.9315
19951TIP3   OH281343   0.934   5.903  15.884  0.4749 -0.0963 -0.2779
19951TIP3    H181344   0.907   5.915  15.975 -1.1907 -0.4900 -0.7015
19951TIP3    H281345   0.885   5.827  15.854  0.7170  0.2572 -1.6232
19952TIP3   OH281346   4.098   0.656  11.292 -0.9435  0.5238  0.0731
19952TIP3    H181347   4.005   0.677  11.288 -1.0733  0.1428  0.9690
19952TIP3    H281348   4.102   0.566  11.324 -0.3495 -0.5723 -2.7806
19953TIP3   OH281349   2.889   6.389  12.248 -0.1140  0.1788  0.2118
19953TIP3    H181350   2.927   6.375  12.335 -1.2057  0.0202  0.6809
19953TIP3    H281351   2.908   6.481  12.229 -0.1681  0.3097  0.7661
19954TIP3   OH281352   5.669   6.474   3.057 -0.3546 -0.1341 -0.4397
19954TIP3    H181353   5.615   6.416   3.111  0.1790 -1.3891 -1.2199
19954TIP3    H281354   5.687   6.424   2.978  0.1391  1.1022 -1.1417
19955TIP3   OH281355   1.064   5.922   2.824 -0.2378  0.0038 -0.0831
19955TIP3    H181356   1.099   5.838   2.795 -0.1833 -0.2452  0.6812
19955TIP3    H281357   1.007   5.951   2.753 -1.6579 -1.5164  0.3728
19956TIP3   OH281358   5.820   0.185   4.688  0.4814  0.4260  0.1154
19956TIP3    H181359   5.889   0.126   4.719 -0.3085 -0.8115 -0.3889
19956TIP3    H281360   5.740   0.149   4.726  0.1583  2.2640  1.2924
19957TIP3   OH281361   1.555   1.827  17.037 -0.0118  0.4106 -0.1776
19957TIP3    H181362   1.641   1.785  17.037 -0.1714 -0.0048  1.8615
19957TIP3    H281363   1.542   1.856  17.127 -0.7575  3.1470 -1.0563
19958TIP3   OH281364   5.140   5.873   4.617 -0.5799 -0.1127  0.2715
19958TIP3    H181365   5.081   5.944   4.591 -1.7199 -1.7343 -1.9857
19958TIP3    H281366   5.082   5.805   4.651  0.3532 -0.5111  1.1239
19959TIP3   OH281367   4.504   4.697  14.876 -0.4939 -0.0905 -0.2760
19959TIP3    H181368   4.569   4.741  14.821  0.9984 -0.5254  1.0674
19959TIP3    H281369   4.468   4.766  14.931  0.9724 -0.2761  0.9866
19960TIP3   OH281370   5.681   1.601  15.076 -0.8460  0.1591  0.9750
19960TIP3    H181371   5.705   1.693  15.078 -0.0018  0.0262 -0.8509
19960TIP3    H281372   5.663   1.582  14.984 -0.1806 -1.6727  1.1580
19961TIP3   OH281373   3.094   0.699  13.458 -0.0991 -0.4294  0.0269
19961TIP3    H181374   3.136   0.725  13.540 -1.9342  1.0384  0.5749
19961TIP3    H281375   3.049   0.617  13.480 -1.1424  0.3040  0.7144
19962TIP3   OH281376   5.713   0.710  14.783  0.9180  0.2725 -0.3228
19962TIP3    H181377   5.707   0.804  14.764  1.6377  0.1737 -1.1061
19962TIP3    H281378   5.673   0.700  14.869  0.8961  1.3111 -0.2044
19963TIP3   OH281379   6.269   3.124  14.270  0.6559  0.6113  0.4232
19963TIP3    H181380   6.223   3.191  14.220 -0.0199 -0.2622 -0.1587
19963TIP3    H281381   6.201   3.084  14.325  0.6593 -0.7764 -0.5363
19964TIP3   OH281382   4.631   3.498   0.446  0.1425  0.6186  0.0474
19964TIP3    H181383   4.645   3.468   0.536 -0.9602  0.9549  0.3399
19964TIP3    H281384   4.594   3.586   0.454 -3.3523 -0.6083 -0.5547
19965TIP3   OH281385   3.438   3.103   2.682 -1.0108 -0.0795  0.0376
19965TIP3    H181386   3.472   3.192   2.670  1.6155 -1.0138  0.0326
19965TIP3    H281387   3.361   3.099   2.625  0.3081  1.4001 -1.9803
19966TIP3   OH281388   0.311   4.106  12.315 -0.7925  0.4801 -0.0366
19966TIP3    H181389   0.307   4.114  12.219 -2.2638  0.1128 -0.0310
19966TIP3    H281390   0.272   4.020  12.333  2.1589 -0.8241  0.7284
19967TIP3   OH281391   3.296   1.981   3.595 -0.0855 -0.3614 -0.1816
19967TIP3    H181392   3.239   2.055   3.574 -0.4567 -0.2100  1.2416
19967TIP3    H281393   3.381   2.005   3.558 -0.2831  0.6324 -0.0197
19968TIP3   OH281394   5.698   2.574  14.403 -0.1352 -0.1312 -0.6528
19968TIP3    H181395   5.710   2.650  14.346  0.6325  0.9266  0.8518
19968TIP3    H281396   5.786   2.544  14.423 -0.4045 -0.7958 -0.4266
19969TIP3   OH281397   4.641   3.258  12.692  0.0371  0.2227 -0.2565
19969TIP3    H181398   4.597   3.333  12.733 -2.8871 -0.7643 -1.3929
19969TIP3    H281399   4.646   3.281  12.599 -2.9860 -1.7425 -1.0589
19970TIP3   OH281400   1.567   1.196  15.822 -0.2318  0.0793  0.9270
19970TIP3    H181401   1.567   1.102  15.805  1.2271  0.6016 -3.3090
19970TIP3    H281402   1.658   1.222  15.812 -0.7503  2.0596  0.9177
19971TIP3   OH281403   3.055   0.540  14.232 -0.2737  0.5599  0.7541
19971TIP3    H181404   3.131   0.572  14.183 -0.9148 -1.2944 -1.6868
19971TIP3    H281405   3.093   0.502  14.312  1.0812  1.7481  0.7252
19972TIP3   OH281406   4.050   0.113  12.887 -0.3386 -0.3319 -0.4638
19972TIP3    H181407   4.109   0.038  12.895 -0.9034 -0.7163  0.2474
19972TIP3    H281408   4.008   0.101  12.802  1.4648  0.6057 -1.5482
19973TIP3   OH281409   4.783   4.035  14.770  0.2271 -0.0287 -0.0988
19973TIP3    H181410   4.834   3.961  14.734 -0.8773 -0.6105 -0.5133
19973TIP3    H281411   4.715   4.051  14.704 -2.0570 -1.3177  1.7990
19974TIP3   OH281412   4.425   6.225  12.852 -0.3621 -0.4349 -0.1757
19974TIP3    H181413   4.509   6.186  12.876 -0.2563  0.0065  0.1921
19974TIP3    H281414   4.445   6.318  12.840 -0.8445 -0.2877  0.1504
19975TIP3   OH281415   1.520   4.030   5.744  0.2879 -0.2381  0.1668
19975TIP3    H181416   1.503   4.040   5.838  1.1984 -1.0693  0.4363
19975TIP3    H281417   1.434   4.038   5.703  0.1710  3.2602  0.7380
19976TIP3   OH281418   5.938   3.020   0.990  0.0919  0.4885 -0.1183
19976TIP3    H181419   5.898   2.962   0.925  1.2093  1.0620 -1.3873
19976TIP3    H281420   6.028   2.987   0.998  0.1408  0.8062  0.6808
19977TIP3   OH281421   2.363   3.979   6.344  0.3265 -0.0494  0.1531
19977TIP3    H181422   2.396   3.976   6.254  0.7059  1.0929  0.2421
19977TIP3    H281423   2.310   3.899   6.353  0.7037 -0.4346 -0.9123
19978TIP3   OH281424   4.722   0.227  12.149  0.7337  0.0433  0.3964
19978TIP3    H181425   4.810   0.235  12.185  1.0046 -1.2011  0.0711
19978TIP3    H281426   4.730   0.158  12.083 -0.0536  1.2950 -1.0545
19979TIP3   OH281427   3.017   1.731  15.711 -0.4019  0.4393 -0.3573
19979TIP3    H181428   2.976   1.730  15.624 -0.8351 -1.4968 -0.1687
19979TIP3    H281429   3.050   1.821  15.720 -1.7101  1.1373 -1.8692
19980TIP3   OH281430   4.905   4.587  15.341  0.1847 -0.1405 -0.0634
19980TIP3    H181431   4.842   4.525  15.378  1.7361 -1.7537  0.0213
19980TIP3    H281432   4.977   4.532  15.309  1.5634  1.6122 -0.1417
19981TIP3   OH281433   6.406   1.984  14.235 -0.3237 -0.1546 -0.4739
19981TIP3    H181434   6.420   2.054  14.299 -1.3148 -1.3586  1.1477
19981TIP3    H281435   6.486   1.931  14.240 -0.5408 -0.4406  0.0449
19982TIP3   OH281436   0.679   1.966   3.536 -0.0012  0.1943  0.2192
19982TIP3    H181437   0.755   1.909   3.521  1.1845  1.6120  0.7267
19982TIP3    H281438   0.616   1.939   3.469  1.3895 -0.2417 -0.9547
19983TIP3   OH281439   2.245   5.270  14.881  0.4579 -0.0620  0.0299
19983TIP3    H181440   2.206   5.184  14.896  0.9516 -0.2166  0.4984
19983TIP3    H281441   2.189   5.311  14.816  0.1360 -0.6873 -0.1005
19984TIP3   OH281442   3.682   0.483  14.377  0.2752  0.8601  0.4166
19984TIP3    H181443   3.745   0.418  14.408  0.9368  1.5746  0.6073
19984TIP3    H281444   3.693   0.485  14.282  0.9467  1.3753  0.4969
19985TIP3   OH281445   1.018   4.522   0.702 -0.4976 -0.0275 -0.3605
19985TIP3    H181446   0.963   4.508   0.625 -1.7786  2.4293  0.0298
19985TIP3    H281447   0.962   4.499   0.776  1.0965 -3.5755 -0.0183
19986TIP3   OH281448   5.584   6.419   4.570  0.4130  0.2935 -0.2525
19986TIP3    H181449   5.569   6.503   4.527 -0.3891 -0.3073 -1.1673
19986TIP3    H281450   5.673   6.395   4.546  1.9011  2.3026  2.5273
19987TIP3   OH281451   1.061   3.908   1.492 -0.7561 -0.3152 -0.6462
19987TIP3    H181452   1.079   3.860   1.572  0.9842  0.8426 -0.2831
19987TIP3    H281453   0.996   3.973   1.518 -1.0642 -0.6887 -0.4703
19988TIP3   OH281454   4.071   5.162   3.907 -0.1762  0.4589 -0.1897
19988TIP3    H181455   4.076   5.241   3.962 -2.3581 -0.0544  0.8489
19988TIP3    H281456   4.031   5.191   3.826  0.1131  0.6338 -0.2702
19989TIP3   OH281457   1.670   2.791   6.108  0.5827  0.2976  0.5200
19989TIP3    H181458   1.673   2.784   6.204 -1.2796 -0.0688  0.5856
19989TIP3    H281459   1.619   2.871   6.092  0.1982 -0.0788 -0.1579
19990TIP3   OH281460   1.562   2.887  16.158  0.6697 -0.6073 -0.6531
19990TIP3    H181461   1.606   2.952  16.103  0.6191 -0.2285 -0.2493
19990TIP3    H281462   1.560   2.926  16.245 -0.2157 -0.7507 -0.6071
19991TIP3   OH281463   3.488   5.247  12.212  0.1235 -0.4807  0.2810
19991TIP3    H181464   3.496   5.277  12.121 -0.3712 -0.4138  0.2552
19991TIP3    H281465   3.475   5.152  12.204  0.9187 -0.5984  0.3259
19992TIP3   OH281466   2.006   6.204   4.610 -0.1988 -0.2209  0.0121
19992TIP3    H181467   2.048   6.238   4.531  0.7955  0.0935  0.6649
19992TIP3    H281468   1.912   6.211   4.592  0.0019  1.1306 -0.5964
19993TIP3   OH281469   2.812   5.023   4.874 -0.0676  0.4936 -0.5298
19993TIP3    H181470   2.813   4.992   4.964  0.6532  0.5567 -0.5165
19993TIP3    H281471   2.720   5.014   4.847 -0.7638  2.5540  0.9225
19994TIP3   OH281472   0.871   4.411   3.815  0.0078 -0.3222  0.1301
19994TIP3    H181473   0.926   4.457   3.878  0.7130 -2.8934  1.5550
19994TIP3    H281474   0.799   4.376   3.867  0.1371 -1.7702 -0.6192
19995TIP3   OH281475   1.456   3.539  16.905 -0.2639 -0.1607 -0.0573
19995TIP3    H181476   1.524   3.576  16.961 -0.2749  0.0719 -0.1976
19995TIP3    H281477   1.487   3.553  16.816 -2.3748  3.8832 -0.3972
19996TIP3   OH281478   1.005   1.842   5.213 -0.4317 -0.0810 -0.2889
19996TIP3    H181479   1.057   1.900   5.157  1.2448 -0.1477  1.1299
19996TIP3    H281480   0.916   1.849   5.177  0.2190  1.2860 -1.7998
19997TIP3   OH281481   2.898   3.950  10.935 -0.0002 -0.2926 -0.0013
19997TIP3    H181482   2.910   3.992  10.850  0.5556  0.0261  0.2298
19997TIP3    H281483   2.807   3.969  10.959 -0.0496 -0.0772 -0.3574
19998TIP3   OH281484   3.000   3.239   4.779  0.0044 -0.4281  0.1265
19998TIP3    H181485   3.059   3.165   4.766  0.9705  0.2035  0.7912
19998TIP3    H281486   2.977   3.236   4.872 -1.5827 -1.0493 -0.2387
19999TIP3   OH281487   1.048   3.063  15.389 -0.1364  0.1647  0.4240
19999TIP3    H181488   1.031   3.149  15.427 -0.7235 -0.4068  1.5046
19999TIP3    H281489   1.036   3.002  15.462 -0.6810 -0.9144 -0.5446
20000TIP3   OH281490   4.212   6.434  14.174 -0.0171 -0.0441 -0.8253
20000TIP3    H181491   4.255   6.401  14.095 -0.2310  0.6807 -1.2455
20000TIP3    H281492   4.255   6.386  14.245  0.4618 -0.4056 -1.3468
20001TIP3   OH281493   1.682   6.285  16.620 -0.5415 -0.3315  0.0382
20001TIP3    H181494   1.675   6.323  16.708 -1.9940 -1.2245  0.3352
20001TIP3    H281495   1.697   6.192  16.636  1.2126 -0.1968 -0.6841
20002TIP3   OH281496   5.203   2.649   6.277  0.5862 -0.3180  0.8135
20002TIP3    H181497   5.228   2.601   6.356 -0.0970 -0.7025  0.8080
20002TIP3    H281498   5.108   2.639   6.273  0.8385 -3.6245 -2.0979
20003TIP3   OH281499   5.321   0.555   1.430 -0.5869  0.4067  0.4453
20003TIP3    H181500   5.253   0.622   1.431  0.0923  1.1296 -0.1944
20003TIP3    H281501   5.402   0.604   1.414  0.0224 -0.4850  0.7250
20004TIP3   OH281502   1.365   3.194  16.125  0.3255 -0.2359  0.0207
20004TIP3    H181503   1.318   3.121  16.165  1.9644 -1.4544 -0.1820
20004TIP3    H281504   1.452   3.191  16.164  0.7298  0.9977 -0.7394
20005TIP3   OH281505   5.283   2.489  10.994  0.2524  0.2558  0.4360
20005TIP3    H181506   5.220   2.487  10.921 -0.5156 -0.4692  1.0949
20005TIP3    H281507   5.292   2.581  11.016  0.4533  0.4863 -0.5274
20006TIP3   OH281508   4.587   5.619   1.033  0.6723  0.7968  0.0992
20006TIP3    H181509   4.525   5.547   1.015 -0.0811  1.3320  0.4997
20006TIP3    H281510   4.535   5.684   1.080  1.6080  1.1665  0.6467
20007TIP3   OH281511   1.847   4.077   2.423  0.2906 -0.0322  0.2489
20007TIP3    H181512   1.921   4.136   2.406 -0.1433 -0.2690 -3.1238
20007TIP3    H281513   1.784   4.131   2.471  1.3144  1.1442  0.3343
20008TIP3   OH281514   1.675   3.830  15.583 -0.1652  0.1310  0.4327
20008TIP3    H181515   1.712   3.913  15.614  1.5048 -1.2258  2.3312
20008TIP3    H281516   1.682   3.772  15.658  1.5453 -2.6311 -1.7020
20009TIP3   OH281517   0.034   4.013   6.053  0.4975  0.2402  0.1793
20009TIP3    H181518   0.053   3.964   6.133 -0.0111  0.2264  0.2949
20009TIP3    H281519   0.073   4.099   6.066  1.0207  0.0088  0.1545
20010TIP3   OH281520   1.394   5.903   4.570 -0.6113  0.6824  0.3544
20010TIP3    H181521   1.376   5.947   4.487  0.4568 -0.9339 -0.7901
20010TIP3    H281522   1.467   5.844   4.550 -0.0365  0.5803  2.5664
20011TIP3   OH281523   2.551   2.361  14.358 -0.3731 -0.1381  0.0271
20011TIP3    H181524   2.603   2.281  14.353  2.0420  1.3252 -0.2891
20011TIP3    H281525   2.514   2.372  14.271  2.2651  0.8281 -1.0910
20012TIP3   OH281526   4.794   3.194   1.032  0.6686 -0.3970  0.1272
20012TIP3    H181527   4.848   3.135   1.084  1.6539 -1.7241 -2.2643
20012TIP3    H281528   4.856   3.251   0.985 -0.1113 -0.0572 -0.5329
20013TIP3   OH281529   3.865   2.363  12.939  0.8443  0.2660  0.4606
20013TIP3    H181530   3.833   2.436  12.884 -0.2480 -0.7762 -0.3459
20013TIP3    H281531   3.898   2.406  13.018  2.1927  1.8129 -0.8567
20014TIP3   OH281532   6.023   3.584  14.280 -0.2027 -0.3561 -0.3602
20014TIP3    H181533   5.965   3.659  14.265  0.1610 -0.0978 -0.4998
20014TIP3    H281534   6.048   3.591  14.372  1.2107  0.7039 -0.7981
20015TIP3   OH281535   6.678   4.066   0.018  0.2884  0.0650  0.4129
20015TIP3    H181536   6.702   4.136  -0.042  0.8096 -0.0431  0.4862
20015TIP3    H281537   6.657   3.992  -0.040 -2.8255  0.9651  0.1879
20016TIP3   OH281538   4.287   1.506  15.910 -0.2017 -0.5459  0.7263
20016TIP3    H181539   4.258   1.468  15.828 -0.8121  0.1165  0.6234
20016TIP3    H281540   4.305   1.431  15.967  1.7486 -1.0888 -0.4833
20017TIP3   OH281541   1.293   5.305  10.690  0.0616 -0.0503  0.0216
20017TIP3    H181542   1.314   5.293  10.598  2.1781 -0.3074  0.4979
20017TIP3    H281543   1.371   5.343  10.728 -2.1946  4.3039  0.9537
20018TIP3   OH281544   3.435   1.231  13.054 -0.9847  0.5957 -0.0979
20018TIP3    H181545   3.433   1.137  13.037 -2.1121  0.9478 -2.2684
20018TIP3    H281546   3.517   1.261  13.014 -0.4532  0.5118  0.9003
20019TIP3   OH281547   4.207   6.352   4.320  0.0369 -0.2495  0.1863
20019TIP3    H181548   4.183   6.367   4.411 -0.2509 -0.5461  0.1607
20019TIP3    H281549   4.178   6.263   4.302  0.7555 -0.4578  0.0226
20020TIP3   OH281550   4.304   6.802  14.979 -0.2440 -0.0273 -0.2362
20020TIP3    H181551   4.387   6.759  14.959  0.2662  1.4434 -1.4782
20020TIP3    H281552   4.242   6.730  14.992  0.6873 -1.1645 -1.7117
20021TIP3   OH281553   4.412   5.017  14.276  0.3089 -0.1362 -0.3804
20021TIP3    H181554   4.372   4.969  14.203  1.4850  0.8898 -1.7563
20021TIP3    H281555   4.356   4.997  14.351 -0.8139 -1.4196 -1.5009
20022TIP3   OH281556   4.522   3.693  15.203 -0.1285 -0.1189 -0.1328
20022TIP3    H181557   4.567   3.696  15.119  0.8233  1.7419  0.3924
20022TIP3    H281558   4.551   3.611  15.243  0.6818 -0.2373 -0.9408
20023TIP3   OH281559   6.787   3.609   6.288 -0.0067 -0.2044 -0.3676
20023TIP3    H181560   6.700   3.572   6.296  0.0430 -0.1709  0.4277
20023TIP3    H281561   6.790   3.678   6.355  0.5457 -0.0559 -0.5377
20024TIP3   OH281562   2.232   0.504  13.981  0.2111 -0.6096 -0.1249
20024TIP3    H181563   2.256   0.592  13.953  0.9526 -0.7649  0.0023
20024TIP3    H281564   2.283   0.489  14.061  0.1757 -1.1897 -0.2037
20025TIP3   OH281565   0.449   5.242   3.185  0.0296  0.4175 -0.6955
20025TIP3    H181566   0.418   5.198   3.105  0.3619  1.0052 -1.1504
20025TIP3    H281567   0.394   5.205   3.254  0.6765 -1.1341 -0.9778
20026TIP3   OH281568   4.896   2.320  13.675 -0.0659  0.6522 -1.1260
20026TIP3    H181569   4.926   2.349  13.589 -2.8170  2.9241 -1.4997
20026TIP3    H281570   4.809   2.359  13.684 -0.9927 -1.6706  1.6316
20027TIP3   OH281571   4.429   2.755   3.703  0.3189  0.4220 -0.2580
20027TIP3    H181572   4.341   2.790   3.691 -0.1819  1.0297  3.8077
20027TIP3    H281573   4.487   2.831   3.697 -0.0088  0.8588  1.5031
20028TIP3   OH281574   0.171   1.995   4.230  0.5350 -0.0204 -0.6652
20028TIP3    H181575   0.100   1.997   4.295  0.2269  1.3487 -1.0019
20028TIP3    H281576   0.235   2.058   4.263  1.2656 -0.7085 -0.7393
20029TIP3   OH281577   2.650   6.278  16.722 -0.2516 -0.0124 -0.0177
20029TIP3    H181578   2.631   6.185  16.713 -1.3873  0.0824  1.1227
20029TIP3    H281579   2.636   6.315  16.634  2.3940 -1.2343 -1.0524
20030TIP3   OH281580   3.031   4.496   4.755 -0.2506  0.6648  0.4304
20030TIP3    H181581   3.116   4.534   4.779 -0.0529 -0.2641  1.2830
20030TIP3    H281582   3.002   4.451   4.834 -1.4943  0.8659  0.1094
20031TIP3   OH281583   6.707   5.509   4.978  0.3522  0.3255 -0.0326
20031TIP3    H181584   6.654   5.567   4.923  0.1260 -0.1461 -0.3085
20031TIP3    H281585   6.691   5.421   4.945  0.3616  0.0523  0.6597
20032TIP3   OH281586   3.821   2.929  16.738 -0.2674 -0.2972  0.0535
20032TIP3    H181587   3.741   2.982  16.737 -1.1991 -1.6506  0.2154
20032TIP3    H281588   3.853   2.931  16.648 -0.0369  0.8832  0.1486
20033TIP3   OH281589   4.952   3.644  15.108  0.1935 -0.4368  0.5250
20033TIP3    H181590   4.943   3.586  15.032  1.6246  1.3893 -1.1545
20033TIP3    H281591   5.046   3.655  15.119  0.0268 -0.9283  2.8398
20034TIP3   OH281592   5.685   5.001   5.407 -0.1902 -0.0987  0.3159
20034TIP3    H181593   5.616   5.058   5.373 -0.1114  1.6245  2.7812
20034TIP3    H281594   5.759   5.016   5.348 -0.3578  1.9936  0.5567
20035TIP3   OH281595   1.076   2.185   1.673  0.4282 -0.4252  0.2040
20035TIP3    H181596   1.107   2.134   1.748  0.0517  0.1833  0.7968
20035TIP3    H281597   1.156   2.218   1.632  0.6752 -1.4880 -0.2023
20036TIP3   OH281598   5.067   1.300   3.823  0.6012 -0.9803  0.1661
20036TIP3    H181599   5.111   1.218   3.801 -0.1899 -1.2267 -0.5164
20036TIP3    H281600   5.091   1.316   3.915 -0.1852 -2.5763  0.6704
20037TIP3   OH281601   5.395   2.230   5.458 -0.1449  0.3872  0.3593
20037TIP3    H181602   5.338   2.306   5.441  0.4029  0.5979 -0.5990
20037TIP3    H281603   5.455   2.261   5.526 -0.1933  0.6749  0.2762
20038TIP3   OH281604   6.043   6.738  16.373  0.5378  0.0260  0.1441
20038TIP3    H181605   6.006   6.707  16.290  1.5302  0.4371 -0.4773
20038TIP3    H281606   6.091   6.662  16.407  0.5219 -0.0061  0.0961
20039TIP3   OH281607   1.684   1.399   6.267  0.0000 -0.0771 -0.4759
20039TIP3    H181608   1.608   1.350   6.237 -0.9066  0.2333  1.1665
20039TIP3    H281609   1.756   1.335   6.267 -0.8789 -1.1054  0.4493
20040TIP3   OH281610   1.619   2.396  14.969 -0.7657  0.1614  0.4201
20040TIP3    H181611   1.596   2.340  14.895  2.1847 -1.9849  0.9137
20040TIP3    H281612   1.576   2.355  15.045 -0.5268 -0.0663  0.4367
20041TIP3   OH281613   2.394   3.979   5.005  0.2042 -0.8549 -0.4325
20041TIP3    H181614   2.414   4.018   4.920 -0.5453 -0.1801 -0.3085
20041TIP3    H281615   2.301   3.957   5.000  0.1555 -0.7991  0.2212
20042TIP3   OH281616   3.581   0.050   4.019  0.6013 -0.1640  0.0033
20042TIP3    H181617   3.621  -0.027   4.060 -0.5795 -0.8012 -0.0004
20042TIP3    H281618   3.507   0.072   4.076  0.2285  0.2585 -0.6243
20043TIP3   OH281619   5.116   0.832  10.755 -0.2024 -0.1976 -0.1229
20043TIP3    H181620   5.203   0.869  10.770 -0.9982  1.9664 -0.5139
20043TIP3    H281621   5.108   0.763  10.821  1.4498  0.1690  0.5236
20044TIP3   OH281622   4.710   1.811   4.360 -0.0658 -0.0187 -0.1800
20044TIP3    H181623   4.712   1.907   4.364 -1.9304  0.2012 -2.3297
20044TIP3    H281624   4.623   1.787   4.391 -0.0707 -0.9169 -0.8465
20045TIP3   OH281625   1.018   1.637  16.124  0.1017  0.3350  0.2011
20045TIP3    H181626   0.969   1.704  16.171 -0.0981  1.3227 -1.3394
20045TIP3    H281627   1.005   1.659  16.032 -2.0712 -3.2496 -0.5368
20046TIP3   OH281628   6.033   1.537  15.960  0.0855  0.1881  0.0185
20046TIP3    H181629   6.071   1.475  15.897  0.9142  1.1697 -0.4666
20046TIP3    H281630   6.036   1.491  16.044  2.1814  0.1413 -0.0351
20047TIP3   OH281631   1.621   5.284   1.481  0.1693 -0.1002 -0.2180
20047TIP3    H181632   1.686   5.351   1.461  0.6733  0.0359  1.6594
20047TIP3    H281633   1.552   5.330   1.530 -0.4993 -0.5645 -0.7011
20048TIP3   OH281634   4.967   3.607   4.355  0.0312 -0.4032  0.0345
20048TIP3    H181635   5.009   3.629   4.272  0.6674 -0.5365  0.3180
20048TIP3    H281636   5.032   3.556   4.402 -0.0453  0.3103  0.9303
20049TIP3   OH281637   5.698   5.327   2.399  0.2759 -0.4333 -0.1600
20049TIP3    H181638   5.630   5.341   2.465  0.1751  0.9066 -0.5079
20049TIP3    H281639   5.654   5.348   2.316  0.9570 -0.0681 -0.4371
20050TIP3   OH281640   0.726   6.394  15.327  0.8655 -0.2534  0.4553
20050TIP3    H181641   0.720   6.345  15.409  0.3800  1.8499  1.7555
20050TIP3    H281642   0.806   6.445  15.336  2.2728 -1.9343 -1.5915
20051TIP3   OH281643   6.174   0.680  13.061 -0.1418 -0.0177 -0.8671
20051TIP3    H181644   6.110   0.683  12.989 -0.8927 -0.9405 -0.2663
20051TIP3    H281645   6.238   0.615  13.033 -0.5037 -0.4705 -0.6585
20052TIP3   OH281646   1.819   0.872   1.835 -0.1563 -0.1498 -0.1657
20052TIP3    H181647   1.746   0.831   1.787 -0.8250  0.3323  0.4075
20052TIP3    H281648   1.809   0.966   1.817  1.7105 -0.2249 -1.9538
20053TIP3   OH281649   3.562   6.002  13.212 -0.1392  0.1973 -0.6784
20053TIP3    H181650   3.613   5.942  13.267  0.2176 -0.4589 -1.7057
20053TIP3    H281651   3.498   6.041  13.272  0.2478 -0.4897  0.1989
20054TIP3   OH281652   1.082   0.294   3.140 -0.0733 -0.4589  0.0267
20054TIP3    H181653   1.111   0.365   3.198  0.3783 -2.0126  1.8026
20054TIP3    H281654   1.163   0.261   3.101 -0.3802  0.6030 -1.5911
20055TIP3   OH281655   5.418   4.466  15.625  0.0251  0.1343  0.1877
20055TIP3    H181656   5.426   4.422  15.540 -1.5302 -0.9460  0.5458
20055TIP3    H281657   5.323   4.479  15.636  0.3466  2.5918  0.6268
20056TIP3   OH281658   5.906   5.507   2.002  0.0535 -0.2585 -1.1069
20056TIP3    H181659   5.941   5.579   2.055  2.4600 -1.3297 -1.0906
20056TIP3    H281660   5.815   5.530   1.987 -0.0092  1.3936  1.2508
20057TIP3   OH281661   3.582   1.004  14.342  0.7294 -0.0718  0.2609
20057TIP3    H181662   3.644   1.066  14.304 -0.3189  0.6295 -0.3590
20057TIP3    H281663   3.616   0.918  14.318  0.3501  0.3356 -1.8829
20058TIP3   OH281664   3.295   0.278  12.396 -0.4817  0.6649 -0.1847
20058TIP3    H181665   3.293   0.250  12.304  0.1900  0.4822 -0.1518
20058TIP3    H281666   3.388   0.298  12.412 -0.7457  1.6632  0.1586
20059TIP3   OH281667   3.972   5.549   3.126  0.7797 -0.1180  0.3504
20059TIP3    H181668   3.983   5.458   3.153  0.8539 -0.1315  0.2757
20059TIP3    H281669   3.974   5.546   3.030  0.8085 -0.0347  0.3482
20060TIP3   OH281670   0.363   5.000   4.648 -0.5223  0.1237  0.1517
20060TIP3    H181671   0.311   4.929   4.684 -0.8725  0.0708 -0.4324
20060TIP3    H281672   0.320   5.020   4.564  2.5027 -2.4373 -2.2642
20061TIP3   OH281673   0.270   5.814  12.088 -0.0787  0.4408  0.2951
20061TIP3    H181674   0.194   5.762  12.115  0.3321 -0.8469 -0.8837
20061TIP3    H281675   0.247   5.848  12.002  0.4661  0.4927  0.1640
20062TIP3   OH281676   2.706   6.645  12.313 -0.3757  0.1231  0.2961
20062TIP3    H181677   2.731   6.669  12.223  0.2038  0.6799  0.5990
20062TIP3    H281678   2.790   6.629  12.357 -0.6000  0.8584  1.0092
20063TIP3   OH281679   4.978   3.024   3.646 -0.1179 -0.0520 -0.7897
20063TIP3    H181680   4.890   3.019   3.611 -1.1166 -1.0499  1.6640
20063TIP3    H281681   4.974   3.092   3.713  1.1241  0.2918 -1.0348
20064TIP3   OH281682   3.012   1.194   5.157 -0.1188 -0.4496  0.3113
20064TIP3    H181683   3.056   1.164   5.077  0.7071  0.3601  0.4358
20064TIP3    H281684   2.920   1.203   5.132 -0.2930 -2.4244  0.1103
20065TIP3   OH281685   5.766   5.991   2.379  0.1103 -0.2394  0.2498
20065TIP3    H181686   5.755   5.961   2.289  1.3912  0.0821 -0.0478
20065TIP3    H281687   5.814   5.920   2.422 -0.5020 -0.3954  0.6895
20066TIP3   OH281688   5.634   4.585  16.843 -0.5374  0.5572  0.3398
20066TIP3    H181689   5.644   4.677  16.820 -0.8200  0.4305 -0.3159
20066TIP3    H281690   5.705   4.541  16.796 -0.6967  0.3819  0.2617
20067TIP3   OH281691   5.631   2.810  13.806  0.2255  0.1735  0.6626
20067TIP3    H181692   5.563   2.872  13.782 -0.4237 -0.9882 -0.6352
20067TIP3    H281693   5.645   2.758  13.727  0.3785 -1.6635  1.8389
20068TIP3   OH281694   1.955   5.318  14.380 -0.2188  0.8350  0.1513
20068TIP3    H181695   1.874   5.301  14.332 -0.3294  2.0559 -0.1424
20068TIP3    H281696   1.937   5.289  14.469 -0.5772  0.0377 -0.1700
20069TIP3   OH281697   4.989   0.509  14.156  0.0591 -0.1415 -0.1670
20069TIP3    H181698   4.992   0.581  14.218  0.2622  1.1015 -1.5762
20069TIP3    H281699   4.916   0.530  14.098  0.5303 -0.7128 -0.9937
20070TIP3   OH281700   6.153   0.340  11.652 -0.4205 -0.1738 -0.2570
20070TIP3    H181701   6.086   0.305  11.711 -0.8325 -0.7621 -1.0445
20070TIP3    H281702   6.117   0.425  11.623  0.5629  0.9415  1.6242
20071TIP3   OH281703   4.082   4.901   1.886  1.1047  0.9292 -0.2033
20071TIP3    H181704   4.141   4.846   1.833  0.3613  0.4781 -0.5845
20071TIP3    H281705   3.995   4.869   1.865  0.6218  2.4502 -0.6372
20072TIP3   OH281706   5.579   0.566  15.197  0.0771  0.6398 -0.0143
20072TIP3    H181707   5.551   0.636  15.137 -1.2217  0.6799  0.6091
20072TIP3    H281708   5.507   0.558  15.260  1.6749  1.0839  1.9868
20073TIP3   OH281709   6.821   4.144  14.133 -0.4712  0.6154  0.0357
20073TIP3    H181710   6.760   4.130  14.060 -1.8260 -0.9922  1.3855
20073TIP3    H281711   6.867   4.225  14.111 -1.9516  1.0230 -1.8265
20074TIP3   OH281712   4.894   0.942   0.628  0.3013  0.3617  0.9956
20074TIP3    H181713   4.883   0.886   0.551 -2.8110  1.7467  0.2707
20074TIP3    H281714   4.908   0.881   0.700 -1.9372 -1.3375  0.1034
20075TIP3   OH281715   0.390   4.721   2.279 -0.7461  0.2865  0.2924
20075TIP3    H181716   0.471   4.670   2.287  0.2651  1.9681  1.2886
20075TIP3    H281717   0.323   4.655   2.259  0.4121 -1.4890  1.8858
20076TIP3   OH281718   1.626   1.872   4.213  0.2780  0.2310 -0.1312
20076TIP3    H181719   1.621   1.808   4.285  0.4950 -1.9599 -1.9318
20076TIP3    H281720   1.541   1.866   4.170  0.2851  1.2294 -0.2964
20077TIP3   OH281721   0.524   2.856  15.722  0.1167  0.1833 -0.1053
20077TIP3    H181722   0.593   2.921  15.710 -0.6031  0.6788 -1.8252
20077TIP3    H281723   0.445   2.907  15.738 -0.1508 -0.3307  0.2529
20078TIP3   OH281724   5.131   5.527  14.271  0.0291  0.8098  0.2698
20078TIP3    H181725   5.121   5.620  14.248 -1.7404  0.4763 -0.4524
20078TIP3    H281726   5.046   5.488  14.250  1.5789 -1.5555 -2.2175
20079TIP3   OH281727   5.967   6.527  12.565  0.6356 -0.5916 -0.0222
20079TIP3    H181728   6.047   6.478  12.544  0.7769  0.0208 -0.9961
20079TIP3    H281729   5.900   6.488  12.509  0.3527 -0.8038  0.4628
20080TIP3   OH281730   4.748   1.663   4.622 -0.2232  0.2348  0.0463
20080TIP3    H181731   4.748   1.714   4.540 -0.5703 -0.3463 -0.3206
20080TIP3    H281732   4.773   1.575   4.595  0.6692  0.2610  0.7239
20081TIP3   OH281733   3.586   2.415  15.518 -0.2418  0.2783 -0.3425
20081TIP3    H181734   3.548   2.480  15.458 -0.8827  0.3688  0.1423
20081TIP3    H281735   3.520   2.406  15.587  0.8752  0.8722  0.8430
20082TIP3   OH281736   6.687   5.983   3.925  0.1985  0.0736 -1.1167
20082TIP3    H181737   6.598   5.986   3.960  0.7550  1.7565  0.3001
20082TIP3    H281738   6.717   6.074   3.930  3.0935 -0.8757  1.4589
20083TIP3   OH281739   0.025   2.517   4.346 -0.0522  0.6857  0.1589
20083TIP3    H181740   0.064   2.604   4.335  0.1722  0.4683 -0.8541
20083TIP3    H281741   0.083   2.459   4.297 -1.2574  0.2479 -0.7872
20084TIP3   OH281742   2.552   2.727  11.332  0.6744  0.1827  0.0607
20084TIP3    H181743   2.501   2.772  11.264  1.0021  2.4393  1.2402
20084TIP3    H281744   2.632   2.700  11.287  0.2977  0.3953 -0.7726
20085TIP3   OH281745   4.520   6.080   6.223  0.4806 -0.7781 -0.0114
20085TIP3    H181746   4.475   6.148   6.273 -1.8318 -2.2129  0.0259
20085TIP3    H281747   4.570   6.032   6.288  0.4506 -0.3699  0.3141
20086TIP3   OH281748   6.815   4.687   4.808  0.1071  0.0209  0.8832
20086TIP3    H181749   6.763   4.628   4.754  3.0680 -1.3529 -0.6562
20086TIP3    H281750   6.786   4.775   4.782 -1.7008 -0.6424  0.4762
20087TIP3   OH281751   1.453   1.678  12.377  0.9920 -0.4619  0.0730
20087TIP3    H181752   1.540   1.646  12.353  0.8481 -0.6776 -0.1689
20087TIP3    H281753   1.397   1.651  12.305  1.2191  2.1497 -1.1812
20088TIP3   OH281754   6.448   5.692  11.972  0.3969 -0.9352 -0.3970
20088TIP3    H181755   6.500   5.648  11.905  0.0089 -1.7367 -0.1743
20088TIP3    H281756   6.414   5.622  12.027 -1.0180 -0.4332 -0.5948
20089TIP3   OH281757   3.088   5.596  13.888 -1.0477 -0.4289  0.6106
20089TIP3    H181758   3.111   5.660  13.954  0.6655 -1.7911  1.4105
20089TIP3    H281759   2.999   5.619  13.862 -0.7538  1.7836  1.3885
20090TIP3   OH281760   3.206   2.652   0.101  0.0294  0.1979  0.3394
20090TIP3    H181761   3.245   2.733   0.065  0.6939 -0.6676 -0.9686
20090TIP3    H281762   3.276   2.614   0.154  0.9009 -1.1072 -1.6187
20091TIP3   OH281763   0.486   6.370   2.362  0.2270  0.2649  0.1628
20091TIP3    H181764   0.505   6.424   2.439  0.0482 -0.2955  0.6075
20091TIP3    H281765   0.435   6.296   2.396 -0.7188  0.5125 -0.6423
20092TIP3   OH281766   0.903   5.989  16.832  0.0076  0.3627 -0.3405
20092TIP3    H181767   0.934   6.014  16.745  0.1246 -0.9205 -0.6817
20092TIP3    H281768   0.978   6.004  16.890 -0.1494  1.4551 -0.3986
20093TIP3   OH281769   0.610   1.277  14.138 -0.2854  0.0486 -0.6474
20093TIP3    H181770   0.603   1.350  14.199  0.0525  0.0836 -0.6480
20093TIP3    H281771   0.562   1.305  14.060  0.2361  0.4577 -0.8248
20094TIP3   OH281772   2.224   0.550   5.535 -0.0306  0.2483 -0.4081
20094TIP3    H181773   2.277   0.629   5.540  1.2749 -0.6611  1.8253
20094TIP3    H281774   2.133   0.581   5.543  0.4957  1.5155  1.2486
20095TIP3   OH281775   6.614   5.636  10.347 -0.0565 -0.1789  0.1838
20095TIP3    H181776   6.610   5.721  10.304 -0.9457  0.0913  0.7790
20095TIP3    H281777   6.598   5.654  10.440  1.7534 -0.7686  0.6421
20096TIP3   OH281778   3.450   5.559   4.811  0.1065  0.2277 -0.2169
20096TIP3    H181779   3.395   5.482   4.828  1.0624 -0.3113  0.5487
20096TIP3    H281780   3.414   5.597   4.731  0.4970 -1.8794 -1.4841
20097TIP3   OH281781   1.424   4.271   3.070  0.1741  0.0312  0.1727
20097TIP3    H181782   1.430   4.222   3.153  0.3135  0.2447  0.2902
20097TIP3    H281783   1.331   4.266   3.046 -0.2815  1.6617  1.3943
20098TIP3   OH281784   4.967   0.694  17.039 -0.0655 -0.2699 -0.5882
20098TIP3    H181785   5.054   0.730  17.025 -0.1878  0.6368  0.7861
20098TIP3    H281786   4.980   0.621  17.100 -0.2179 -0.3954 -0.7051
20099TIP3   OH281787   2.642   0.655  14.006 -0.2788  0.7057  0.1510
20099TIP3    H181788   2.560   0.692  14.039 -3.5081 -4.3269 -0.9849
20099TIP3    H281789   2.687   0.624  14.085 -1.0248  0.8164  0.6294
20100TIP3   OH281790   6.794   3.786  13.486 -0.4171  0.0048  0.1247
20100TIP3    H181791   6.844   3.866  13.469 -2.6841  1.6178  0.5703
20100TIP3    H281792   6.807   3.769  13.579  1.3076 -1.1258 -0.2668
20101TIP3   OH281793   0.121   3.808   1.780 -0.6300 -0.4215  0.5398
20101TIP3    H181794   0.128   3.714   1.766 -0.0213 -0.4519  0.9835
20101TIP3    H281795   0.129   3.846   1.693 -2.4887 -0.8362  0.1482
20102TIP3   OH281796   1.657   5.582   4.778 -0.4972 -0.2825 -0.5366
20102TIP3    H181797   1.595   5.537   4.836  0.0891 -0.0449  0.2999
20102TIP3    H281798   1.708   5.637   4.837  0.7037 -0.6956 -1.1675
20103TIP3   OH281799   5.244   0.922  16.325  0.2546 -0.3386 -0.3212
20103TIP3    H181800   5.185   0.976  16.272 -0.6908 -1.2800 -0.2583
20103TIP3    H281801   5.195   0.842  16.342  1.2512 -0.8169  0.4293
20104TIP3   OH281802   3.668   0.110  15.505  0.0553  0.3420  0.2203
20104TIP3    H181803   3.665   0.140  15.414  3.0635  1.6527  0.4470
20104TIP3    H281804   3.736   0.043  15.506  1.4521  1.6808  1.7530
20105TIP3   OH281805   6.702   1.930  15.722 -0.3357 -0.1199  0.5530
20105TIP3    H181806   6.728   2.019  15.744 -0.8641  0.4065 -0.8077
20105TIP3    H281807   6.737   1.876  15.792  1.3886  0.9612  0.5776
20106TIP3   OH281808   2.664   6.050   0.344 -0.0892  0.4976 -1.1932
20106TIP3    H181809   2.633   6.140   0.333  0.5485  0.7846 -0.7140
20106TIP3    H281810   2.728   6.055   0.416  0.8192 -0.1233 -1.9302
20107TIP3   OH281811   5.987   6.343   2.007 -0.6903  0.2723 -0.4364
20107TIP3    H181812   5.984   6.291   2.087  0.3447  1.2813  0.2941
20107TIP3    H281813   5.925   6.415   2.022  0.8870  1.5428  0.2961
20108TIP3   OH281814   5.032   2.219  13.366 -0.4841 -1.0098 -0.5435
20108TIP3    H181815   5.103   2.278  13.340 -1.3828 -0.1748 -1.1403
20108TIP3    H281816   4.954   2.274  13.371 -0.9045 -1.6860  1.2340
20109TIP3   OH281817   2.740   3.949  12.771 -0.2546  0.2310  0.1069
20109TIP3    H181818   2.754   3.862  12.733 -1.3226  1.0367 -2.3734
20109TIP3    H281819   2.825   3.992  12.763 -0.5398  0.5127 -1.8981
20110TIP3   OH281820   4.548   1.135   2.729 -0.1870  0.0770 -0.3570
20110TIP3    H181821   4.595   1.210   2.691 -0.0896  0.9247  1.3345
20110TIP3    H281822   4.554   1.148   2.824 -0.3582 -1.9863 -0.0126
20111TIP3   OH281823   0.926   0.057  12.792  0.5938 -0.3772  0.2500
20111TIP3    H181824   0.993   0.104  12.841  0.3268  2.4819 -1.8579
20111TIP3    H281825   0.970   0.029  12.712 -0.2653 -0.0599 -0.3460
20112TIP3   OH281826   6.510   3.783   0.089  0.0940 -0.3629 -0.1455
20112TIP3    H181827   6.534   3.849   0.023 -1.0409  0.2010 -0.0145
20112TIP3    H281828   6.585   3.724   0.091 -0.1385 -0.8511 -2.5113
20113TIP3   OH281829   5.600   2.366   5.129  0.3814 -0.2613 -0.2220
20113TIP3    H181830   5.629   2.416   5.206  1.1909  0.9712 -1.2751
20113TIP3    H281831   5.504   2.370   5.133  0.4082 -0.1129  0.6396
20114TIP3   OH281832   2.557   5.565  11.908  0.0141 -0.0428  0.3684
20114TIP3    H181833   2.555   5.657  11.934  0.4640  0.1633 -0.2950
20114TIP3    H281834   2.647   5.550  11.878  0.0724 -0.8238  0.9102
20115TIP3   OH281835   5.559   4.938   0.826 -0.4019 -0.3736 -0.0363
20115TIP3    H181836   5.643   4.973   0.798  0.4241 -2.7800 -0.8373
20115TIP3    H281837   5.544   4.978   0.912  0.8110  1.2184 -0.5171
20116TIP3   OH281838   5.023   0.546  15.732 -0.0524 -0.5374  0.0148
20116TIP3    H181839   5.034   0.458  15.696 -2.3265 -1.2429  0.8634
20116TIP3    H281840   4.944   0.580  15.690  1.5898  1.7846 -1.4425
20117TIP3   OH281841   5.908   1.680  15.393  0.1131 -0.4991  0.1030
20117TIP3    H181842   5.894   1.675  15.487 -1.0846 -0.4236 -0.0560
20117TIP3    H281843   5.832   1.729  15.360  2.0635  2.2983 -0.5568
20118TIP3   OH281844   2.146   3.943  13.667  0.3605 -0.2997 -0.7469
20118TIP3    H181845   2.189   4.003  13.606  0.9059 -0.3953 -0.4660
20118TIP3    H281846   2.053   3.953  13.649  0.3378  1.5661  0.1447
20119TIP3   OH281847   4.183   2.542   5.905 -0.0385 -0.0536  0.5757
20119TIP3    H181848   4.206   2.450   5.919  0.6145  0.2708  1.7107
20119TIP3    H281849   4.166   2.548   5.811  0.1703 -1.2748  0.4448
20120TIP3   OH281850   4.508   5.219  12.690  0.1390  0.2606  0.5182
20120TIP3    H181851   4.440   5.212  12.623 -1.3267  0.8337  1.8720
20120TIP3    H281852   4.506   5.135  12.736 -0.4759  0.6861  1.2887
20121TIP3   OH281853   2.220   6.077  13.372 -0.0982  0.2585 -0.8992
20121TIP3    H181854   2.163   6.051  13.444  0.4210 -0.9721 -0.9174
20121TIP3    H281855   2.169   6.144  13.325 -0.9513  0.1742 -0.1310
20122TIP3   OH281856   3.456   0.573   1.423  0.5153  0.2376  0.1017
20122TIP3    H181857   3.461   0.480   1.400  0.0392 -0.0656  1.1801
20122TIP3    H281858   3.530   0.587   1.482  0.1916  0.3923  0.4683
20123TIP3   OH281859   1.062   3.030  12.247  0.1545 -0.5525  0.1943
20123TIP3    H181860   1.065   3.055  12.154 -0.6676 -0.5594  0.1641
20123TIP3    H281861   1.025   3.107  12.291 -2.5680 -1.7150  0.0864
20124TIP3   OH281862   0.818   4.614  13.521  0.5954  0.1457 -0.3523
20124TIP3    H181863   0.878   4.595  13.449  0.9279 -0.3656  0.0484
20124TIP3    H281864   0.790   4.704  13.506  0.2996 -0.1032 -1.3745
20125TIP3   OH281865   1.212   1.158  16.755  0.1858  0.1185 -0.5252
20125TIP3    H181866   1.225   1.199  16.841  1.2477  0.5817 -0.8770
20125TIP3    H281867   1.120   1.173  16.734 -0.8406 -2.3810  1.6944
20126TIP3   OH281868   0.834   0.694  13.308  1.1654  0.2996 -0.3302
20126TIP3    H181869   0.919   0.676  13.270  1.8246  0.9475  0.7665
20126TIP3    H281870   0.852   0.759  13.376 -0.0099 -0.4757  0.7661
20127TIP3   OH281871   2.710   4.529  11.360  0.6425  0.3465 -0.0889
20127TIP3    H181872   2.762   4.490  11.290 -1.0529 -2.0750 -0.1275
20127TIP3    H281873   2.705   4.462  11.428 -0.1838  1.5184  1.0688
20128TIP3   OH281874   1.211   5.002  15.501  0.0401 -0.2015 -0.0520
20128TIP3    H181875   1.236   5.084  15.545  1.0862 -0.7871  0.4699
20128TIP3    H281876   1.128   4.978  15.541 -0.9257  1.2315 -1.0798
20129TIP3   OH281877   2.294   0.902  12.844 -0.4971  0.1691  0.4210
20129TIP3    H181878   2.230   0.843  12.884 -2.6856  1.9361 -0.2234
20129TIP3    H281879   2.314   0.966  12.912 -0.9557  0.7425  0.0300
20130TIP3   OH281880   1.698   1.230   2.656  0.7360 -0.2116  0.3006
20130TIP3    H181881   1.691   1.152   2.712  1.1883 -1.4257 -1.2610
20130TIP3    H281882   1.641   1.212   2.582  2.8235 -0.2776 -1.3913
20131TIP3   OH281883   2.613   0.059   1.013  0.6890 -0.2078  0.5327
20131TIP3    H181884   2.575   0.099   0.934  1.5929  0.2596  0.3109
20131TIP3    H281885   2.592  -0.034   1.006  1.8724 -0.4013 -0.9607
20132TIP3   OH281886   4.948   6.766  11.316 -0.0638  0.1373 -0.1809
20132TIP3    H181887   4.953   6.837  11.379 -0.2789  2.2857 -2.4528
20132TIP3    H281888   5.028   6.715  11.331 -0.3246  0.3054  2.0405
20133TIP3   OH281889   0.556   6.150  14.663 -0.2682 -0.8145  0.5886
20133TIP3    H181890   0.558   6.191  14.577 -0.4419 -1.3904  0.3036
20133TIP3    H281891   0.482   6.191  14.708  1.0328  0.9486  1.2227
20134TIP3   OH281892   0.247   6.517   0.266  0.3969  0.0916 -0.1796
20134TIP3    H181893   0.277   6.534   0.177  0.0832  2.1356  0.0716
20134TIP3    H281894   0.180   6.583   0.282 -0.7644 -1.2872  1.0103
20135TIP3   OH281895   0.336   0.762  16.170 -0.4284  0.1526 -0.6096
20135TIP3    H181896   0.272   0.717  16.225  0.8773  0.6178  1.4004
20135TIP3    H281897   0.379   0.824  16.229  1.0443  0.7229 -2.1893
20136TIP3   OH281898   3.492   3.603   2.186 -0.1455 -0.5298 -0.5102
20136TIP3    H181899   3.534   3.662   2.248 -1.7106 -0.8636  0.9512
20136TIP3    H281900   3.493   3.650   2.103  1.6715  0.0819 -0.1720
20137TIP3   OH281901   1.768   4.999   4.515 -0.2034  0.1379  0.3948
20137TIP3    H181902   1.768   5.087   4.553 -0.8250  0.2177  0.2162
20137TIP3    H281903   1.760   5.014   4.421  1.2987 -0.0595  0.2048
20138TIP3   OH281904   0.331   0.653  13.644 -0.4569  0.0399 -0.0220
20138TIP3    H181905   0.389   0.590  13.687  0.2965  1.1834  0.6833
20138TIP3    H281906   0.263   0.673  13.709 -0.1400  0.6768  0.1223
20139TIP3   OH281907   5.767   0.424  11.132 -0.5420  0.3262  0.1764
20139TIP3    H181908   5.824   0.492  11.096 -2.8550  2.9581  1.1481
20139TIP3    H281909   5.722   0.388  11.056  0.3522  0.1642 -0.2966
20140TIP3   OH281910   3.485   0.433  12.781  0.0956  0.2368  0.1066
20140TIP3    H181911   3.424   0.457  12.851 -1.7848 -2.1439 -0.5755
20140TIP3    H281912   3.558   0.390  12.826  0.4514  1.5020  0.7867
20141TIP3   OH281913   1.776   4.466  12.656 -0.0681 -0.3340 -0.3849
20141TIP3    H181914   1.689   4.457  12.695  0.7436 -0.5798  1.4823
20141TIP3    H281915   1.800   4.377  12.631  0.9667 -0.8726  2.2319
20142TIP3   OH281916   6.842   5.598   4.725 -0.0271  0.2131  0.1676
20142TIP3    H181917   6.809   5.665   4.665  1.6445  0.6073 -0.3824
20142TIP3    H281918   6.820   5.632   4.812 -1.6692  0.0792 -0.1635
20143TIP3   OH281919   4.775   3.826   1.180 -0.1739  0.0954 -0.1188
20143TIP3    H181920   4.757   3.757   1.117 -1.5933  0.1418  0.1945
20143TIP3    H281921   4.763   3.907   1.131  1.9363  0.1603 -0.6061
20144TIP3   OH281922   2.672   5.427  11.280  0.4081  0.4541 -0.3920
20144TIP3    H181923   2.745   5.402  11.336  0.4814  0.5072 -0.4637
20144TIP3    H281924   2.609   5.356  11.288  0.7083  0.1454 -0.7625
20145TIP3   OH281925   3.770   3.208   0.990  0.1779  0.1215 -0.2749
20145TIP3    H181926   3.820   3.178   0.915  0.6793  1.6591 -0.5967
20145TIP3    H281927   3.732   3.129   1.028  0.5531 -0.7597 -1.6857
20146TIP3   OH281928   0.590   3.889  13.836  0.3714  0.2007 -0.1789
20146TIP3    H181929   0.576   3.908  13.743  0.2603 -1.5235 -0.5588
20146TIP3    H281930   0.685   3.891  13.847  0.3785  0.5293 -0.3006
20147TIP3   OH281931   3.250   1.246  15.266  0.0750 -0.0477 -0.0790
20147TIP3    H181932   3.305   1.204  15.200 -0.0576 -1.1143  0.4703
20147TIP3    H281933   3.282   1.212  15.350  0.2571  1.2958  0.4334
20148TIP3   OH281934   0.629   0.343  14.913 -0.5463  0.6124 -0.3514
20148TIP3    H181935   0.577   0.279  14.863  1.6025 -3.0209  1.6210
20148TIP3    H281936   0.580   0.357  14.993 -0.0225 -0.3305  0.1473
20149TIP3   OH281937   3.649   1.270   2.659  0.7398 -0.2282 -0.0715
20149TIP3    H181938   3.692   1.330   2.599 -0.5876  0.6629 -0.1672
20149TIP3    H281939   3.690   1.287   2.744 -2.0525  3.5568  0.7550
20150TIP3   OH281940   4.175   0.929   0.787 -0.2923  0.2269  0.4333
20150TIP3    H181941   4.144   0.838   0.783  1.0089 -0.2669  1.0552
20150TIP3    H281942   4.111   0.978   0.736  0.1514 -1.3613 -1.8020
20151TIP3   OH281943   6.605   6.827   6.648 -0.5579  0.4510 -0.7361
20151TIP3    H181944   6.694   6.860   6.633 -0.3704  1.0751  1.3852
20151TIP3    H281945   6.569   6.886   6.714 -1.4752 -1.5183  0.6293
20152TIP3   OH281946   1.468   4.407  15.970  0.6440 -0.2071 -0.3224
20152TIP3    H181947   1.518   4.354  15.908 -0.6521 -0.1415 -1.4821
20152TIP3    H281948   1.442   4.346  16.039  1.6591 -0.3984 -0.0927
20153TIP3   OH281949   0.501   5.923  14.796  0.3561 -0.0713  0.4141
20153TIP3    H181950   0.563   5.905  14.866  0.3653  1.5289  0.8480
20153TIP3    H281951   0.532   6.005  14.757  0.9478 -1.3965 -2.1442
20154TIP3   OH281952   1.866   3.970  16.128  0.1833  0.2741 -0.8487
20154TIP3    H181953   1.844   3.961  16.035  0.6582 -0.8326 -0.8727
20154TIP3    H281954   1.953   3.930  16.136  0.5114  1.0995 -0.0725
20155TIP3   OH281955   2.593   3.680   1.383 -0.1406  0.2456 -0.0237
20155TIP3    H181956   2.624   3.607   1.436 -2.6936 -0.0422  1.2642
20155TIP3    H281957   2.590   3.754   1.444 -2.1479  0.1650  0.0524
20156TIP3   OH281958   3.997   5.253   0.708 -0.1153 -0.6090 -0.1207
20156TIP3    H181959   3.979   5.190   0.638 -2.8641 -0.9205  0.7444
20156TIP3    H281960   3.911   5.290   0.730  0.8207  0.3483  2.2794
20157TIP3   OH281961   4.880   3.061  15.308 -0.5281 -0.3150  0.2138
20157TIP3    H181962   4.865   2.995  15.376  0.8166 -0.6768  0.2017
20157TIP3    H281963   4.793   3.079  15.272 -1.2702 -0.1198  1.9979
20158TIP3   OH281964   6.797   0.220  16.319  0.1799  0.0509  0.1981
20158TIP3    H181965   6.710   0.217  16.358  0.5692  0.8390  1.1934
20158TIP3    H281966   6.855   0.237  16.393  1.3629 -1.8779 -0.2024
20159TIP3   OH281967   4.136   6.010   5.299  0.7940 -0.1188  1.1447
20159TIP3    H181968   4.227   6.012   5.271  0.2832  2.2187 -0.6651
20159TIP3    H281969   4.133   6.063   5.378  0.5719  2.9173 -0.7398
20160TIP3   OH281970   1.595   4.270   2.411  0.0776  0.1201  0.3218
20160TIP3    H181971   1.651   4.325   2.467  0.3396  0.2372 -0.0498
20160TIP3    H281972   1.526   4.239   2.469 -0.8509  1.9262  0.2625
20161TIP3   OH281973   1.594   3.037   5.223 -0.6106  0.1370  0.0557
20161TIP3    H181974   1.649   3.000   5.154 -1.5231 -3.3122  0.9649
20161TIP3    H281975   1.627   3.126   5.235  0.4990  0.4233 -3.7694
20162TIP3   OH281976   6.085   3.266  13.584 -0.2026 -0.2452  0.3763
20162TIP3    H181977   6.049   3.228  13.504 -0.4210  0.0906  0.3120
20162TIP3    H281978   6.179   3.257  13.575 -0.2191 -0.0700  0.0066
20163TIP3   OH281979   3.254   6.693  17.002 -0.2447 -0.1055 -0.0821
20163TIP3    H181980   3.233   6.632  16.932 -0.5261  0.5093 -0.5352
20163TIP3    H281981   3.184   6.758  17.000 -0.3258 -0.1486  0.8489
20164TIP3   OH281982   1.124   4.939  17.140 -0.1890 -0.2966  0.3444
20164TIP3    H181983   1.092   4.857  17.178 -3.1239 -0.1231 -1.3636
20164TIP3    H281984   1.103   5.005  17.206  0.4057 -0.6721  0.9240
20165TIP3   OH281985   1.254   5.922   3.026 -0.0639 -0.1651  0.2029
20165TIP3    H181986   1.217   5.913   3.114  0.1409  1.5165  0.4990
20165TIP3    H281987   1.179   5.921   2.968 -0.5542  2.2045  0.7157
20166TIP3   OH281988   1.452   0.610   0.380 -0.3856 -0.3525  0.3871
20166TIP3    H181989   1.438   0.597   0.287 -0.2253 -0.0439  0.3182
20166TIP3    H281990   1.547   0.606   0.392  0.1376  4.2532 -0.2419
20167TIP3   OH281991   5.244   0.512  16.844  0.3474 -0.5379  0.5929
20167TIP3    H181992   5.182   0.515  16.771  1.0720  0.2164 -0.0233
20167TIP3    H281993   5.219   0.435  16.894 -0.6906 -0.5991  0.0107
20168TIP3   OH281994   3.998   4.686  11.500  0.0396 -0.5280 -0.2046
20168TIP3    H181995   3.993   4.738  11.581  2.7896  1.4859 -1.1943
20168TIP3    H281996   4.082   4.641  11.505  0.5547  0.1219 -2.1785
20169TIP3   OH281997   4.548   5.652   2.942 -0.3742 -0.2575  0.0911
20169TIP3    H181998   4.624   5.668   2.886 -0.0834 -0.1800  0.5069
20169TIP3    H281999   4.498   5.584   2.895  0.8875 -1.6603  0.6930
20170TIP3   OH282000   0.479   1.185   1.302  0.8135  0.7240  0.4563
20170TIP3    H182001   0.553   1.226   1.348  0.7453  2.0007 -0.5155
20170TIP3    H282002   0.407   1.190   1.365  1.2258  0.6268  0.9438
20171TIP3   OH282003   2.766   1.058   4.250 -0.3009 -0.1989  0.2367
20171TIP3    H182004   2.774   1.152   4.235 -0.0023 -0.2901 -0.1957
20171TIP3    H282005   2.692   1.049   4.309  0.6403  0.4234  1.5527
20172TIP3   OH282006   1.520   4.852   2.894 -0.1037 -0.3120  0.4251
20172TIP3    H182007   1.468   4.830   2.817  0.2860  2.5971 -0.7815
20172TIP3    H282008   1.517   4.773   2.948 -0.6589 -2.3806 -2.3917
20173TIP3   OH282009   5.050   3.977   5.461 -0.0512 -0.2626  0.1426
20173TIP3    H182010   5.100   4.040   5.408 -0.0196  0.3692  0.9023
20173TIP3    H282011   4.972   4.024   5.487 -0.7482 -1.0381 -0.4902
20174TIP3   OH282012   6.433   4.157   1.801  0.4040  0.6188 -0.1007
20174TIP3    H182013   6.393   4.190   1.720 -0.4499  1.0341  0.4839
20174TIP3    H282014   6.526   4.179   1.791  0.3640  0.4114 -1.0879
20175TIP3   OH282015   5.239   4.431  10.532 -0.3189 -0.3740  0.6164
20175TIP3    H182016   5.236   4.518  10.572  4.4753  0.8064 -0.8089
20175TIP3    H282017   5.326   4.398  10.554  0.2080 -2.3254 -3.3883
20176TIP3   OH282018   0.519   2.203   4.832  0.7353  0.3273 -0.4416
20176TIP3    H182019   0.608   2.214   4.801  0.7046  1.4788 -0.1475
20176TIP3    H282020   0.525   2.213   4.927  0.1481  1.4333 -0.5126
20177TIP3   OH282021   5.945   5.727  13.484 -0.1840 -0.2003  0.4849
20177TIP3    H182022   5.914   5.816  13.500  0.4464 -0.4527  3.9801
20177TIP3    H282023   6.040   5.735  13.480 -0.1380 -0.6620  0.5580
20178TIP3   OH282024   1.131   2.092  14.155 -0.7125  0.2836  0.0410
20178TIP3    H182025   1.084   2.024  14.204  0.6037 -0.2338  0.6424
20178TIP3    H282026   1.064   2.136  14.104 -2.0120  0.3603  1.7668
20179TIP3   OH282027   0.880   3.723  13.773  0.0049 -0.2359  0.2705
20179TIP3    H182028   0.892   3.672  13.854  1.6864 -2.5106 -1.2665
20179TIP3    H282029   0.806   3.681  13.729 -0.4092  0.4945  0.2576
20180TIP3   OH282030   6.456   0.318   4.378 -0.2560  0.6508  0.3797
20180TIP3    H182031   6.469   0.402   4.335  1.2394  0.3451  0.1876
20180TIP3    H282032   6.512   0.257   4.331  1.1352  0.2097  2.4487
20181TIP3   OH282033   0.179   1.819  14.841  0.2004 -0.0193 -0.3422
20181TIP3    H182034   0.253   1.880  14.847  0.6715 -0.2756 -2.6123
20181TIP3    H282035   0.158   1.816  14.747 -1.4289 -1.4607  0.0193
20182TIP3   OH282036   0.529   2.816  16.691  0.0322 -0.1184 -0.2605
20182TIP3    H182037   0.607   2.763  16.708  0.1366 -0.0944 -0.6664
20182TIP3    H282038   0.461   2.753  16.667 -0.0073 -0.1191 -0.1471
20183TIP3   OH282039   5.774   0.689   1.832 -0.2816 -0.4229 -0.2762
20183TIP3    H182040   5.825   0.654   1.759 -1.1860 -0.3863 -0.9370
20183TIP3    H282041   5.683   0.667   1.811 -0.6252  0.2215  0.4812
20184TIP3   OH282042   3.375   1.390  13.504 -0.5340 -0.2500 -0.2067
20184TIP3    H182043   3.470   1.387  13.518 -0.5212 -0.0109 -0.2270
20184TIP3    H282044   3.365   1.399  13.409 -0.4909  2.2297 -0.0506
20185TIP3   OH282045   6.692   1.592  14.707  0.7095 -0.0314  0.5704
20185TIP3    H182046   6.619   1.651  14.691  0.9293  0.4155  1.1706
20185TIP3    H282047   6.737   1.630  14.783  1.3924 -0.4573  0.3853
20186TIP3   OH282048   5.925   3.828  11.879 -0.1299  0.2489 -0.6604
20186TIP3    H182049   5.931   3.762  11.810  2.3356  1.2214 -1.4639
20186TIP3    H282050   5.943   3.911  11.835 -0.8373  1.2055  0.7576
20187TIP3   OH282051   1.844   4.458   4.270  0.8617 -0.2858 -0.2793
20187TIP3    H182052   1.826   4.459   4.364  0.1223 -0.9948 -0.4025
20187TIP3    H282053   1.939   4.445   4.264  0.6959 -2.1162  0.3752
20188TIP3   OH282054   6.239   6.384   1.930 -0.2007 -0.0956  0.1024
20188TIP3    H182055   6.241   6.403   1.836 -1.2109  0.1484  0.1117
20188TIP3    H282056   6.150   6.351   1.945  0.5245 -1.9116  0.6464
20189TIP3   OH282057   0.868   5.885  12.816  0.1612  0.0284  0.6260
20189TIP3    H182058   0.803   5.848  12.757  0.3741  1.0561 -0.2818
20189TIP3    H282059   0.941   5.910  12.759 -0.5460  3.1947  0.9285
20190TIP3   OH282060   1.085   5.295  15.200  0.5853  0.0545 -0.0011
20190TIP3    H182061   1.125   5.368  15.151 -0.7528  2.3446  2.0750
20190TIP3    H282062   1.052   5.336  15.280 -3.6943 -2.0883 -0.4081
20191TIP3   OH282063   5.959   4.314   2.662  0.0675  0.0134 -0.4603
20191TIP3    H182064   5.875   4.337   2.622 -2.8465 -0.6181  4.4939
20191TIP3    H282065   5.991   4.395   2.701 -0.2007 -0.4360  0.7410
20192TIP3   OH282066   0.099   3.903  10.102  0.1384  0.0301 -0.0646
20192TIP3    H182067   0.118   3.952  10.021  0.0278 -0.1396 -0.1942
20192TIP3    H282068   0.026   3.950  10.141 -1.6110 -1.4156 -1.4275
20193TIP3   OH282069   6.140   1.072  16.071  0.2855 -0.1753 -0.1269
20193TIP3    H182070   6.107   0.987  16.043  0.0274  0.0495 -0.5103
20193TIP3    H282071   6.108   1.134  16.004  0.4379  0.2260  0.1662
20194TIP3   OH282072   3.412   4.165   1.851 -0.5267 -0.0144  0.5343
20194TIP3    H182073   3.439   4.091   1.796 -2.7133  0.4174 -1.3034
20194TIP3    H282074   3.400   4.128   1.938  2.9701 -0.7577  0.8206
20195TIP3   OH282075   1.130   6.784  14.241  0.3199 -0.3170 -0.0271
20195TIP3    H182076   1.146   6.700  14.197 -1.3780  0.2044 -1.7498
20195TIP3    H282077   1.205   6.838  14.219  0.1461 -0.5260 -1.1935
20196TIP3   OH282078   1.470   3.493  13.940 -0.1558  0.0470 -0.3910
20196TIP3    H182079   1.410   3.452  13.877  0.5043 -1.6740  0.0643
20196TIP3    H282080   1.557   3.482  13.901 -0.0260  2.1697 -0.8541
20197TIP3   OH282081   1.429   1.002   2.812  0.0008  0.3301  0.2847
20197TIP3    H182082   1.345   0.960   2.797 -0.0265  0.5276 -0.1129
20197TIP3    H282083   1.480   0.984   2.733 -0.1976  1.4912 -0.1293
20198TIP3   OH282084   4.258   5.461   1.406  0.3381  0.1247  0.1547
20198TIP3    H182085   4.304   5.413   1.476  0.5165  0.4511  0.2648
20198TIP3    H282086   4.226   5.540   1.449  1.6045  0.9836 -0.4366
20199TIP3   OH282087   6.040   5.737   4.112 -0.2348 -0.3588  0.1725
20199TIP3    H182088   6.086   5.657   4.137 -1.6885 -1.5373 -0.7267
20199TIP3    H282089   6.012   5.776   4.194 -0.1415 -1.1772  0.5961
20200TIP3   OH282090   4.409   5.810   2.655 -0.2484 -0.2435 -0.3422
20200TIP3    H182091   4.390   5.743   2.588  0.2397 -1.8663  1.0605
20200TIP3    H282092   4.490   5.779   2.696  1.1974  2.3672 -1.0200
20201TIP3   OH282093   2.035   3.603  14.238  0.1417 -0.1030  0.4394
20201TIP3    H182094   2.049   3.697  14.229 -1.0119  0.1027  0.6004
20201TIP3    H282095   1.947   3.589  14.203  0.2316 -1.0886  0.5938
20202TIP3   OH282096   4.602   2.622  14.889 -0.0483  0.2530  0.0712
20202TIP3    H182097   4.654   2.563  14.943 -1.1930 -1.3061 -0.4640
20202TIP3    H282098   4.633   2.608  14.800  2.5524  3.5579  0.2636
20203TIP3   OH282099   2.623   4.592  16.691  0.3868 -0.1652 -0.4005
20203TIP3    H182100   2.716   4.606  16.671  0.3806 -0.0042 -0.3201
20203TIP3    H282101   2.623   4.523  16.757  0.5063  0.4743  0.2862
20204TIP3   OH282102   4.585   5.475  12.635 -0.0488 -0.6183  0.3427
20204TIP3    H182103   4.500   5.516  12.652 -0.2919 -0.7698 -0.4764
20204TIP3    H282104   4.565   5.381  12.628 -0.1422 -0.4914 -1.7213
20205TIP3   OH282105   0.883   0.480  11.801 -0.0123 -0.5052 -0.0345
20205TIP3    H182106   0.861   0.397  11.759 -1.3701 -0.1016 -0.1595
20205TIP3    H282107   0.828   0.482  11.880 -1.8188  1.3062 -1.2495
20206TIP3   OH282108   2.261   6.644   5.127  0.6490 -0.0281  0.7643
20206TIP3    H182109   2.329   6.706   5.153  0.6039  0.4352 -0.1878
20206TIP3    H282110   2.249   6.588   5.204  0.5399  1.2717  1.7296
20207TIP3   OH282111   0.610   0.553  11.011  0.1218  0.3964 -0.0167
20207TIP3    H182112   0.659   0.628  10.977  1.6709 -0.4167  0.3094
20207TIP3    H282113   0.665   0.478  10.990 -1.4361 -0.6788 -0.4059
20208TIP3   OH282114   4.855   1.418  16.811 -0.1218 -0.1545  0.3975
20208TIP3    H182115   4.916   1.467  16.866  0.7031 -0.7922  0.0702
20208TIP3    H282116   4.883   1.437  16.721 -0.2316 -0.6605  0.2517
20209TIP3   OH282117   3.660   1.555  15.910 -0.4962  0.0393  0.2956
20209TIP3    H182118   3.754   1.543  15.924 -0.7504 -1.3306  0.9780
20209TIP3    H282119   3.654   1.631  15.852  0.9457  1.5084  1.9254
20210TIP3   OH282120   1.783   6.296  13.205  0.1342 -0.5544 -0.0276
20210TIP3    H182121   1.693   6.290  13.174 -0.6325 -0.2827  1.9640
20210TIP3    H282122   1.834   6.319  13.128 -1.6984  0.6883 -0.9336
20211TIP3   OH282123   2.479   4.304   0.808  0.7339  0.1545  0.2461
20211TIP3    H182124   2.473   4.243   0.881 -0.8666 -0.8844 -0.7145
20211TIP3    H282125   2.513   4.252   0.735 -4.2613 -0.9005 -1.7471
20212TIP3   OH282126   6.254   2.519  16.148 -0.0001  0.1554 -0.0766
20212TIP3    H182127   6.292   2.520  16.060  2.0047 -3.1454  0.6148
20212TIP3    H282128   6.172   2.470  16.138 -0.5397  1.0614 -0.2884
20213TIP3   OH282129   5.824   0.869  15.985 -0.5314  0.4790 -0.3673
20213TIP3    H182130   5.863   0.955  15.999 -1.1482  0.5844  0.7346
20213TIP3    H282131   5.896   0.816  15.950  0.6915  0.6212  1.7787
20214TIP3   OH282132   2.999   0.591  12.013 -0.5517  0.0690 -0.8087
20214TIP3    H182133   3.025   0.597  12.105 -1.4101  0.7339 -0.5912
20214TIP3    H282134   3.074   0.623  11.964 -0.4424  0.6416 -0.2792
20215TIP3   OH282135   2.425   0.403  15.777 -0.0461  0.3440 -0.2732
20215TIP3    H182136   2.355   0.450  15.823  1.3581  1.3474  0.9531
20215TIP3    H282137   2.420   0.434  15.687 -3.2621 -2.1254 -1.0938
20216TIP3   OH282138   4.676   6.344   2.442 -1.0833 -0.2647  0.6554
20216TIP3    H182139   4.706   6.410   2.504 -1.5763 -0.4105  1.0638
20216TIP3    H282140   4.692   6.382   2.356 -1.7214  0.5583  0.8820
20217TIP3   OH282141   0.421   1.808  16.086 -0.2658 -0.3564 -0.4113
20217TIP3    H182142   0.442   1.721  16.053  1.2831 -0.0272 -0.3783
20217TIP3    H282143   0.439   1.867  16.013 -0.5352  0.0083 -0.1887
20218TIP3   OH282144   1.551   6.664  10.824 -0.4427 -0.1457 -0.4016
20218TIP3    H182145   1.587   6.677  10.912 -0.3288  1.8768 -0.6982
20218TIP3    H282146   1.464   6.704  10.828  0.1947  1.4656 -1.6124
20219TIP3   OH282147   4.712   1.946  16.740  0.1713 -0.2642 -0.3840
20219TIP3    H182148   4.776   1.987  16.681  1.5573 -0.9507  0.5738
20219TIP3    H282149   4.700   1.858  16.705 -1.6616  0.4097 -1.5813
20220TIP3   OH282150   5.559   1.788   5.807  0.0889 -0.3122  0.3870
20220TIP3    H182151   5.486   1.729   5.789 -0.8755  0.6063  1.1450
20220TIP3    H282152   5.631   1.754   5.754 -0.0772 -2.8237  1.6506
20221TIP3   OH282153   3.025   4.454  16.323  0.4652  0.2560  0.0072
20221TIP3    H182154   3.049   4.544  16.345  1.4811 -0.5963  2.9094
20221TIP3    H282155   2.953   4.433  16.383  1.7798 -1.5212  1.0690
20222TIP3   OH282156   4.302   3.043  11.177  0.1282  0.1060  0.1343
20222TIP3    H182157   4.298   2.983  11.103  2.5196 -1.2005  0.9775
20222TIP3    H282158   4.395   3.049  11.199 -0.4618  0.6582  2.8584
20223TIP3   OH282159   0.150   3.262   2.094 -0.1691  0.1071  0.1313
20223TIP3    H182160   0.214   3.312   2.043  0.1875 -0.3983  0.0725
20223TIP3    H282161   0.192   3.177   2.108 -2.1459 -1.5500 -2.8660
20224TIP3   OH282162   4.083   5.354  15.223  0.1170  0.4981  0.2694
20224TIP3    H182163   4.151   5.290  15.200 -0.8943 -0.5536  0.0996
20224TIP3    H282164   4.009   5.301  15.252 -1.1113  1.5543 -0.8142
20225TIP3   OH282165   1.062   4.006   0.335  0.1984 -0.2434 -0.4074
20225TIP3    H182166   1.137   4.052   0.372  1.2045 -1.4147 -0.9018
20225TIP3    H282167   1.020   4.069   0.277  1.1185  0.2705 -0.5282
20226TIP3   OH282168   4.763   6.362   1.091 -0.1305 -0.4070 -0.3732
20226TIP3    H182169   4.856   6.366   1.072  0.0901 -0.7231  0.6284
20226TIP3    H282170   4.747   6.273   1.122 -0.6976 -0.2542 -0.1985
20227TIP3   OH282171   6.094   6.562  15.090  0.4447  0.0007  0.0860
20227TIP3    H182172   6.032   6.510  15.140  0.8553  1.1334  1.8826
20227TIP3    H282173   6.134   6.621  15.155  1.3327  1.2503 -1.5075
20228TIP3   OH282174   6.289   6.734   0.174 -0.1850  0.6363 -0.3384
20228TIP3    H182175   6.372   6.741   0.221 -0.5948  0.2314  0.4673
20228TIP3    H282176   6.244   6.660   0.215 -1.2787  1.3372 -0.2241
20229TIP3   OH282177   4.527   1.106   6.252 -0.4767  0.1087  0.2927
20229TIP3    H182178   4.518   1.033   6.313 -0.7271  0.2554  0.4306
20229TIP3    H282179   4.597   1.160   6.289 -1.2467  0.6896  0.9537
20230TIP3   OH282180   2.309   2.590  13.071 -0.1984  0.1377 -0.0749
20230TIP3    H182181   2.333   2.652  13.002  1.2826  0.0896  0.3528
20230TIP3    H282182   2.217   2.569  13.054 -0.5108  1.8467 -0.6788
20231TIP3   OH282183   3.950   1.078  13.574 -0.4275  0.3523 -0.4240
20231TIP3    H182184   3.957   1.092  13.480 -0.7336  1.2027 -0.3267
20231TIP3    H282185   3.856   1.087  13.593 -0.3841  0.0594 -0.0583
20232TIP3   OH282186   1.541   2.331   0.518  0.6011  0.4942 -0.1947
20232TIP3    H182187   1.586   2.279   0.452  0.6463  0.0483  0.1848
20232TIP3    H282188   1.448   2.321   0.498  0.6637  2.1335 -1.5278
20233TIP3   OH282189   3.032   2.458  12.285 -0.1585 -0.0632 -0.1474
20233TIP3    H182190   3.041   2.365  12.304 -1.1705 -0.0836  0.3238
20233TIP3    H282191   3.087   2.473  12.208  3.2035 -0.2274  2.0145
20234TIP3   OH282192   1.497   4.996   4.670  0.3944 -0.1805  0.0330
20234TIP3    H182193   1.479   4.983   4.577  0.7527 -1.5654  0.1264
20234TIP3    H282194   1.428   4.946   4.715  1.6804 -1.6582  0.4471
20235TIP3   OH282195   6.665   6.306   3.165 -0.2651  0.3283  0.4965
20235TIP3    H182196   6.682   6.341   3.252  0.0495  0.3986  0.4094
20235TIP3    H282197   6.718   6.226   3.160 -1.3612 -0.4526  0.8745
20236TIP3   OH282198   6.744   2.321   0.020 -0.3671 -0.1460  0.2004
20236TIP3    H182199   6.748   2.229   0.047 -0.0398  0.1033  1.0221
20236TIP3    H282200   6.834   2.353   0.028 -0.2339 -0.0672 -1.2688
20237TIP3   OH282201   5.568   6.172  10.222 -0.6416 -0.8429 -0.2380
20237TIP3    H182202   5.493   6.126  10.185 -1.0090  0.3970 -1.1170
20237TIP3    H282203   5.529   6.244  10.272 -0.0758 -1.1764  0.7053
20238TIP3   OH282204   6.628   1.575   1.778 -0.7559 -0.4961 -0.0656
20238TIP3    H182205   6.566   1.581   1.706 -1.5659 -1.6424  0.4961
20238TIP3    H282206   6.580   1.608   1.854 -0.9801 -2.0727  0.5249
20239TIP3   OH282207   1.104   1.545   0.699  0.5347 -0.3805 -0.2475
20239TIP3    H182208   1.199   1.538   0.711  0.2169 -1.1158  2.9038
20239TIP3    H282209   1.068   1.475   0.755 -1.8768 -0.4468 -1.7341
20240TIP3   OH282210   2.834   4.483  14.600 -0.5017  0.4609 -0.4757
20240TIP3    H182211   2.776   4.512  14.529  2.0547  0.8667 -2.5475
20240TIP3    H282212   2.913   4.536  14.589  1.1782 -1.6485  0.7433
20241TIP3   OH282213   0.614   5.437   3.266 -0.5017  0.2216 -0.3582
20241TIP3    H182214   0.663   5.404   3.342  0.7647  0.9943 -0.7955
20241TIP3    H282215   0.552   5.368   3.245 -0.7807 -0.0623  1.2916
20242TIP3   OH282216   4.705   2.346   1.681  0.5476  0.8166 -0.5423
20242TIP3    H182217   4.649   2.270   1.667  0.2172  1.2319 -1.6234
20242TIP3    H282218   4.722   2.347   1.775  0.2446 -0.3618 -0.4568
20243TIP3   OH282219   2.089   4.296   3.705  0.3807  0.2214  0.2950
20243TIP3    H182220   2.087   4.296   3.610 -0.4401 -0.5746  0.2996
20243TIP3    H282221   2.181   4.284   3.728  0.5228 -0.0341 -0.4006
20244TIP3   OH282222   3.042   3.044  15.843 -0.1339  0.1337  0.2410
20244TIP3    H182223   2.976   3.058  15.910 -1.3006  0.3115 -0.9105
20244TIP3    H282224   3.089   3.127  15.837  0.6523 -0.1906  1.5080
20245TIP3   OH282225   1.167   5.452   0.626 -0.0780  0.3895  0.0712
20245TIP3    H182226   1.145   5.501   0.705  0.3670  0.9107 -0.1216
20245TIP3    H282227   1.107   5.378   0.626 -0.3904  0.6378  0.6547
20246TIP3   OH282228   5.318   4.212  12.065  0.1805 -0.2004 -0.3156
20246TIP3    H182229   5.379   4.245  12.131  1.0766 -1.5802 -0.4182
20246TIP3    H282230   5.237   4.259  12.082  0.5080 -0.2193  1.5156
20247TIP3   OH282231   2.469   5.533   5.774 -0.0604 -0.2534  0.2676
20247TIP3    H182232   2.430   5.562   5.691  1.8228  0.9192 -0.2770
20247TIP3    H282233   2.437   5.596   5.838 -1.4852 -1.1354  0.4751
20248TIP3   OH282234   3.099   5.501   0.420 -0.2436 -0.4453 -0.8643
20248TIP3    H182235   3.174   5.523   0.366 -0.5744  1.3532 -0.6372
20248TIP3    H282236   3.025   5.501   0.359 -0.1593 -1.8402 -1.0153
20249TIP3   OH282237   0.124   1.626   5.647  0.2285 -0.0829 -0.3290
20249TIP3    H182238   0.070   1.622   5.726 -1.2662  1.6813 -1.2140
20249TIP3    H282239   0.082   1.565   5.586 -1.5639  2.0794 -1.4076
20250LIG      O82240   1.603   1.549  16.208 -0.1611 -0.2900 -0.2912
20250LIG      N82241   1.831   1.838  16.467 -0.0509 -0.7114 -0.5939
20250LIG     C182242   1.762   1.390  16.245 -0.4295 -0.1009 -0.5536
20250LIG     C282243   1.684   1.508  16.315 -0.1398 -0.2488 -0.3236
20250LIG     C382244   1.671   1.266  16.215  0.1689 -1.1314  0.0894
20250LIG     C482245   1.837   1.428  16.117  0.5154  0.3937  0.3321
20250LIG     C582246   1.786   1.627  16.364  0.1832  0.0629 -0.1055
20250LIG     C682247   1.756   1.143  16.177 -0.5777  0.5931 -0.4887
20250LIG     C782248   1.922   1.309  16.068  0.0527  0.4939  0.2022
20250LIG     C882249   1.838   1.180  16.052 -0.0698 -0.2490  0.1698
20250LIG     C982250   1.719   1.750  16.433 -0.2740  0.1631  0.3265
20250LIG    C1082251   1.609   1.468  16.443 -0.3539  1.5314 -0.1735
20250LIG    C1182252   1.777   1.979  16.489  0.2212 -0.0605  0.1300
20250LIG    C1282253   1.918   1.803  16.590 -0.6316 -0.3692  0.0967
20250LIG    C1382254   1.695   1.982  16.618 -0.0134  0.2375  0.1761
20250LIG    C1482255   1.839   1.814  16.723 -0.1896 -0.4360  0.0467
20250LIG    C1582256   1.763   1.947  16.746 -0.0455 -0.8918  0.2449
20250LIG    C1682257   1.674   1.416  16.559  0.0112 -0.5953  0.1073
20250LIG    C1782258   1.471   1.482  16.454 -0.2453 -0.3937 -0.5220
20250LIG    C1882259   1.605   1.394  16.674 -0.2063  0.6514 -0.1828
20250LIG    C1982260   1.396   1.465  16.568 -0.4202  0.7100  0.5112
20250LIG    C2082261   1.468   1.420  16.681  0.2139 -0.0041  0.5839
20250LIG     H182262   1.830   1.352  16.324 -0.4294 -3.5633 -2.0487
20250LIG     H282263   1.593   1.294  16.141  1.3190 -0.2624 -0.8479
20250LIG     H382264   1.604   1.243  16.299  0.2909 -1.0425  0.2124
20250LIG     H482265   1.904   1.515  16.138  0.6767  0.2138  0.5795
20250LIG     H582266   1.767   1.457  16.037  2.3038  0.8133 -1.1614
20250LIG     H682267   1.834   1.660  16.270  0.1304  2.9319  0.7929
20250LIG     H782268   1.871   1.581  16.420  1.3667  0.8427 -1.2211
20250LIG     H882269   1.688   1.057  16.159  0.9994 -0.8859  0.3081
20250LIG     H982270   1.825   1.118  16.260  1.0886  1.5859 -1.5361
20250LIG    H1082271   2.003   1.290  16.142  1.9369  0.2715 -1.7932
20250LIG    H1182272   1.972   1.332  15.971 -0.5482 -0.2295 -0.2850
20250LIG    H1282273   1.770   1.195  15.965 -1.3094 -0.1410  1.1418
20250LIG    H1382274   1.903   1.094  16.025 -0.1246  0.3056 -1.8812
20250LIG    H1482275   1.639   1.793  16.368 -0.2915  0.8044  0.7667
20250LIG    H1582276   1.676   1.719  16.530 -0.2848 -0.4970  0.1182
20250LIG    H1682277   1.732   2.019  16.396 -0.7759  1.0511  1.0656
20250LIG    H1782278   1.871   2.032  16.516 -0.8812  1.7559  0.5834
20250LIG    H1882279   2.013   1.859  16.599 -0.8889 -0.1667  1.8590
20250LIG    H1982280   1.946   1.696  16.581 -2.1337 -0.6107 -3.1783
20250LIG    H2082281   1.665   1.566  16.137 -0.4983  0.0293 -0.5195
20250LIG    H2182282   1.603   1.922  16.603  1.1257 -1.3251 -0.9439
20250LIG    H2282283   1.664   2.088  16.632 -1.4491  0.0663 -1.4454
20250LIG    H2382284   1.907   1.793  16.808  0.0705  0.6042  0.1105
20250LIG    H2482285   1.770   1.727  16.728  1.6989 -1.9549  1.4083
20250LIG    H2582286   1.694   1.946  16.833  0.2548 -0.6532  0.4856
20250LIG    H2682287   1.829   2.035  16.760 -2.0639  0.9496 -1.2042
20250LIG    H2782288   1.782   1.407  16.565  0.1689  0.4415 -0.8615
20250LIG    H2882289   1.416   1.514  16.366 -0.5792 -0.1989 -0.2445
20250LIG    H2982290   1.655   1.359  16.764 -0.2927 -1.1510 -0.7824
20250LIG    H3082291   1.290   1.484  16.573 -0.3499  1.8968 -1.5040
20250LIG    H3182292   1.410   1.403  16.771  1.7523  1.1299  1.8602
   6.84663   6.84663  17.14602
